
119785  0.0000000e+00
  58.6743975  43.7317085  89.4614697  57.8468275  43.4502459  89.9674416
  58.5804558  43.3821201  88.5185623  58.6322498  44.7403765  89.4917583
  59.8611593  43.1064892  90.1039600  59.8592567  43.5238409  91.1108875
  59.9631596  41.4883566  90.0489426  60.2948952  41.2270260  89.0440750
  60.7090425  41.1688423  90.7767200  58.6486149  40.8317184  90.4556084
  58.4615040  39.6441770  90.1252365  57.8076744  41.4899826  91.1023808
  61.1388493  43.6631870  89.3708706  61.2790489  43.6201859  88.1416893
  62.0386314  44.2641830  90.1827526  61.9160604  44.3605757  91.1806393
  63.1899977  44.9905348  89.5304775  63.0063772  45.3623486  88.5224438
  63.6399460  46.2419796  90.3412247  64.1579676  46.8876886  89.6321297
  62.5310755  47.0859098  90.9835148  62.9618692  48.0794144  91.1078739
  61.6890335  47.1070194  90.2916908  62.0906878  46.7204905  91.9112206
  64.4967842  45.8641148  91.4158154  64.9837875  46.6179657  91.7566013
  64.4349480  44.1160679  89.2254162  65.3767252  44.5622540  88.5416031
  64.4079208  42.8314972  89.6440601  63.5873556  42.5024462  90.1324272
  65.3755379  41.7899990  89.2508030  66.4139652  42.0599270  89.4429207
  65.0127792  40.4226875  89.7848320  65.5594444  39.6350288  89.2663193
  65.2885056  40.4178715  90.8393669  63.5718536  40.2933311  89.6975899
  63.3432388  39.5646143  90.2792358  65.2695847  41.6834307  87.6624203
  66.2338686  41.5945911  86.9724274  64.0852785  41.6132450  87.0412159
  63.2454872  41.8113375  87.5662136  63.8227654  41.0486841  85.7196999
  64.2794657  40.0589752  85.7207298  62.2670412  40.7355070  85.5568123
  61.8156767  41.7270470  85.5917645  62.1966743  40.2252865  84.5961666
  61.5946865  39.8909330  86.6532898  61.5322971  40.4551220  87.5838280
  60.2135849  39.5670605  86.2276745  59.8988771  38.8435030  86.9796848
  59.5922899  40.4530954  86.3581944  60.1764011  39.0122104  85.2901936
  62.2538471  38.6398149  86.9979668  62.3586226  38.0044699  86.1184978
  63.2713127  38.7630582  87.3690224  61.6744280  38.0503583  87.7085400
  64.4583750  41.8477821  84.5749092  65.1730156  41.2898207  83.7665558
  64.4006872  43.1899548  84.6182442  63.3739519  44.0508270  85.1752472
  63.2806921  43.9215708  86.2535286  62.4824095  43.8411808  84.5842171
  63.9209366  45.4088116  85.0901508  64.6063232  45.7371283  85.8715248
  63.1239176  46.1438560  84.9780083  64.5257378  45.3693867  83.7615585
  65.2264023  46.1649370  83.5080433  63.7940693  45.3507137  82.9538345
  65.2313805  44.0228081  83.7642670  65.1059961  43.5963631  82.7690125
  66.7041826  44.1990376  84.1976070  67.6109362  44.6191740  83.4720325
  67.0474815  43.9593315  85.4941463  66.4526510  43.3501053  86.0374069
  68.4333372  44.0004778  86.0081863  68.9218616  44.9284077  85.7108974
  68.5513210  44.0719175  87.5970173  67.9766321  43.2549429  88.0333519
  69.9363852  43.9449596  88.2549953  69.6893263  44.1833305  89.2895317
  70.3101778  42.9250526  88.1645775  70.6342840  44.6707582  87.8375626
  67.7608109  45.1979733  87.9394817  66.8482542  44.9046755  87.9926014
  69.2173433  42.8240871  85.3573704  70.3481436  42.9093409  85.0421715
  68.6244392  41.6605091  85.3194141  67.6329088  41.6479921  85.5112839
  69.1937923  40.3582001  84.8588371  70.2616501  40.5137396  84.7052574
  68.9586306  39.2900586  86.0197639  69.4156981  39.8070431  86.8635178
  67.9128933  39.0103745  86.1474705  69.7117138  38.0353236  85.7759762
  69.1336918  37.6745582  85.0997066  68.6622715  39.7931719  83.4634495
  69.2024851  38.7793660  83.0217838  67.7268076  40.5089378  82.8465843
  67.3058605  41.2821436  83.3416176  67.1021080  40.1335955  81.5741348
  66.2002325  40.7438755  81.6220093  67.9855490  40.5530453  80.3616333
  68.7940741  39.8658061  80.1124573  67.3442554  40.5536842  79.4802475
  68.5752773  41.9270563  80.3995037  67.9761839  43.0198288  79.8466539
  68.7108135  44.0531874  80.2414513  68.5161495  45.0722933  79.9415731
  69.8034811  43.6466026  80.9964275  70.4381943  44.2502022  81.4993286
  69.6701384  42.2906685  81.1202717  70.3571177  41.6956139  81.7036915
  66.5254021  38.7632251  81.5287399  66.8474960  37.9650569  80.6263065
  65.8002424  38.3809185  82.5797081  65.7297421  39.0527916  83.3305168
  65.2138996  36.9987512  82.5953197  66.0276794  36.2824321  82.4824142
  64.3728590  36.7100215  83.8627148  63.9336681  35.7124591  83.8538456
  65.1013899  36.7312074  85.2059364  65.6721067  37.6524568  85.3228760
  64.4319391  36.5804029  86.0528088  65.8492517  35.9386230  85.1812458
  63.3369303  37.5846267  84.0049362  62.7474451  37.6628375  83.2512760
  64.3475294  36.7265773  81.3583851  64.0741777  35.5031395  81.1533642
  63.8908005  37.6781917  80.5961227  64.1693687  38.6166072  80.8448601
  63.1274176  37.4829412  79.3792152  62.2582388  36.8503022  79.5592356
  62.4824190  38.8221431  79.0196466  61.8925095  38.7280107  78.1079197
  61.8998146  39.1817713  79.8677874  63.4834337  39.8890138  78.6593151
  63.9139414  40.8064222  79.6466160  63.5026026  40.7899857  80.6450844
  64.7805882  41.8461990  79.2868710  65.1101446  42.5857067  80.0016594
  65.2142286  42.0038366  77.9772377  66.2045813  42.8887033  77.7028561
  66.7620182  43.0909395  78.4578133  64.8259306  41.1263084  76.9648170
  65.2625608  41.2132406  75.9808445  63.8926458  40.1365852  77.3226929
  63.5372114  39.4133186  76.6036987  63.9792442  36.8812680  78.3243704
  63.4507513  36.3443041  77.4171925  65.3404045  36.8963051  78.4439182
  65.6058979  37.2753263  79.3416691  66.3058376  36.1590767  77.5995493
  65.8218861  35.9701490  76.6413212  67.5440645  36.9866037  77.4189281
  67.9765749  37.2400022  78.3868265  68.2727098  36.3890600  76.8710899
  67.2916460  38.3009219  76.6127586  66.7028618  38.9470387  77.2638893
  68.6247396  39.0274620  76.3989449  69.3747282  38.4268665  75.8842564
  68.3890581  39.9220681  75.8225441  69.0637159  39.2790699  77.3643970
  66.6797924  38.1575274  75.1888990  67.4271059  37.6903772  74.5474958
  65.8206987  37.4901652  75.2573586  66.3271666  39.1255450  74.8329592
  66.5987968  34.7284412  78.1398010  67.5475693  34.0949082  77.6841211
  65.7555056  34.2388582  79.1156483  65.0311947  34.8365211  79.4874907
  65.9788370  32.9596448  79.7445250  65.0037336  32.5718522  80.0392914
  66.4838123  32.2544289  79.0843916  66.8084717  33.1920123  81.0444546
  67.5371885  34.1251206  81.1756134  66.8490124  32.1938610  81.9112015
  66.2084866  31.4389372  81.7114067  67.7898121  31.9493079  83.0063820
  67.9774141  32.8399563  83.6060905  67.2851658  30.8457470  83.8412285
  67.4534369  29.9343300  83.2675552  67.8715277  30.7649326  84.7565174
  66.2414074  31.0117269  84.1079235  69.2489958  31.5748310  82.5537968
  69.4447041  30.9982204  81.4506054  70.2657461  31.7619538  83.4046555
  70.0836277  32.2304749  84.2806816  71.7021370  31.7266393  83.0773067
  71.8557167  31.7740417  81.9992161  72.3451138  33.0442333  83.5271931
  72.1198273  33.2231545  84.5785427  73.4260368  33.1675577  83.4601212
  71.7360973  34.2294836  82.7816677  71.4493942  34.0760851  81.5883064
  71.6014481  35.3623629  83.3723354  72.3604918  30.5945826  83.7909698
  72.0777035  30.4101562  84.9358749  73.0975580  29.8255587  83.0341339
  73.2754946  30.2402568  82.1305466  73.6952925  28.5731030  83.3784294
  73.8546562  28.6002278  84.4563770  72.8449631  27.3979759  82.8997993
  71.7942858  27.6116490  83.0960655  72.8997374  27.3288369  81.8133736
  73.2217407  26.1079144  83.5805988  74.1681242  25.7540131  83.1716824
  73.3503866  26.2761831  84.6498299  71.9330025  24.8422861  83.3350945
  72.2211742  24.3547511  81.6269970  73.2440186  23.9790344  81.6000938
  71.4791107  23.6618185  81.2303925  72.0570183  25.2277827  80.9953594
  75.1572895  28.5169101  82.8619480  75.3864670  28.9628148  81.7104435
  76.0451460  27.8981614  83.6061096  75.8345699  27.5655341  84.5362186
  77.5014305  27.8988719  83.3722115  77.9682827  27.7148342  84.3398190
  77.8479671  26.8462229  82.3366737  77.4536371  27.1772408  81.3759232
  78.9227390  26.7058468  82.2215366  77.2959852  25.3667498  82.5379944
  76.2250376  25.4314113  82.3456764  77.7447128  24.7913218  81.7282867
  77.5594997  24.7917938  83.9497566  76.6580677  24.3579197  84.6790123
  78.7664700  24.7687459  84.3820477  78.1502008  29.2700553  82.9939365
  78.8784456  29.3494439  82.0202637  77.6903152  30.3088427  83.7252140
  76.9705343  30.2869344  84.4334126  78.1775570  31.6455984  83.3997440
  78.0025768  31.8369269  82.3410320  77.3606634  32.6758862  84.1816235
  77.3792458  33.6101127  83.6204052  76.3297319  32.3324156  84.2671013
  77.7479410  32.9622078  85.6315899  78.7769794  33.3068037  85.7337475
  77.1059465  33.7938166  85.9220600  77.5237036  31.7256379  86.5632915
  78.4202528  31.4239049  87.4130440  76.4405680  31.1634445  86.5287113
  79.6973991  31.9609022  83.4976101  80.3750515  31.4057255  84.3624496
  80.2099133  32.8784490  82.6928043  79.5854664  33.3802366  82.0776939
  81.6294670  33.3289337  82.6513958  82.1129131  32.4375892  83.0512524
  82.0930958  33.5889506  81.1458015  81.6774368  34.5707941  80.9192848
  83.1562042  33.8235545  81.0923195  81.6900063  32.6399779  80.0089645
  80.8283043  33.1454563  78.9800501  80.4960346  34.1730690  78.9763927
  80.4784870  32.2840333  77.8796148  79.9430990  32.7495456  77.0653343
  80.9282017  30.9592533  77.8440094  80.6258011  30.2815723  77.0593405
  81.8746376  30.5217624  78.8438129  82.3505116  29.5665812  78.6777592
  82.2792435  31.3808537  79.9153709  82.9947472  30.9672499  80.6106377
  81.9611931  34.4992185  83.5366058  81.1358070  35.3833532  83.7811470
  83.0780602  34.5203400  84.2553425  83.6715031  33.7298965  84.0476894
  83.4997845  35.3707385  85.3148460  82.5915432  35.9151459  85.5733395
  83.9398289  34.5522499  86.4725971  84.8109722  33.9984441  86.1225796
  84.2174244  35.1633310  87.3314476  82.8754139  33.4964585  86.8989468
  83.2292080  32.1643090  87.2039509  82.0010567  31.5597582  87.2376633
  81.7613220  30.5461836  87.5233078  81.0263252  32.4260592  87.3046494
  80.0625610  32.1453881  87.4163151  81.5014076  33.6916161  87.1072483
  81.0517502  34.6555972  86.9202995  84.5256042  36.4374495  84.9086189
  84.7318077  37.4365044  85.6688499  84.9598312  36.3624215  83.6382389
  84.6584702  35.5043554  83.1989098  85.4849911  37.4848676  82.8111076
  85.6519604  37.0339489  81.8328953  84.8207569  38.3074093  82.5459290
  86.9679165  37.9473686  83.1796932  87.4725437  37.7529335  84.2304802
  87.6428986  38.5031652  82.1446514  87.0078182  38.7278628  81.3921356
  89.1190338  38.8125682  82.1687412  89.1871452  39.4436979  83.0548191
  89.9078655  37.4735618  82.3808098  90.9377384  37.8055239  82.5121593
  89.5026875  37.0215487  83.2861423  89.9415588  36.5140772  81.2379074
  89.1878128  35.7732368  81.5046024  89.6207237  37.0093894  80.3214836
  91.2893486  35.9056807  81.0191250  91.5706825  35.4173303  81.9521141
  91.1869240  35.1128006  80.2782154  92.3166847  36.9001341  80.6195450
  91.9092751  37.7769017  80.3273201  93.6595821  36.8376422  80.6111813
  94.4390106  37.8262329  80.2464104  93.9093590  38.5939479  79.8588753
  95.4389477  37.7412772  80.1323700  94.3127060  35.8309817  81.0787010
  93.7704277  35.0016928  81.2744617  95.3216934  35.8760452  81.0748959
  89.7657776  39.5417833  81.0431862  90.9919739  39.7546244  81.1015987
  88.9501667  40.1151991  80.1443100  87.9569149  39.9891448  80.2772236
  89.4085407  40.8498573  78.9775181  90.3455734  40.4578161  78.5820675
  88.5113144  40.7976484  77.7379608  87.7112198  41.5222692  77.8892088
  89.2148018  41.3002396  76.4496756  89.7203636  42.2592926  76.5624237
  89.8969364  40.5041170  76.1513662  88.5985661  41.3868904  75.5547762
  87.9766941  39.4546413  77.6289940  87.2233391  39.3758678  78.2187891
  89.7130680  42.3228788  79.3670654  89.0079403  43.3096790  79.0609074
  90.8458996  42.4690628  80.0828743  91.3591003  41.6519260  80.3812218
  91.3682175  43.7660456  80.5003357  90.5742455  44.4760084  80.2686501
  91.6665363  43.7282228  82.0029354  90.8577347  43.2038069  82.5117970
  92.6007557  43.2031822  82.2021103  91.7487144  45.1831770  82.6803875
  92.2782040  45.8511257  82.0009899  90.3394127  45.7338381  82.8198910
  90.3147602  46.7704678  83.1558800  89.7352505  45.5731535  81.9269943
  89.8403454  45.0632715  83.5194492  92.5001240  45.1720953  84.0499401
  92.4297047  46.0814905  84.6467304  92.0640469  44.3759632  84.6533585
  93.5660744  45.0111294  83.8889408  92.5483513  44.2011929  79.7046900
  93.6979008  44.0352297  80.1274872  92.3638725  44.8159313  78.5576487
  91.3801003  44.9432087  78.3676815  93.3639717  45.4673243  77.6880598
  94.0925026  44.7937298  77.2368193  92.6154804  45.8327198  76.4508343
  91.7050171  46.3782501  76.6989470  93.2258224  46.5129232  75.8567810
  92.1490860  44.7949696  75.4938936  92.9561996  43.8816452  74.8680878
  92.1504974  43.1120825  74.1405106  92.4674320  42.1953344  73.6655998
  90.8859348  43.5493565  74.2114210  90.0450516  43.1512928  73.8182783
  90.8878040  44.6402788  75.0665808  90.0600052  45.2778101  75.3398991
  94.0222740  46.6230345  78.3075666  93.4484005  47.3115826  79.1167355
  95.2703476  46.8335772  77.9961920  95.7993031  46.1627102  77.4574471
  96.0239506  48.0051661  78.3855963  96.1120892  47.9180479  79.4685316
  97.4619579  47.9338121  77.9082918  97.3673058  47.9324579  76.8224096
  98.0101013  48.8333511  78.1884098  98.2449150  46.6295958  78.1748056
  98.2326603  46.2317944  79.3585110  98.6892414  45.9705019  77.1957397
  95.4265404  49.3670464  77.9725122  94.7803020  49.4315624  76.9113255
  95.5349159  50.4397249  78.7913036  95.7323074  50.2711535  79.7673798
  94.8460197  51.7433405  78.5784817  93.8227272  51.5431213  78.2608700
  94.7106361  52.5698757  79.9803162  94.1352654  53.4474754  79.6855974
  94.1697598  51.9056654  80.6543827  95.9428692  53.1043243  80.6916904
  95.8507633  53.5105181  81.8849373  97.0488548  53.1729412  80.1493168
  95.6112957  52.6125622  77.5463867  95.6082821  53.8334131  77.5691891
  96.1795902  51.9450665  76.6000080  96.2210846  50.9442949  76.7297602
  96.5554142  52.3886490  75.2674294  95.6128120  52.8726292  75.0117540
  97.7015400  53.3479261  75.2843666  97.9069424  53.9266491  74.3838167
  97.6103401  54.1322184  76.0358143  99.0628433  52.6629591  75.5707598
  99.1670704  51.4375687  75.8764076 100.0678539  53.3775187  75.5006075
  96.7270279  51.2102318  74.2249298  97.3456860  51.4198780  73.1462145
  96.1548901  50.0044203  74.5304012  95.7389832  49.8432255  75.4365683
  96.1384869  48.8124228  73.6796713  97.1269131  48.3951044  73.4873915
  95.3293800  47.7401447  74.4322681  95.7892895  47.6974535  75.4195690
  94.2532158  47.9021025  74.3710899  95.5244541  46.4554453  73.9019775
  96.4015865  46.1766243  74.1749191  95.4927349  49.0138674  72.3060369
  94.5312595  49.7305250  72.1909094  95.8917427  48.3190203  71.2083578
  96.7891312  47.8562403  71.2333679  95.2570724  48.3792067  69.8865795
  94.2729092  48.8343859  69.9976063  96.0706711  49.2577696  68.8645220
  96.9258499  48.7315273  68.4404421  95.3511238  49.4780970  67.4984741
  95.3715992  48.5236502  66.9724321  94.3346691  49.8542833  67.6142263
  95.8674908  50.1779747  66.8414927  96.5431404  50.5970287  69.5626736
  95.6650162  51.1324120  69.9237394  97.1308136  50.3519344  70.4473639
  97.4684238  51.4941120  68.6911774  97.9823685  52.1353626  69.4072533
  98.3036900  50.9141016  68.2987165  96.8571472  52.0709276  67.9971123
  94.9683571  46.9656467  69.3619299  95.8486748  46.1593771  69.0919399
  93.6979866  46.8361616  69.0561533  93.0613613  47.4613047  69.5294380
  93.0170059  45.6832409  68.5696125  93.7864780  44.9887323  68.2324696
  92.2429085  45.1432228  69.8054171  91.2888718  45.6702280  69.8188591
  91.9079590  44.1186333  69.6437788  93.0290222  45.0462055  71.1269569
  93.4054089  46.0120106  71.4640856  92.3668289  44.7670174  71.9465017
  94.1025352  44.0293741  71.2050915  94.2681599  43.1486177  70.3827953
  94.9091434  44.0809107  72.2237062  95.3905678  43.2007265  72.3403740
  94.8370647  44.7878027  72.9414892  92.0933628  45.9169912  67.3330593
  91.8271732  47.0186234  66.8658686  91.6396713  44.8237276  66.7078733
  91.9136810  43.9900398  67.2078657  90.7343388  44.7409964  65.5535746
  90.2769470  45.6987667  65.3054333  91.3814545  44.1198730  64.2738390
  91.8684196  43.2062960  64.6149302  90.5225563  43.5074186  63.1391525
  89.8706532  44.1889477  62.5926685  91.1537647  42.9631281  62.4367142
  89.9050617  42.6870441  63.5049295  92.4688530  45.0809479  63.6701393
  92.8976631  45.6953001  64.4618511  93.1932163  44.4708824  63.1304932
  92.0287514  45.6309700  62.8383446  89.5900345  43.8776684  66.0575247
  89.7421837  42.6488018  66.2752628  88.4558296  44.6039009  66.3694715
  88.4726810  45.5815601  66.1164808  87.3014355  44.0448952  67.1237421
  87.4985790  42.9826212  67.2679949  87.1725082  44.6816015  68.5688210
  87.2228241  45.7699776  68.5369062  85.8645916  44.3574429  69.2458391
  85.9873676  43.3872700  69.7272873  85.6573486  45.1239920  69.9925375
  85.0024509  44.2095852  68.5954952  88.3455086  44.2205048  69.3838739
  88.5304642  43.1463242  69.3893909  89.1875172  44.5300531  68.7647533
  88.4811783  44.9225521  70.6907701  89.4350052  44.8763752  71.2163067
  88.1692886  45.9626341  70.5955648  87.8129578  44.4850540  71.4325094
  86.0563469  44.1637659  66.2994957  85.8988380  45.2305603  65.7426405
  85.2158356  43.0924702  66.1710215  85.3654099  41.8512249  66.9715357
  85.5279160  41.9569588  68.0441570  86.0923862  41.2775755  66.3966131
  84.0457153  41.1121559  66.7374086  83.3487511  41.2964773  67.5549412
  84.2166519  40.0363684  66.6977549  83.4440899  41.6405201  65.3979397
  82.3551178  41.6454887  65.3507137  83.9273739  41.1361456  64.5611954
  83.9404869  43.1182766  65.4902220  84.1217899  43.4927845  64.4827604
  82.9656410  44.0200615  66.2743998  82.4423313  43.6796236  67.3311949
  82.6351357  45.1759291  65.7316923  83.3198547  45.5325985  65.0804996
  81.3717556  45.8966064  65.9995747  81.3479233  46.1171865  67.0667601
  81.2924099  47.2230768  65.1561308  81.1851120  47.0215511  64.0903091
  80.0727558  48.0432034  65.5740070  80.0966930  49.0752983  65.2242756
  79.0934181  47.6166058  65.3571653  79.9338627  48.1420135  66.6505957
  82.5294971  48.1564379  65.3925228  82.6013279  49.1252375  64.8981857
  82.6248550  48.3859825  66.4538050  83.3778667  47.5298309  65.1172924
  80.0974083  45.0687551  65.7762623  80.0565434  44.4385195  64.6987915
  79.1589069  45.0437403  66.7182875  79.3978500  45.4536057  67.6099253
  78.0098438  44.1239500  66.6477203  78.1169701  43.4014082  65.8386755
  77.8545618  43.2882261  67.9449511  78.8648844  42.9548311  68.1819963
  77.4700499  43.9390707  68.7302303  76.9970179  42.0322895  67.8763962
  77.4043131  41.4092779  67.0801020  77.1057606  41.2355566  69.1676664
  76.4888287  40.3380299  69.1237354  78.1492043  41.0600710  69.4294500
  76.7335987  41.9000769  69.9474144  75.5351400  42.2778749  67.4963427
  75.4549980  42.3006058  66.4095306  74.9510717  41.4234257  67.8382206
  75.2107334  43.2160521  67.9465628  76.7196226  44.9810982  66.3307047
  76.1673021  45.6335115  67.2307301  76.3272715  45.0135469  65.0403261
  76.7047834  44.2115402  63.8171196  75.8838606  43.5208559  63.6244106
  77.6674223  43.7050343  63.7472200  76.7038965  45.2784729  62.7596951
  76.4066219  44.7755051  61.8395042  77.6388073  45.8253765  62.6374578
  75.5241537  46.2411880  63.0722857  74.5771885  45.9606647  62.6111317
  75.7049179  47.2736216  62.7731180  75.4473829  46.1325932  64.6426678
  75.8667040  47.0532179  65.0485277  73.8883209  46.0716772  65.0005674
  73.1187391  46.9204855  64.6069431  73.4786081  45.1246357  65.8240795
  74.1794729  44.4972324  66.1918497  72.1815872  45.0619411  66.3885689
  71.3814497  45.2680349  65.6776476  71.8420315  43.6653566  67.0218706
  72.6669693  43.4288120  67.6938963  70.9692526  43.7112856  67.6732159
  71.6076756  42.5811768  65.9653950  72.4755430  42.5148535  65.3092670
  71.3898802  41.5785503  66.3333797  70.3818607  42.8426170  65.2004099
  70.4102373  42.9712629  64.0024519  69.2255068  43.0383253  65.8052731
  68.4107780  43.0208063  65.2086067  69.1362906  42.9433584  66.8068314
  72.0482445  46.0743332  67.4973726  70.8920240  46.2535667  68.0168486
  73.1346369  46.6810608  68.0151939  74.0413475  46.4553833  67.6317215
  73.0980730  47.6050377  69.1037798  72.1978521  47.3334408  69.6550798
  74.3098068  47.5439405  70.0383234  75.1978302  47.9371548  69.5434475
  73.9967203  48.4011936  71.3053989  72.9298449  48.3675337  71.5261650
  74.6180391  48.1429720  72.1629429  74.2494631  49.4479465  71.1365032
  74.5346689  46.1166859  70.4355955  75.1699018  46.2441206  71.3121462
  73.5585403  45.7048798  70.6919003  74.8507404  45.6259823  69.5150471
  72.8685999  49.0562296  68.5164309  73.7571335  49.7534466  68.1191063
  71.6111183  49.5584393  68.6127996  70.9060097  48.8995647  68.9108086
  71.2455750  50.8841038  68.2415438  71.9651079  51.1316395  67.4610901
  69.8588467  50.9278631  67.6062489  69.1241264  50.9135723  68.4112930
  69.7638559  51.8023205  66.9625092  69.5854521  49.7447491  66.6617918
  70.4010153  49.7548723  65.9387016  69.5932007  48.7825632  67.1738863
  68.1040859  50.0046921  65.6550121  68.4001017  51.4679527  64.6325254
  68.6012411  51.2396049  63.5858583  67.5312853  52.1246004  64.5869350
  69.2235994  52.0687819  65.0184727  71.4874125  51.9902134  69.3220472
  70.6003046  52.7887821  69.5928478  72.6062250  51.9949818  70.0152683
  73.3898783  51.4374542  69.7068071  72.7269888  52.7058744  71.2997866
  72.4209166  53.7435913  71.1672640  71.7206764  52.0583391  72.3423052
  71.8536901  52.6319599  73.2595682  70.6707621  52.2427750  72.1147776
  71.9734621  50.6212378  72.6391363  71.3782501  50.1542234  71.8544483
  73.0049372  50.4666948  72.3224783  71.5830994  49.8619652  74.2097473
  72.7806664  50.6719589  75.3097391  72.4624109  50.7589865  76.3486004
  73.7608957  50.1955271  75.2934837  72.9658413  51.7301035  75.1249552
  74.1133451  52.6848221  71.9135761  74.9850368  51.9178057  71.5367270
  74.3464899  53.5760355  72.8964186  73.5802031  54.0390968  73.3638334
  75.6899929  53.9776945  73.3232069  76.3828468  53.5892868  72.5767565
  75.8998919  55.4805851  73.3741283  75.2453423  56.0236406  74.0558624
  77.3212862  55.7620668  73.9612341  78.1433105  55.4095221  73.3382559
  77.4232340  56.8385506  74.0986824  77.4060965  55.3522682  74.9676991
  75.7367039  55.9489441  71.9122028  76.4175463  55.3302050  71.3276339
  74.6917391  55.8650208  71.6136932  76.0429001  57.4250984  71.7281246
  77.0451784  57.7224922  72.0365000  75.7372236  57.8024006  70.7522631
  75.3895807  57.9612780  72.4164438  75.9508514  53.2071543  74.6178818
  75.4394197  53.6537457  75.6140137  76.7722225  52.1359205  74.5983696
  76.9226408  51.7628813  73.6719179  77.3314571  51.4197445  75.6907845
  76.4929390  51.1722946  76.3417578  77.9080725  50.1454878  75.0796843
  77.1198511  49.5457506  74.6245718  78.6193275  50.4249382  74.3024302
  78.4908342  49.1312981  76.0977507  79.2769432  49.6409655  76.6548586
  77.4373627  48.6192560  77.0556593  76.6192770  48.1488657  76.5101671
  77.9493046  47.9612303  77.7578163  77.0802689  49.5213509  77.5524569
  79.0865564  47.9335642  75.4326248  79.9259377  48.3320332  74.8627424
  79.3086052  47.2618103  76.2618017  78.4201193  47.5748873  74.6482038
  78.4770823  52.1235514  76.4353800  79.3364620  52.7441454  75.8128595
  78.4958267  52.1679497  77.7188349  77.6558924  51.8333483  78.1690121
  79.5844412  52.6260805  78.6108923  80.3369999  53.1209135  77.9969692
  79.0987682  53.8262987  79.4436741  79.9613142  54.1732264  80.0126743
  78.6234379  54.9200249  78.4952402  79.2313576  55.1253986  77.6141262
  77.6351595  54.6839523  78.1006861  78.5621738  55.8437443  79.0706491
  78.0525064  53.5689878  80.5118847  78.2308006  52.7028704  81.1491871
  78.0181980  54.4576216  81.1421680  77.1218586  53.3944178  79.9719572
  80.1215935  51.4809513  79.6294928  79.4386148  50.4254580  79.8133802
  81.3214588  51.5881920  80.2515984  82.3202038  52.6003313  79.9017477
  81.9751263  53.6319733  79.9706125  82.5853920  52.4328709  78.8578415
  83.5672665  52.2937584  80.7900047  83.9959049  53.2074594  81.2017345
  84.2401123  51.7753410  80.1069069  82.9533005  51.3642263  81.8756294
  82.5210094  52.0740318  82.5809002  83.5879040  50.6710005  82.4277401
  81.8176746  50.6595898  81.2707424  82.2493076  49.8034239  80.7523155
  80.7273769  50.2593184  82.2990608  79.9550009  51.1361980  82.6794434
  80.5641651  49.0198326  82.6345634  81.0184669  48.2985353  82.0928574
  79.6930838  48.5515928  83.6690903  80.0910950  47.8002739  84.3511581
  79.4713974  49.3272495  84.4021034  78.3299541  48.0040359  83.2122517
  77.7399015  47.1373320  83.8539410  77.7381325  48.7492609  82.2617435
  78.3723068  49.3540859  81.7596340  76.4130974  48.6123276  81.7568779
  75.6454134  48.7832212  82.5115681  76.2811852  49.6990395  80.7444572
  76.3012934  50.6688643  81.2415791  77.0766306  49.5715237  80.0102139
  74.9995279  49.7452068  79.9072504  75.0570917  48.8490820  79.2893934
  74.1349316  49.6504641  80.5642128  74.8808956  51.0018349  79.0441847
  75.7674170  51.7805004  78.7510920  73.7455177  51.3739109  78.5993767
  73.7092304  52.3411703  78.3109474  72.9037619  50.8641243  78.8266850
  76.1467505  47.2059393  81.1996460  76.7483902  46.8733501  80.1329136
  75.3277493  46.3834381  81.8695736  75.0145340  46.6578436  82.7897358
  74.9098063  45.0830841  81.4301491  75.8001614  44.4806099  81.2501526
  74.0653896  44.2512941  82.4782944  73.2405663  44.9243736  82.7122498
  73.5326529  42.9062748  81.9957829  72.8764629  43.0998850  81.1472416
  74.3071699  42.1801901  81.7487335  72.8394747  42.4998331  82.7322674
  74.8749113  43.9980888  83.5980701  74.6778536  44.6635723  84.2613125
  74.0964794  45.0994968  80.1197815  73.0340147  45.6475115  80.0469494
  74.5845747  44.4650936  79.0721798  75.3020763  43.7666130  79.2041397
  74.1279125  44.5595026  77.6601505  73.4001589  45.3685665  77.7224922
  75.2811050  45.0887108  76.8626928  75.5785847  46.0797262  77.2054720
  76.1276245  44.4210243  77.0230007  74.8650455  45.2059650  75.3986549
  74.3615770  44.3147469  75.0240183  73.8973761  46.3915062  75.1652718
  72.9610014  46.2457275  75.7038355  74.3391085  47.2664452  75.6421947
  73.7616253  46.5772057  74.0998220  76.1916304  45.4589844  74.5538759
  76.0539484  45.1558447  73.5159636  76.4431238  46.5188646  74.5927095
  77.0620871  44.9292564  74.9409151  73.5472822  43.1855583  77.1269941
  74.2946911  42.1716309  76.9708443  72.1823263  43.1023932  76.9762039
  71.1659098  44.0542364  77.4463797  71.2425470  45.0293207  76.9653034
  71.1369705  44.0650415  78.5359383  69.7576189  43.5144997  76.8295050
  69.6819735  43.9743185  75.8441401  68.8606930  43.6013842  77.4427557
  70.1218987  42.0439291  76.7981529  69.4558382  41.4247561  76.1972475
  70.1882219  41.6586781  77.8156424  71.5228224  41.9670057  76.2774754
  71.9941950  41.0412693  76.6075182  71.3767099  41.9674444  74.7353745
  71.2942457  42.9614210  74.0076923  71.2584066  40.7625389  74.2281818
  71.2314749  39.9525857  74.8309708  71.0677862  40.4128551  72.7942038
  70.7489824  41.3156986  72.2732973  72.4312878  39.9546051  72.2919464
  72.7161598  39.0320611  72.7977753  72.4466848  39.7603345  71.2195110
  73.6546946  40.9408712  72.4157953  73.6255789  41.4297867  73.3895540
  75.0394249  40.2024651  72.2453690  75.7733965  40.8689690  72.6983261
  75.1179790  39.3715358  72.9464245  75.2111626  39.8046446  71.2451935
  73.6070108  42.1029663  71.3278341  72.6398611  42.6041031  71.3675594
  74.3801022  42.8619862  71.4474869  73.7706280  41.5743828  70.3887272
  70.1124287  39.2213821  72.5458860  70.1625156  38.2444954  73.2707596
  69.2859411  39.3311739  71.4840937  69.2863607  40.2160215  70.9971142
  68.7422037  38.1467819  70.8006763  69.2661762  37.2397232  71.1020041
  67.2595501  37.9524302  71.1781311  67.2043991  37.7816033  72.2532463
  66.6816473  38.8570642  70.9889889  66.5625858  36.8779469  70.3628922
  66.3681507  37.2816014  69.3692350  67.2511387  36.0781479  70.0902748
  65.3760958  36.2540841  71.0570192  65.1817846  36.3746214  72.2492409
  64.5489264  35.4940081  70.3140450  63.8726473  34.9053526  70.7790565
  64.6567488  35.5780077  69.3133354  68.9554024  38.2090259  69.2799568
  68.5391665  39.0645385  68.5465765  69.7802401  37.2710848  68.8556623
  70.2504635  36.8032861  69.6173477  70.1318836  36.9685173  67.4836397
  69.9339294  37.8455544  66.8674231  71.6125345  36.5581942  67.3847914
  71.7834139  35.6895590  68.0206919  71.7745686  36.3799667  66.3217354
  72.6195478  37.6811957  67.6638174  72.4488115  38.0868149  68.6610270
  74.0411806  37.1576858  67.7861834  74.6590328  37.8872728  68.3096933
  74.0984964  36.1662865  68.2355690  74.3472385  37.0503902  66.7455530
  72.4697351  38.8928723  66.6797543  72.5320816  38.5294366  65.6540251
  71.5372896  39.4328904  66.8441820  73.2660484  39.6310449  66.7750549
  69.2195702  35.8848906  66.8770599  68.7434387  34.9521995  67.5051689
  69.0984440  35.9480596  65.5467510  69.5191383  36.7182922  65.0468969
  68.5594034  34.9073982  64.7196150  68.6465549  33.9479136  65.2294254
  67.0605040  35.1230812  64.3275928  66.9442844  36.1080980  63.8755608
  66.7247248  34.3905091  63.5936403  66.0619259  35.3035903  65.4378843
  65.8036375  36.5047622  66.0980034  66.3386774  37.3876595  65.7807922
  64.7487307  36.7023301  67.0011854  64.5674133  37.6732254  67.4381018
  63.8178205  35.6942511  67.1606493  62.9378843  35.9291458  67.7411127
  64.0682840  34.4317722  66.6408014  63.3763504  33.6365604  66.8758917
  65.2414513  34.2629433  65.8415413  65.4560518  33.3636761  65.2832651
  69.3007994  34.7843218  63.4056282  69.0067101  33.8799119  62.6592207
  70.1817989  35.6768084  63.0767155  70.4743147  36.4041114  63.7135553
  70.8862925  35.6532717  61.8372726  70.1401997  35.2886295  61.1312389
  71.1798716  37.0200610  61.3271475  70.2524948  37.5710154  61.1705542
  71.6360521  37.5394583  62.1698999  72.0834064  37.2887969  60.1591587
  72.5881243  36.3599777  59.2379856  73.2482481  37.0975566  58.3859158
  73.7130117  36.7377591  57.4798584  73.1829309  38.4038758  58.6820841
  73.4754658  39.1548252  58.0733156  72.5363111  38.5005832  59.8421907
  72.2980928  39.4182277  60.3594732  72.1560717  34.8046041  61.8312693
  73.0181265  35.1272511  62.6465797  72.2179842  33.7598372  60.9935045
  71.2921476  33.3074808  59.9847841  70.7785606  34.1124010  59.4590139
  70.5290365  32.7933121  60.5690765  72.0931530  32.4335861  58.9777517
  72.3834133  33.0611348  58.1351137  71.4963007  31.6296506  58.5469866
  73.3092165  31.9545865  59.7581244  74.2325926  31.9038701  59.1811419
  73.0778742  30.9595203  60.1381540  73.3797741  32.8636384  60.9998131
  73.3422184  32.3477006  61.9592381  74.7617388  33.5369062  61.0588932
  75.6095457  33.0899763  61.8377972  75.0331306  34.5870161  60.3074980
  74.2664671  34.7777867  59.6782637  76.3806915  35.2084351  60.2876043
  77.0880651  34.3799257  60.3235340  76.4121866  35.9778357  58.9450312
  76.1498165  35.3340793  58.1054831  75.6636333  36.7685533  58.9953375
  77.8294420  36.5144873  58.6314774  77.8276253  37.1860385  57.7729225
  78.1512165  37.1641493  59.4454193  78.9280367  35.4839969  58.3713818
  78.6711216  34.2927194  58.4671879  80.1803303  35.8935571  58.1545115
  80.7950306  35.1863647  57.7775240  80.3467369  36.8650055  57.9338360
  76.6201830  36.0691738  61.5627289  77.7949953  36.0674667  61.9425488
  75.6506920  36.7629981  62.1996593  74.7333765  36.8053484  61.7791319
  75.8715963  37.4065804  63.4573746  76.8131399  37.9454923  63.3516979
  74.7631741  38.4328127  63.8078165  73.8274145  37.8750134  63.7715435
  74.9162292  38.8109231  64.8186111  74.6817636  39.6855259  62.9094410
  75.4996538  40.3422260  63.2059240  74.9993134  39.2554736  61.9595385
  73.3506966  40.5158567  62.9417229  73.5186958  41.7276001  62.8551626
  72.2623158  39.9547672  62.9471874  76.1059666  36.3436961  64.5587587
  77.0525837  36.4136910  65.3818369  75.3353739  35.2612400  64.5484638
  74.6650553  35.1806998  63.7972689  75.6106806  34.1057825  65.4404163
  75.5602932  34.5422792  66.4379311  74.6334267  33.0284905  65.2340460
  74.4784069  32.7731371  64.1857767  75.0387383  31.8439722  66.1666679
  75.1990700  32.1674967  67.1951246  74.2526388  31.0896397  66.2003899
  75.9408951  31.3124299  65.8638811  73.2901192  33.5510683  65.8194923
  72.6469803  32.6928377  65.6247807  73.3172369  33.6753678  66.9020414
  72.8510571  34.4270563  65.3420305  77.0956039  33.6003137  65.3031301
  77.8576374  33.5117579  66.2607622  77.4328184  33.2877660  64.0689850
  76.8298292  33.4820008  63.2823610  78.8184404  32.7681851  63.6424923
  79.0207958  31.7297602  63.9048529  78.9131975  32.6702762  62.1326256
  78.7523842  33.6875033  61.7755604  79.9321413  32.3821354  61.8741083
  77.8851795  31.7166471  61.6843843  77.0125198  32.0683002  61.8751860
  79.9516106  33.6451960  64.1702414  80.9125423  33.1717825  64.7833633
  79.8851061  35.0056148  64.0983772  79.0497637  35.3679776  63.6613417
  80.9201241  35.9469533  64.5405197  81.9550228  35.6310701  64.4089890
  80.6783199  37.2859502  63.8861752  80.9378147  37.1825933  62.8325701
  79.6292830  37.5816536  63.9000654  81.5807915  38.4468746  64.3143177
  82.6194954  38.1485367  64.1722155  81.3069534  39.2898750  63.6799192
  81.3315678  38.9036560  66.0021591  79.8191309  39.9381852  65.8249474
  78.8901901  39.4457173  65.5374670  79.6237373  40.4206133  66.7826462
  80.1775265  40.6702042  65.1012087  80.9527779  35.8969450  66.0962105
  82.0366192  35.5759954  66.6282463  79.7645187  36.1002064  66.7995930
  78.9106321  36.2824702  66.2918949  79.6884060  35.8094645  68.2844591
  80.2454472  36.5454102  68.8642883  78.1936407  35.9958625  68.6753464
  77.4879694  35.4879117  68.0179930  77.8778601  35.6712532  70.1735163
  78.4990692  36.2816548  70.8289671  76.8350077  35.9164548  70.3746128
  78.0308151  34.6063852  70.3489113  77.7847385  37.4774408  68.4830999
  76.9806767  37.6366973  69.2015839  78.5299444  38.2618403  68.6153650
  77.2711039  37.6091480  67.5307703  80.2621651  34.4011092  68.7401819
  81.0128593  34.3399096  69.7121429  79.9045324  33.3043265  68.0711269
  79.3122435  33.4365511  67.2637796  80.4180908  31.9842982  68.3386898
  80.1215076  31.7388940  69.3584538  79.8052502  30.8639455  67.5540972
  79.7625732  31.1735678  66.5098715  80.4422474  29.9852777  67.6554728
  78.4986162  30.4491282  68.1177759  78.5445738  30.1913857  69.1758680
  77.7950573  31.2785625  68.0460548  78.0729866  29.1244221  67.3344803
  77.9326105  29.3125057  66.2700462  78.8330889  28.3446550  67.3824501
  76.8399143  28.5237169  67.9518318  76.8495178  28.3378267  68.9445305
  75.7285643  28.1274581  67.2851992  75.5588388  28.4461975  66.0491800
  76.2121439  28.9763021  65.4903507  74.6910858  28.3331919  65.5448627
  74.7602844  27.3790550  67.7583551  74.7656679  27.2776365  68.7632370
  74.0916967  26.9985008  67.1039391  81.9408321  31.9629145  68.1721687
  82.5282478  31.4522457  69.0588856  82.5115108  32.5420666  67.0974302
  81.9272614  32.8751802  66.3439178  83.9443684  32.6516247  67.0584679
  84.3919182  31.6621947  67.1524572  84.3400574  33.0970860  65.5883503
  84.0158367  32.3399186  64.8744345  83.9141464  34.0932083  65.4681492
  85.9332657  33.1565547  65.4962826  86.4467907  34.1961432  65.4183006
  86.5793133  32.0384622  65.4442739  87.5661469  32.2247696  65.3367329
  86.1542130  31.1229062  65.4780865  84.5438671  33.4921908  68.1325865
  85.5948353  33.1163621  68.6137199  83.9245224  34.5965767  68.4726954
  83.0124092  34.7634101  68.0722809  84.3356705  35.5625010  69.4832945
  85.3511333  35.8231950  69.1849852  83.4121609  36.7750359  69.4664907
  83.5095501  37.0878100  68.4268808  82.3764706  36.5047240  69.6723270
  83.6461067  37.9883814  70.2927256  84.4272995  37.6907039  70.9921694
  84.2055321  39.1889334  69.4557238  83.3771515  39.5900226  68.8717604
  84.3827248  39.9048662  70.2583122  85.0254536  38.8554502  68.8196230
  82.3929310  38.2875323  71.1949301  82.3576736  37.5852489  72.0277929
  82.4877167  39.2616224  71.6747904  81.4631176  38.2252932  70.6295300
  84.3803215  34.8234344  70.8851051  85.3694057  34.9266076  71.5503788
  83.2510662  34.2722440  71.3570404  82.4587154  34.1916203  70.7359219
  83.3296394  33.5034323  72.6060200  83.3280087  34.2019129  73.4428120
  82.0201874  32.7957034  73.0358458  81.8592930  31.9729018  72.3392725
  82.1257877  32.1627378  74.4618273  81.1824703  31.6766429  74.7107410
  82.8929615  31.3911772  74.3966961  82.3723698  32.8496838  75.2713966
  80.8316612  33.8255191  73.0959845  81.0015583  34.6303582  73.8111544
  80.7689285  34.3641114  72.1504211  79.4225645  33.2949185  73.4084034
  79.2416239  32.4820399  72.7051353  79.2484665  33.0884814  74.4644260
  78.7785864  34.0670657  72.9874706  84.5184422  32.4892521  72.7449465
  85.1814556  32.4086213  73.7812901  84.7270489  31.7267823  71.6756010
  84.2077637  31.8944073  70.8256960  85.9764767  30.8813262  71.5795898
  86.0547256  30.2005863  72.4272776  85.9065819  29.9651456  70.3248310
  85.5190563  30.5678058  69.5034122  86.8741798  29.5779562  70.0055361
  84.9115849  28.8321304  70.5851460  85.3635597  28.0505514  71.1958456
  84.1052246  29.2077804  71.2150383  84.2472839  28.1735349  69.2763710
  84.3198586  28.7836933  68.2293177  83.6496353  26.9940662  69.3896484
  83.1467438  26.6793203  68.5722494  83.6927986  26.5129447  70.2766418
  87.4106121  31.5388250  71.5362597  88.4089279  30.8099985  71.5825987
  87.4163914  32.8494143  71.3036680  86.5563583  33.3383822  71.1003017
  88.6633778  33.5317039  71.2403631  89.4916630  32.8706598  70.9852839
  88.6033249  34.4908905  70.0297070  87.6112270  34.8280787  69.7294712
  89.2783260  35.3133345  70.2664852  89.1923904  33.6173987  68.8585424
  90.1932812  33.9646459  68.2815504  88.4508991  32.7199340  68.3391285
  88.9017487  31.9940877  67.8006315  87.4807739  32.6685214  68.6153698
  88.9812469  34.3372726  72.5057936  89.8520470  33.9591265  73.2642555
  88.1168175  35.3511333  72.7582598  87.3757076  35.4613948  72.0809793
  88.2536888  36.3929558  73.8237715  88.7735462  35.9334469  74.6644258
  89.1110706  37.6364994  73.4463978  89.1553020  38.1920815  74.3831348
  90.0746059  37.2472310  73.1175041  88.4176350  38.6873102  72.5229645
  87.2544003  38.5252571  72.0399904  89.0693283  39.7503972  72.2959518
  86.8993759  36.9252300  74.4139099  86.8600368  37.8247237  75.3367376
  85.7475185  36.4094019  73.9094067  85.7792091  35.8141947  73.0940390
  84.4239712  36.8205094  74.3841076  83.7611198  36.3177896  73.6798286
  84.0119457  36.3484669  75.7711411  84.4726467  37.0539117  76.4626598
  82.9275990  36.4559603  75.7983398  84.5023918  34.9784946  76.2350655
  84.1824245  34.2131186  75.5280113  85.5880928  35.0206494  76.3221169
  83.8743496  34.7277260  77.6130533  83.9985371  35.6725597  78.1421757
  82.7968121  34.5634222  77.6152802  84.6020222  33.5675764  78.2119989
  84.7078896  32.7736950  77.5966549  85.3884697  33.5217118  79.2922592
  85.7045555  34.5832419  79.9607038  85.2353573  35.4327536  79.6809101
  86.4202118  34.5261359  80.6711102  85.9675026  32.3932147  79.6855974
  85.6742382  31.4751601  79.3834829  86.4240932  32.5840092  80.5660725
  84.0513897  38.3458400  74.2607355  83.0138969  38.6747432  74.7695255
  84.8471069  39.2502594  73.6407804  85.6849670  38.9785957  73.1465149
  84.6720505  40.6717873  73.8442183  83.8035965  40.7790136  74.4941330
  85.8522511  41.0476017  74.7062683  86.7800045  40.8390188  74.1734648
  85.8586502  42.5657082  75.0886631  86.7862034  42.7515030  75.6301641
  85.7824516  43.1403065  74.1655540  85.0087738  42.9274368  75.6674147
  85.7809925  40.4414272  75.9832335  86.1599541  39.5595431  75.9997225
  84.4592285  41.5539503  72.5350475  85.4697895  41.7896271  71.8580246
  83.2178402  41.8192339  72.1735907  82.5448799  41.6744137  72.9126835
  82.8596401  42.5841618  70.9707499  83.5795498  42.4293375  70.1671028
  81.5007687  42.0536375  70.4186344  81.4226055  42.3206568  69.3647385
  81.5953827  40.9682512  70.4515791  80.2281284  42.2759151  71.1932182
  79.7358656  41.2319183  72.0407629  80.3540802  40.3817844  72.2887468
  78.5600471  41.4752674  72.7478027  78.1136322  40.7381582  73.3987856
  77.8307867  42.6425838  72.4495268  76.8354177  42.7725077  72.8479862
  78.2851315  43.5749197  71.5880013  77.6653433  44.4517851  71.4723825
  79.4677877  43.4395790  70.9231138  79.7505283  44.1776800  70.1871347
  82.7998257  44.0870762  71.3135719  83.2009220  44.6004581  72.3772812
  82.4300671  44.8325872  70.2498388  82.1254635  44.4011307  69.3889284
  82.4625492  46.3163853  70.2586651  82.6486683  46.6122198  71.2911129
  83.5734272  46.8690777  69.2275143  84.5587921  46.7613459  69.6808863
  83.5724831  46.2794209  68.3107710  83.3733082  47.9264402  69.0541792
  81.1102104  46.9766045  70.0283957  80.2820683  46.5878105  69.2176914
  80.9090137  48.0538702  70.7957363  81.5092278  48.2742786  71.5775728
  79.7542810  48.9706945  70.6111383  79.1840696  48.6713409  69.7317314
  78.6471319  48.8417673  71.7760324  79.1554880  49.0208721  72.7234507
  77.5171328  49.8287725  71.5166855  77.1784353  49.6484661  70.4964542
  76.7263412  49.7742510  72.2648716  77.8704929  50.8496952  71.6614342
  78.0801105  47.4180412  71.7691469  78.8087797  46.7443419  72.2200060
  77.2168732  47.3966599  72.4343252  77.8335714  47.0556879  70.7711411
  80.1570034  50.4265213  70.4977942  80.6783009  51.0687017  71.4112520
  79.9765968  50.9868431  69.3079615  79.4367886  50.3418350  68.7487888
  80.1867485  52.4431038  69.0625906  81.2305737  52.6424170  69.3051052
  79.7660398  52.6863337  67.5775623  78.7417698  52.3726892  67.3760557
  79.7903967  53.7462378  67.3243666  80.6735611  51.9519424  66.5281916
  80.6584549  50.8831167  66.7414570  80.1683521  52.0994139  65.1524591
  80.7731819  51.5753174  64.4124556  79.1090631  51.8441057  65.1237917
  80.0444889  53.1435442  64.8651552  82.1163750  52.4620104  66.5982103
  82.6898956  52.0942640  65.7473612  82.1440983  53.5482311  66.5118551
  82.5421429  52.1193361  67.5412893  79.3672466  53.3857870  69.9552345
  78.1729650  53.1920719  70.2163601  80.0298882  54.4908905  70.2835512
  80.9696484  54.5357418  69.9161959  79.3601704  55.7315016  70.6108665
  78.4322119  55.5766869  71.1613417  80.1957417  56.5133858  71.6259623
  79.6597862  57.3442030  72.0848656  80.5368710  55.9177876  72.4727154
  81.0376072  57.0263052  71.1608982  78.9977407  56.5361691  69.3929863
  79.8433256  57.1314669  68.7508583  77.6843834  56.4720440  69.0407562
  77.1445274  55.7602262  69.5118904  77.2039175  57.1831942  67.9258156
  77.8806829  56.8659544  67.1324396  75.6640291  56.7208147  67.7708817
  75.0402451  56.9851112  68.6247826  75.3590441  57.2756624  66.8836212
  75.6209469  55.2404499  67.4702358  75.9871101  54.7836494  66.1871290
  76.1848116  55.5956888  65.5030966  76.1247635  53.3719730  65.9359646
  76.5400314  53.0357361  64.9973965  75.8266783  52.5073195  67.0354223
  75.8864403  51.1761856  66.8202400  75.4881763  50.7062149  67.5565243
  75.3677416  52.9056358  68.2166004  75.2058935  52.2485113  69.0582609
  75.3034496  54.2708540  68.4563732  74.9199677  54.6220827  69.4029379
  77.4289751  58.6948109  68.1735849  77.4438381  59.1277313  69.2925930
  77.6760530  59.4629955  67.0675182  77.6541948  59.0145874  66.1627769
  77.4765062  60.9193897  67.0738554  77.5894070  61.3665915  68.0614614
  78.4841537  61.4601755  66.1095810  78.5448027  62.5437546  66.0081530
  79.5065260  61.1972570  66.3811064  78.2859230  61.0475540  64.7931004
  78.6318731  60.1633358  64.6514034  76.0460472  61.2239170  66.5336561
  75.4724407  62.3062849  66.7111969  75.4698086  60.2254629  65.8779144
  76.0842800  59.4633102  65.6296206  74.0646696  60.0973225  65.5189323
  73.4240913  60.5693722  66.2638712  73.8497925  61.0128832  64.2927980
  74.1939878  62.0299673  64.4803238  74.5427370  60.7696962  63.4873199
  72.4302578  61.2038422  63.8258123  71.7097616  60.3050041  63.7487936
  71.9561815  62.3446035  63.3359528  71.0225630  62.4597454  62.9682589
  72.6170588  63.1035995  63.2506895  73.6241102  58.6455154  65.1771975
  74.2978287  57.9538822  64.4163513  72.5787592  58.0730200  65.8009529
  72.1060848  58.6711121  66.4634943  72.0397806  56.7181683  65.6021309
  72.8834009  56.0624409  65.3866482  71.2038422  56.2497473  66.8607283
  71.7724609  56.2936974  67.7896261  69.9762392  57.1710634  67.0489597
  69.3259382  57.1123171  66.1761713  69.3602180  56.7513037  67.8442049
  70.1403093  58.2364941  67.2103405  70.6853580  54.7730732  66.8799543
  70.0613594  54.6375704  65.9965706  71.4726400  54.0192223  66.8807745
  70.1517344  54.5886612  67.8123331  71.3464546  56.6245508  64.2618418
  71.2949038  55.5245590  63.6801815  70.6903887  57.6456213  63.7779427
  70.6265497  58.4270239  64.4146824  69.9782085  57.6497936  62.5363636
  69.4377422  56.7033052  62.5488853  68.9437294  58.7977505  62.5026035
  68.0814981  58.4729910  63.0849981  69.3882704  59.6967649  62.9295444
  68.5664940  59.4157887  61.1336470  68.0121422  60.3400660  61.2964678
  69.4247103  59.5798302  60.4819870  67.6108360  58.5196638  60.3408480
  67.2192383  57.4234438  60.8098793  67.2210741  58.8607883  59.1112947
  66.6877604  58.1871367  58.5803747  67.6958990  59.6125555  58.6322498
  70.9238815  57.6095057  61.4239407  70.8675718  56.6996813  60.6070948
  72.0048380  58.4091568  61.4392757  71.9771624  59.0335894  62.2326374
  73.0896139  58.3059931  60.4413652  72.6062059  58.0576038  59.4965219
  73.8716936  59.5769072  60.2150154  74.5505857  59.8162508  61.0335016
  74.4695759  59.5297480  59.3048429  72.9849911  60.8146954  59.9892569
  72.3410511  61.0164452  60.8452606  73.5262060  61.7594290  59.9376011
  72.0826244  60.7854843  58.8109016  72.3484659  60.1562643  57.7152205
  71.0187244  61.4282656  59.0647888  74.1606998  57.1356583  60.6515980
  74.7697592  56.6940117  59.7028685  74.2833090  56.6328621  61.9059610
  73.6407900  57.0762777  62.5467873  75.0858641  55.4999828  62.4516869
  74.8658085  55.3347397  63.5063791  74.8449087  54.2046785  61.7747736
  75.1866150  54.2484760  60.7406473  75.3537750  53.4103727  62.3208809
  73.3735943  53.8795233  61.7802238  72.9362535  54.1528177  62.7405071
  72.9597998  54.5894623  61.0640812  73.0807495  52.3934126  61.3300800
  72.0324945  52.3172188  61.0411787  73.7168169  52.1337509  60.4838610
  73.3915758  51.3294125  62.3283482  74.0788937  51.5433598  63.0368137
  72.8306818  50.1194477  62.5456905  71.8822432  49.5960283  61.7794037
  71.8796539  49.9640751  60.8388519  71.5115929  48.6972427  62.0530844
  73.1621695  49.4598293  63.5180759  74.0857220  49.7086859  63.8424587
  72.7780390  48.5592461  63.7660551  76.6113186  55.8999538  62.4830961
  77.4280453  55.0824261  62.8823996  76.8549585  57.2197247  62.3229551
  76.0989475  57.8365326  62.0619965  78.2330561  57.8002691  62.3704100
  78.8877964  57.1907568  61.7475843  78.2132626  59.3307161  61.9681168
  77.5331974  59.7507715  62.7091694  79.1958523  59.7649145  62.1527624
  77.8384542  59.7049332  60.5690002  76.8347263  59.3874693  60.2864265
  77.8499794  60.7946539  60.5909348  78.8386297  59.2984247  59.5408249
  80.0463486  59.6858978  59.7379065  78.5238838  58.6166048  58.5511255
  78.8676357  57.6476240  63.7526560  78.1169891  57.8082085  64.7627640
  80.1919174  57.4003649  63.8481379  80.6036949  57.2066784  62.9464579
  81.0138607  57.3178387  65.0510979  80.7093048  58.1282663  65.7133293
  80.6068420  56.0808039  65.7872772  79.5193863  56.0286188  65.8403158
  80.9863758  55.1999521  65.2694464  80.9846973  56.0875797  66.8096638
  82.5378990  57.3380232  64.8339415  82.9924393  56.9697142  63.7861872
  83.1797886  57.7277994  65.9007359  82.6164150  58.1323195  66.6349554
  84.6336269  57.4779081  66.0679960  84.8228073  56.5290022  65.5661058
  85.3507519  58.6529064  65.3294086  84.7921181  58.9355183  64.4371319
  85.2917099  59.4784260  66.0387278  86.8331909  58.5167980  64.9640799
  87.3904133  57.8309774  65.6022501  86.8377590  58.3276653  63.8906240
  87.5008202  59.9133396  65.1259232  86.9735050  60.8894682  64.5297813
  88.5165691  60.0553274  65.7714462  85.0642300  57.2988653  67.5066423
  86.2095356  57.4818850  67.8224564  84.1684818  56.8584824  68.3449268
  83.2614422  56.6718197  67.9417658  84.3823051  56.4351749  69.7876120
  85.4082298  56.0706806  69.7355366  84.2088699  57.6846981  70.6600523
  84.6521568  58.6189032  70.3152895  83.1506252  57.8991222  70.8091784
  84.8307514  57.5353527  72.0268393  86.1788368  57.7853775  72.1612787
  86.7044735  58.2113791  71.3194752  86.7501736  57.7754593  73.3938551
  87.7369118  58.1635046  73.5991907  86.1094284  57.2059441  74.5007563
  86.4894962  57.1420908  75.5096579  84.7672081  56.8261003  74.3548775
  84.2236042  56.5489292  75.2459860  84.1306400  57.1661091  73.1915569
  83.0612373  57.0397949  73.1089449  83.4542942  55.2398348  70.2113581
  82.6445961  54.7609234  69.4638729  83.5984707  54.6182966  71.3617802
  84.3955803  54.9134254  71.9073296  82.7592659  53.5611439  71.8360615
  81.8021011  53.9359188  72.1986818  82.4959469  52.7871037  71.1152124
  83.4532928  52.8446865  73.0292034  84.3622971  53.3040237  73.6706352
  82.9798126  51.6220427  73.2067728  82.1340179  51.3215399  72.7437162
  83.2049561  50.8003712  74.3819475  84.1265774  51.1008453  74.8803902
  82.1156788  51.0891104  75.3452253  81.1897564  50.8269119  74.8333359
  82.1623135  50.1790857  76.5490150  81.9007206  49.1828680  76.1923361
  83.1693077  50.0608397  76.9491005  81.5561867  50.5809212  77.3609495
  82.1665955  52.3847008  75.8648443  81.2891674  52.7353334  75.6951952
  83.1304264  49.3881416  73.9648914  82.1247387  49.0204763  73.3158588
  83.9993000  48.4539843  74.4072962  84.8185730  48.7233496  74.9329710
  83.8467789  47.0123720  74.2562866  83.4727859  46.8961477  73.2390690
  85.1496220  46.3409424  74.4499826  84.9343777  45.2914715  74.2490244
  86.1737633  46.8563986  73.4794521  86.9193459  46.0688782  73.3698082
  85.6632423  47.0082903  72.5284529  86.6468334  47.7823734  73.8063622
  85.7944393  46.5128088  75.7570934  86.4565754  45.8197975  75.8110905
  82.7833557  46.3737011  75.2403259  82.4777985  46.8994093  76.3041449
  82.2257328  45.1556587  74.8907804  82.5182152  44.7637510  74.0070629
  81.3976955  44.3902922  75.7768106  81.4324665  44.7884035  76.7909145
  79.9394751  44.4949007  75.3788185  79.7713423  43.8924932  74.4861031
  79.2632389  44.2825747  76.2069082  79.6319437  45.4858875  75.0449514
  81.9687176  42.9393435  75.9269381  82.0664215  42.2627497  74.9082661
  82.1092892  42.4339628  77.1168280  81.9263172  43.0233526  77.9163599
  82.4592113  41.0148382  77.4292374  82.9862118  40.6344080  76.5542269
  83.6506653  41.0128117  78.4351540  84.5771885  41.3531446  77.9727268
  83.3549976  41.6688061  79.2539024  83.9279938  39.6036959  79.0716457
  83.1384468  39.3196893  79.7673988  83.9758110  38.9130330  78.2297421
  85.2421188  39.5985198  79.8078871  85.2701759  40.3657818  80.8167458
  86.1479187  38.7451530  79.6301937  81.2852192  40.1411057  77.6889467
  80.4081631  40.4553413  78.4945440  81.2353706  39.0527415  76.9370079
  81.9374371  38.8549018  76.2383938  80.1226902  38.1556654  77.0940828
  79.2192984  38.7643051  77.1334314  79.8812246  37.2813416  75.8468676
  80.7713509  36.7116523  75.5799818  78.7674713  36.2640786  76.1770916
  77.8008032  36.6415310  76.5105295  78.6683559  35.5060387  75.4001379
  79.0714169  35.6991029  77.0583010  79.4157648  38.1158447  74.6307993
  78.3690405  38.4035945  74.7291565  79.9842310  39.0372658  74.5046139
  79.5151663  37.3369098  73.3276463  79.0190554  37.9455757  72.5716686
  80.5523682  37.0904350  73.1005573  78.9259386  36.4330649  73.4824705
  80.2846909  37.3407936  78.3734798  81.2877369  36.6417050  78.5757065
  79.2008400  37.2548103  79.1860390  78.3960915  37.8343248  78.9946127
  79.1620970  36.4920998  80.4000282  80.1586723  36.0568070  80.4738426
  78.9030790  37.4013519  81.6102886  79.2474413  36.9135642  82.5221920
  79.5856714  38.2361102  81.4510727  77.4576139  37.9640007  81.7131615
  76.5489912  37.1300030  82.3555660  76.8689394  36.1377335  82.6374054
  75.2655935  37.5726533  82.7444649  74.5979404  36.9001913  83.2625675
  74.8571491  38.8702369  82.3427868  73.7001419  39.4084120  82.7625656
  73.2096148  38.8732171  83.3906937  75.7309389  39.6971035  81.5349007
  75.4041052  40.6177282  81.0744286  77.0596647  39.2855382  81.3413143
  77.7228594  40.0036621  80.8820915  78.2448292  35.2932167  80.4041195
  78.5511303  34.3860483  81.1822987  77.1833611  35.2173281  79.5586681
  77.0060968  36.0271168  78.9816713  76.1474991  34.1365504  79.4612837
  76.6345787  33.1623363  79.5033360  75.2023220  34.2134571  80.6280327
  74.4253540  33.4616613  80.4894066  75.6656408  33.9668226  81.5833378
  74.7463846  35.2003098  80.7077312  75.5025339  34.0157175  78.0396986
  75.5136681  34.9571705  77.2406578  74.9315310  32.7987456  77.6250458
  74.9577761  32.0388508  78.2898521  74.5975542  32.4181128  76.2026358
  74.0603685  33.1985617  75.6637192  75.8277416  32.1791148  75.3363132
  76.2741041  33.1665111  75.2183676  76.5573120  31.6293216  75.9309196
  75.7178974  31.4613008  74.0456533  76.0144234  32.2091913  72.9069757
  76.3885975  33.2203817  72.9693222  75.7921553  31.6223407  71.7076778
  75.8092785  32.2312093  70.8158302  75.3777695  30.2460456  71.5659475
  75.1181269  29.7356868  70.3595257  74.7411680  28.8713980  70.5398321
  75.3000832  29.4624996  72.7088404  75.1255703  28.4046769  72.5785923
  75.3820372  30.0788784  73.9529562  75.1368046  29.5543504  74.8646164
  73.5708761  31.2600303  76.2607718  73.6264801  30.5060697  77.1955585
  72.6668072  31.1749792  75.3251982  72.8007698  31.7965293  74.5404482
  71.5609932  30.1562643  75.2742815  71.8988514  29.1638541  75.5727291
  70.5245924  30.6304336  76.2770987  71.1146116  30.8882213  77.1566057
  69.9258852  31.4928365  75.9839916  69.5206022  29.5760679  76.7838001
  68.8405180  29.2499018  75.9969091  70.0756931  28.7704778  77.2644281
  68.6869001  30.2072239  77.8727722  69.3151522  30.4169369  78.7384653
  68.3695412  31.1719465  77.4769258  67.5129938  29.4617653  78.2924414
  66.8395424  29.2828727  77.5613022  67.3228693  28.8165355  79.4120598
  66.3927364  27.8972483  79.5440245  65.8718109  27.5019312  78.7743044
  66.2464333  27.4938798  80.4583454  67.9951048  28.9175677  80.5114365
  68.7045479  29.6307898  80.6015110  67.5948620  28.5087776  81.3437843
  71.0465097  30.0190663  73.8820744  70.4667044  31.0033989  73.4313917
  70.9427261  28.7904191  73.3383703  71.2150335  28.0341029  73.9498758
  70.5940056  28.3389497  72.0197296  70.2992392  29.1718388  71.3813639
  71.8548012  27.8572917  71.2770510  71.6390991  27.5566411  70.2517748
  72.5930882  28.6479783  71.1434507  72.6475859  26.6440201  71.9140053
  73.1530809  26.9780135  72.8201103  71.9200182  25.8389664  72.0171595
  73.7858629  26.1982751  71.0622549  74.5750713  26.9752479  70.5472898
  74.0905046  25.0158048  71.1965656  69.5195627  27.3176050  71.9263220
  69.4527817  26.4396763  72.7662897  68.5899591  27.3734164  70.9200954
  68.7489223  28.1394076  70.2812767  67.4475241  26.4062810  70.5569077
  67.6529503  25.3733325  70.8378363  66.1836052  26.8443584  71.3924217
  66.4090443  26.7367148  72.4534082  66.0339069  27.8830504  71.0977840
  64.8398733  26.1283207  71.0908747  64.1270542  26.4837885  71.8349361
  64.5001173  26.4355111  70.1017809  65.0006819  24.6137476  71.4084291
  64.5746851  24.1035676  72.4654055  65.4885387  23.8896656  70.5399704
  67.2238874  26.4434052  68.9909410  67.4552250  27.5132561  68.3740139
  66.7735243  25.3356838  68.3775091  66.5170431  24.5513678  68.9598894
  66.7306757  25.0718975  66.9084215  66.9462633  25.9604883  66.3150978
  67.6807737  23.9235163  66.4179420  67.3602724  22.9943061  66.8890572
  67.7001381  23.8321543  65.3319502  69.1620731  24.0965056  66.7865086
  69.3695211  25.1629949  66.6989517  69.3289089  23.8085103  67.8244495
  70.1782942  23.3057904  65.9617710  69.9922466  22.1215272  65.6319427
  71.3377905  23.8467908  65.6323814  71.8644571  23.3385515  64.9363756
  71.5960646  24.7350144  66.0379076  65.2291775  24.7000694  66.6605902
  64.8863029  23.5196352  66.7475367  64.3658018  25.6785560  66.4701748
  64.6070576  26.6586018  66.4326811  62.9468155  25.4210925  66.4103937
  62.7262497  24.4442415  66.8407631  62.2534561  26.5368128  67.1928263
  62.7892637  26.7302728  68.1221151  62.2301149  27.4051237  66.5343428
  60.7732344  26.1649799  67.5501871  59.9078989  27.0844841  67.6770592
  60.4243708  24.9572563  67.6965618  62.5960732  25.4580832  64.9097252
  62.6576233  26.4983773  64.2407799  62.3060560  24.2970586  64.3250227
  62.1986485  23.5470176  64.9928570  62.0552921  24.0103531  62.8614426
  61.7372417  22.9804301  62.6995611  60.8085489  24.8751760  62.3743057
  61.0531044  25.9354925  62.3108864  60.5288219  24.4358230  61.4167929
  59.5224857  24.7485828  63.2316399  58.5682392  23.7059426  63.0489922
  58.8319492  22.9513693  62.3227119  57.3985338  23.5623789  63.8532352
  56.7088652  22.7374744  63.7518024  57.1369553  24.5749974  64.8360109
  56.2030649  24.4543886  65.3648806  58.0372810  25.6550622  64.9496317
  57.8781462  26.4004230  65.7148218  59.2337227  25.7351685  64.2066336
  59.9069023  26.5781069  64.2584181  63.2959700  24.1682100  61.9791126
  63.2708597  24.3162656  60.7032108  64.4648218  24.1845894  62.6891994
  64.2690372  24.0559411  63.6716557  65.8911800  24.2844796  62.3602819
  66.4460993  23.9563870  63.2392120  66.0536575  23.7296915  61.4362097
  66.3629770  25.6570339  62.1303749  67.5201893  25.7482958  61.7643452
  65.5566740  26.7007565  62.3406029  64.6393442  26.5717840  62.7430582
  66.0755157  28.0262160  62.4893332  66.9167805  28.1034946  61.8005705
  65.0153542  29.1500545  62.2146988  64.0323925  28.8270116  62.5575304
  65.3898382  30.5689454  62.8001499  66.3224649  31.0521984  62.5089836
  64.5755672  31.2123513  62.4668407  65.3699207  30.5706954  63.8899660
  64.8386240  29.3662453  60.7158804  65.5674648  30.0800824  60.3320456
  64.9712610  28.3710504  60.2914953  63.3687401  29.7973824  60.3617191
  63.0510139  30.7917714  60.6753206  63.3612061  29.9642754  59.2845964
  62.6314974  29.0070438  60.5029154  66.6691351  28.1088996  63.9682627
  65.9939575  27.8896904  64.9493217  67.9124355  28.5909748  64.1334581
  68.4298563  28.7926555  63.2898331  68.5895205  28.6539316  65.3700495
  68.0897760  27.9062271  65.9859228  70.0103188  28.2927775  65.0863171
  69.8410654  27.2812700  64.7171164  70.3954458  28.9644790  64.3191195
  70.8764505  28.4555507  66.2784052  71.1137152  29.5122170  66.4019585
  70.2900791  28.0843449  67.1189308  72.0802593  27.5369382  65.9749413
  72.2853422  26.4418578  66.5386295  72.9351521  28.0030537  65.2273369
  68.3256245  30.0301600  66.0276747  68.7053251  31.0563159  65.4864311
  67.6660538  30.0306702  67.1584606  67.3122692  29.1677761  67.5462103
  67.4901152  31.2520814  67.9830122  67.5097561  32.1196246  67.3233986
  66.0952091  31.2591076  68.5953617  65.9414768  30.5011559  69.3634605
  65.9037971  32.5965095  69.3696356  66.7321587  32.7086568  70.0691605
  65.7289696  33.5018158  68.7882948  65.0001192  32.4514389  69.9616051
  64.9222803  31.0418081  67.5883818  64.1984606  31.8162370  67.8422451
  65.2278471  31.3392568  66.5852594  64.2505026  29.6260834  67.6861334
  63.6119890  29.4680953  68.5552931  63.4835148  29.4835234  66.9248819
  64.9984646  28.8471413  67.5381613  68.6091852  31.4063621  69.0836382
  68.8230085  30.5641699  69.9361849  69.3315983  32.5504255  69.1903162
  69.1219759  33.2812119  68.5254002  70.4724741  32.8032470  70.0519991
  70.5246067  31.9464612  70.7237911  71.8248606  32.6244950  69.2022228
  71.7640448  33.2543850  68.3147335  73.1942177  32.9477358  69.9203968
  73.2107162  32.4960828  70.9122849  73.9996576  32.4770093  69.3566799
  73.2983589  34.0215683  70.0757599  71.8332386  31.1302924  68.6587381
  70.9964466  30.9362817  67.9877329  72.7119446  31.0227728  68.0228043
  71.8578100  30.4144979  69.4804049  70.2671671  34.0017390  70.9721613
  70.2928972  35.1357031  70.5641222  70.0909281  33.6696792  72.2583008
  70.1890993  32.7091098  72.5545740  69.9810553  34.7591209  73.2704449
  69.8306704  35.6971383  72.7360201  68.8064432  34.4509053  74.2180061
  69.0597820  33.6991262  74.9655008  68.4398651  35.3349543  74.7397089
  67.5430393  34.0537643  73.3275890  67.3300600  34.7876167  72.5502872
  67.7406073  33.0694246  72.9031420  66.3141680  33.8147926  74.2173719
  66.4991570  33.1549025  75.0649691  66.0172606  34.8029900  74.5686722
  65.1102352  33.2411790  73.3896208  64.7149038  34.0369248  72.7582741
  65.7045794  32.5062251  72.8467560  64.0860558  32.5838614  74.2568159
  64.4398069  31.9014144  74.9119663  63.5235262  33.1984639  74.8277140
  63.4540796  32.1540856  73.5965109  71.2803078  34.8170447  74.1050673
  71.8413162  33.7734723  74.4334459  71.8311453  35.9845710  74.3453455
  71.4592028  36.8594003  74.0041256  73.1565094  36.2248588  74.9175549
  73.5544443  35.3662038  75.4583502  74.2342424  36.5938878  73.7762213
  74.0438128  37.5562048  73.3010483  75.6314135  36.6887951  74.3521404
  75.9294844  35.7273388  74.7703075  76.2178278  37.0542240  73.5091209
  75.5877161  37.4425864  75.1382637  74.3414211  35.4771328  72.7353430
  73.5364056  35.4696202  72.0005035  75.2937984  35.5200267  72.2069120
  74.3865204  34.5417619  73.2931471  73.1353140  37.3726583  75.9224510
  72.4702215  38.3693457  75.7426596  73.9842844  37.3329926  76.9741917
  74.5908165  36.5254211  76.9812489  74.2024565  38.4176946  77.9984760
  73.7482166  39.3298769  77.6115847  73.4589005  38.0556750  79.2999935
  73.7592363  37.0754790  79.6702814  73.4903097  38.9225984  79.9599600
  71.9678545  37.7764988  79.1503096  71.5028524  38.7033176  78.8143349
  71.7370367  36.9184470  78.5189819  71.3284731  37.5388241  80.4957008
  71.9624090  36.8565774  81.0620689  71.2160778  38.4827876  81.0289955
  69.9965572  36.8854594  80.2957249  69.2171240  37.5941420  80.0158024
  70.0870323  36.2000370  79.4530439  69.5901442  36.1814547  81.5770721
  70.4710770  35.8157945  81.9092464  69.1836643  36.7977858  82.2662830
  68.9983797  35.3781915  81.4199543  75.7161331  38.7734747  78.1119347
  76.5638208  37.8995562  78.3594370  75.9405756  40.0979567  77.9269838
  75.1798296  40.7427311  77.7668571  77.2204828  40.7775879  78.0299187
  77.8884077  40.0301075  78.4579945  77.7379942  41.0610580  76.6449213
  77.6778030  40.1394510  76.0660267  77.1486855  41.8717670  76.2164688
  78.7957191  41.3138056  76.7186689  77.2311163  42.0046711  78.9968681
  76.1841011  42.3030710  79.5490170  78.3907175  42.5966978  79.2015934
  79.1600323  42.3094034  78.6136150  78.6106300  43.7297964  80.1503944
  77.6809788  44.2962503  80.2050209  78.9058256  43.2209396  81.4795780
  78.0100918  42.7352858  81.8667412  80.0152779  42.1718788  81.6420841
  80.0214481  41.4514160  80.8241653  80.9368324  42.7498245  81.5726376
  79.9484730  41.6760921  82.6105022  79.2956066  44.4695663  82.3749256
  80.2973080  44.8728418  82.2264290  78.5920048  45.2638102  82.1254921
  79.0611410  44.1643810  83.9081192  79.3711615  45.0560999  84.4529343
  77.9857206  44.0950012  84.0717030  79.6385002  43.3057022  84.2508030
  79.7275543  44.6177435  79.6341419  80.7626724  44.2353868  79.1000748
  79.3785763  45.9222937  79.5981216  78.4118462  46.1514997  79.7797632
  80.2895069  46.9706345  79.0496922  80.5221748  46.8646574  77.9901028
  79.8589897  47.9685593  79.1327000  81.5640354  46.9955587  79.8284054
  81.4220619  46.8699360  81.0412121  82.6874924  47.1675158  79.1228962
  82.5898743  47.3596430  78.1361485  84.0548611  47.0566702  79.6912241
  83.9851952  47.0265579  80.7785797  84.7448349  45.7624531  79.3072271
  84.8993015  45.7755566  78.2283068  85.7863808  45.6949854  79.6214294
  84.1281128  44.4648838  79.8275948  83.1070328  44.2706060  79.4993353
  84.7977257  43.6443186  79.5699072  84.0197277  44.4966507  81.3612366
  84.9041176  44.9395704  81.8192482  83.0989265  44.9923372  81.6686726
  84.0205860  43.1370926  81.9535732  84.3943405  42.3945761  81.3799191
  83.1990051  42.6199722  82.8129005  82.5262070  43.3430147  83.6205578
  82.6258850  44.3315840  83.8019466  81.9460583  42.8649378  84.2950726
  82.9542732  41.2972689  82.8399563  83.6086750  40.7405949  82.3089600
  82.1890068  40.8896732  83.3579636  85.0133228  48.3111954  79.4677973
  85.1319218  49.1832209  80.3295422  85.5876732  48.5232925  78.2994127
  85.3527641  47.8661633  77.5692797  86.6520214  49.5127249  78.0694103
  86.8234253  50.1359367  78.9470959  88.0085564  48.7796879  77.8249407
  88.0077839  48.1521463  76.9337082  88.6819839  49.6351194  77.7717113
  88.3981514  47.9667139  79.1023445  88.3452034  48.5401344  80.0278091
  87.7007771  47.1291304  79.1173887  89.8204422  47.4863195  79.0010929
  90.0030518  46.3503933  78.5037661  90.8188629  48.2004547  79.4460726
  91.7396832  47.8685760  79.1969824  90.6599712  49.1059351  79.8643541
  86.3956833  50.3832531  76.8782759  86.1001587  49.8453283  75.8180475
  86.4655209  51.7265272  77.0858431  86.6265869  52.0293665  78.0358171
  86.5064430  52.8242636  76.1318111  85.5286789  52.9803562  75.6760550
  86.6673183  54.1392899  76.8924379  87.5889587  54.0632153  77.4694061
  86.7808723  54.9553490  76.1788177  85.4181194  54.4722605  77.7918530
  84.6040154  54.8791695  77.1920443  85.0118637  53.5861731  78.2796144
  85.9175491  55.3804731  78.9685822  85.2227974  55.4043818  79.8081303
  86.7587280  54.7583771  79.2743826  86.2172604  56.7862940  78.6439943
  85.5711555  57.3592758  78.1202221  87.4216270  57.3141050  78.5916328
  88.4870052  56.8457031  79.1190815  88.4920979  56.0388088  79.7265387
  89.3160057  57.3866987  78.9186239  87.5467682  58.4619951  77.9065895
  86.6982746  58.9220619  77.6090813  88.4350300  58.8914776  77.6906300
  87.5390053  52.6459122  75.0429630  88.6410332  52.0831585  75.1872253
  87.0828056  53.0859470  73.8043308  86.1247730  53.4002209  73.8634825
  87.8829956  53.1071711  72.5794840  88.9026451  53.2713366  72.9280138
  87.7962685  51.7468739  71.8310833  88.7327290  51.7784595  71.2741804
  87.9603195  50.9005785  72.4981451  86.5961933  51.4538717  70.9458303
  86.2444687  52.1977806  69.8443604  86.8716717  52.9469585  69.3841982
  85.0057793  51.9540262  69.1759777  84.6983910  52.5714254  68.3448696
  84.1268826  51.0013390  69.6921062  83.1650639  50.9340715  69.2055035
  84.4803238  50.2410460  70.7938051  83.8022137  49.4585657  71.1008978
  85.7207394  50.4608440  71.4268732  85.8672714  49.9632168  72.3741293
  87.5979042  54.2886066  71.6370964  86.5237522  54.8256207  71.6186142
  88.6548233  54.7464705  70.8667660  89.5744419  54.3701315  71.0477972
  88.4650040  55.5696106  69.6316767  87.4617290  55.9938097  69.5917511
  89.4715691  56.7797947  69.8195219  89.2787457  57.5859404  69.1116762
  89.3182850  57.2133493  70.8077669  90.9373951  56.2824154  69.7712898
  91.1237812  55.5697632  70.5747175  91.0958767  55.7983398  68.8076210
  91.9648838  57.4471140  69.8244143  92.9273224  56.9786644  69.6185923
  91.7552757  58.0748749  68.9583397  91.9790554  58.1972122  71.2100267
  91.0107327  58.6540890  71.4142847  92.2193050  57.5823879  72.0774174
  92.9386806  59.3081999  71.2610865  92.7618980  59.9321508  72.0353746
  93.8562870  58.8896513  71.3151598  92.8383923  59.9086285  70.4551506
  88.6784840  54.7308159  68.3987904  89.4535160  53.7541437  68.3963585
  87.8313637  54.9474001  67.3827744  87.2871113  55.7979393  67.4044466
  87.8891850  54.2070436  66.0661268  87.9036331  53.1324291  66.2480450
  86.5970898  54.4786882  65.2981758  86.5268421  55.5476952  65.0972033
  86.7470360  53.9490795  63.9403534  85.7792950  53.9025021  63.4409571
  87.4125957  54.6241999  63.4024477  87.1418190  52.9334545  63.9132977
  85.3819656  53.8952351  66.0382700  85.3143024  54.3920898  67.0060778
  84.4338417  54.0487051  65.5229044  85.6453133  52.8385401  66.0846758
  89.1804504  54.7423077  65.4165983  89.4471645  55.9165239  65.3653812
  90.0377369  53.8694334  64.9202776  89.8421574  52.8832102  65.0162840
  91.2269306  54.2291021  64.0480614  91.3873291  55.3070450  64.0682411
  92.4626923  53.3922005  64.5062780  92.2154903  52.3328590  64.5754194
  93.2288837  53.4669113  63.7346077  93.0421829  53.8619137  65.8384132
  92.4008942  53.4270239  66.6050386  94.4432163  53.3243656  66.1567640
  94.4385433  52.2522688  65.9600925  95.1221848  53.8426924  65.4796791
  94.6782684  53.4955740  67.2072601  93.0267525  55.4123974  65.9999275
  93.7481785  55.6738377  66.7740726  93.3808041  55.8174944  65.0519609
  92.0520020  55.8345604  66.2443495  90.9901237  53.7244892  62.5967932
  91.3014603  54.3642473  61.6376400  90.3885937  52.5466585  62.4362659
  90.0876522  52.0177698  63.2423782  89.7513485  52.1262598  61.1040545
  89.5519733  52.9835320  60.4610634  90.7390308  51.1894512  60.4152155
  91.6591263  51.7403173  60.2201176  90.8770370  50.4028511  61.1570501
  90.2073669  50.4565048  59.1637659  89.4194317  49.7623110  59.4559002
  89.7630978  51.1771488  58.4771729  91.3433075  49.7701168  58.2904625
  91.1549759  49.6059847  57.0952559  92.4199867  49.3760681  58.8191748
  88.3692074  51.4824438  61.2967968  88.1586838  50.8784580  62.3245239
  87.4298954  51.6776991  60.3186607  87.5909233  52.2120905  59.4768810
  86.1118317  51.0818863  60.4103088  86.0936642  50.4470491  61.2961674
  85.1629639  52.2651768  60.5187178  85.6257248  52.9605818  61.2189817
  85.0702858  52.8089571  59.5786047  83.7845039  51.9477844  61.0749626
  83.2044888  51.2607479  60.4587984  83.8768101  51.3015223  62.4515867
  82.9393768  51.1501026  62.9867506  84.3443584  50.3216600  62.3548126
  84.4054890  51.9095707  63.1856728  82.9505253  53.2367516  61.2173557
  83.5178185  53.9782524  61.7798996  82.7829075  53.6226892  60.2118397
  82.0202351  53.0656815  61.7590237  85.8242416  50.0119257  59.3080854
  84.6299934  49.9252033  58.8907385  86.8063641  49.1974068  58.8748693
  87.7193451  49.4226170  59.2434549  86.6612148  48.3441067  57.6887941
  86.5228462  49.0208721  56.8456221  88.0098343  47.6085806  57.5480366
  88.9056587  48.1253624  57.8923273  87.9215527  46.6700077  58.0952024
  88.1929874  47.2162628  56.0919905  87.3369122  46.6054726  55.8053350
  88.1632233  48.1000137  55.4546499  89.4330883  46.3813686  55.7679319
  89.2634583  45.4354095  56.2822056  89.5305729  46.0990191  54.7196579
  90.6664848  46.9213057  56.3809347  90.5710888  47.8713036  56.7103434
  91.8997097  46.3921833  56.3694048  92.9214668  47.0312405  56.8957615
  92.8208637  47.9576111  57.2853994  93.8451195  46.6731787  56.6988993
  92.0776558  45.2467060  55.7678699  91.3529110  44.5500422  55.6703043
  93.0419350  45.1502275  55.4833412  85.4778481  47.3583841  57.8029299
  85.3782272  46.5371513  58.7413406  84.5178604  47.3760462  56.8210363
  84.5905018  48.0212545  56.0473871  83.2930279  46.4388418  56.9519091
  82.9413700  46.6851377  57.9537964  82.2187233  47.0071554  56.0211515
  82.2728252  48.0958080  56.0248470  82.3437119  46.4242744  54.5893145
  81.8207264  47.1254063  53.9389277  83.3907700  46.5267897  54.3042517
  81.9884300  45.4030943  54.4512224  80.9493637  46.8163443  56.5712309
  80.3399086  47.4948502  56.2715673  83.6840248  44.9546385  56.7187929
  84.6255207  44.6405888  56.0453463  82.7773285  44.0760756  57.0387793
  81.9644260  44.4789219  57.4826384  82.8631210  42.5751781  56.8838835
  83.4552956  42.4550486  55.9766912  83.6087132  41.9925737  58.1296873
  84.5524788  42.5374937  58.1510830  83.0247307  42.1865082  59.0293884
  84.0487385  40.4471159  58.0581856  84.4921780  40.2157450  59.0266562
  83.1505775  39.8542857  57.8851223  85.1443195  40.2545691  57.0529747
  85.5247974  41.1294937  56.2126398  85.7189083  39.0430212  56.9267130
  86.3584042  38.8869762  56.1606884  85.2405834  38.2338977  57.2963524
  81.5227127  41.8627214  56.6376400  80.5051613  42.4324894  56.9962692
  81.4911175  40.6836510  56.0225677  82.3041344  40.1590014  55.7329988
  80.2868843  39.8454547  55.9888124  79.5149660  40.4221010  55.4791689
  80.5788517  38.6729670  55.0594854  80.7983971  39.0795255  54.0722609
  81.4632416  38.1831503  55.4669666  79.5074129  37.7574754  54.8392248
  78.8091898  38.1909108  54.3430233  79.8407364  39.4508910  57.4305773
  80.6085873  38.7266994  58.0693436  78.6047602  39.7618365  57.8889179
  78.3880854  39.3461275  58.7835360  77.5777435  40.6083393  57.1934748
  77.9636765  41.1576271  56.3347340  76.3920975  39.6886086  56.8660355
  76.6791105  38.9398456  56.1277390  76.1354876  39.1348624  57.7691555
  75.1463747  40.4736519  56.4001131  75.3544998  41.6437292  56.0093737
  73.9750195  39.9559236  56.5234804  77.0723009  41.6344023  58.2115889
  76.6702509  41.3509607  59.3470430  77.2754478  42.9235888  57.8921652
  77.6330042  43.2455873  57.0041466  76.9998407  44.0712357  58.7842655
  76.6747713  44.9566317  58.2379150  76.1149788  43.9008141  59.3975210
  78.1642532  44.4597387  59.6938705  78.1859112  45.6795692  59.9937677
  78.8997316  43.4538603  60.1038170  78.6797619  42.5135469  59.8079681
  80.0444317  43.5877752  61.0288143  79.6491957  43.8986826  61.9958830
  80.7153511  42.1884155  61.1877298  81.4688015  42.0930052  60.4058552
  81.5783978  42.2760391  62.5279474  82.2590637  41.4261818  62.5782204
  82.0568371  43.2450819  62.6699018  80.9173012  42.0738029  63.3706570
  79.7853565  40.9160709  61.1906910  79.2597294  40.8493185  60.2381372
  80.5230713  40.1155758  61.1352253  78.6930275  40.7615805  62.2614670
  77.9670572  41.5664673  62.1464396  78.2343388  39.7765326  62.1755219
  79.1685152  40.7105303  63.2409668  80.9690475  44.6098328  60.4734898
  81.2912750  44.6079159  59.2501736  81.6629601  45.4157972  61.2797213
  81.3665199  45.4188347  62.2452354  82.9389095  46.0143900  60.9058285
  83.1878567  45.8672047  59.8548937  82.7517891  47.5455475  61.0852528
  82.3720741  47.6521444  62.1013975  83.6839581  48.1072617  61.0249043
  81.7104435  48.2127476  60.2415562  82.1529484  48.5651779  59.3098497
  80.8899784  47.5903177  59.8844433  80.9594536  49.3921423  60.8792830
  80.4277611  49.2073679  61.9780970  80.6812477  50.5336523  60.2782631
  80.1347351  51.1993980  60.8057165  80.9568501  50.7851887  59.3397093
  84.0331078  45.3783464  61.8126392  83.9175320  45.2074862  63.0176497
  85.1904392  44.9763298  61.1822891  85.2269936  45.1303959  60.1847792
  86.4191055  44.6743536  61.9130135  86.2401390  44.1655540  62.8602171
  87.2002411  43.7592030  60.9804344  87.2202110  44.1744709  59.9728394
  88.2582951  43.7343884  61.2412262  86.6893482  42.2544003  60.9627724
  86.7788219  41.9729233  62.0119905  85.6160164  42.2946358  60.7772112
  87.5135612  41.3366985  60.0384426  88.5736942  41.6240978  59.5359945
  87.0706749  40.1173496  59.7933006  87.6729107  39.5395565  59.2244673
  86.3088989  39.7414875  60.3396749  87.2583961  45.9660149  62.1399498
  88.2101536  46.2863111  61.4246559  86.8546391  46.6542101  63.2027817
  86.2066936  46.2732506  63.8774204  87.2191525  48.0033207  63.4566736
  87.2503757  48.5332108  62.5046587  86.0245323  48.6279392  64.2433500
  85.1541901  48.4107399  63.6241293  85.9782505  48.0884218  65.1893330
  86.2300205  49.6899843  64.3773079  88.5626221  48.0162764  64.1715813
  88.7448311  47.4514294  65.2172279  89.5279408  48.7156296  63.6074543
  89.2376900  49.2982912  62.8352070  90.7514477  48.9944887  64.3810844
  90.9498215  48.1035376  64.9768734  91.9511318  49.3411732  63.5521078
  91.9669342  48.8021374  62.6048517  91.8280411  50.3676701  63.2067776
  93.2665634  49.0372133  64.2994499  93.3605957  49.5913601  65.2333546
  93.1240749  48.0095148  64.6335649  94.4923401  49.2667055  63.4519815
  95.3296089  48.7955904  63.9668894  94.3649101  48.7899780  62.4800825
  94.8094082  50.8021593  63.2437325  93.9090633  51.3283110  62.9264688
  95.1231003  51.1896801  64.2130232  95.9691525  50.9530020  62.3595905
  96.6440105  50.2550793  62.6381111  95.7553864  50.8192158  61.3815784
  96.3863468  51.8580389  62.5237417  90.4353809  50.0094652  65.4837084
  89.8002338  51.0313940  65.1688528  90.7030010  49.6385622  66.7285490
  91.2798214  48.8216591  66.8701601  90.1846027  50.3527641  67.8946829
  89.8605442  51.3536644  67.6095772  88.9452171  49.6426392  68.5304356
  88.5861397  50.3217888  69.3036938  87.7670002  49.4808722  67.5491047
  87.9791451  48.4969807  67.1307135  86.7986679  49.4541931  68.0488253
  87.6817226  50.2203751  66.7528868  89.1833782  48.3132601  69.1192913
  89.6403122  47.5665379  68.4698963  89.7664452  48.4221745  70.0337648
  88.2060146  47.9659939  69.4543457  91.2614536  50.5459404  68.9970303
  91.8715096  49.5525694  69.4932461  91.3807869  51.7698860  69.4538641
  90.9442520  52.5347567  68.9593792  92.4707699  52.0346594  70.4460239
  93.1419945  51.1790609  70.5202293  93.3597660  53.1467724  70.0497150
  93.9270401  53.1018019  69.1200542  92.6999950  53.9583349  69.7428465
  94.2968655  53.6079216  71.2402344  93.7337780  54.3423414  71.8161249
  94.4491100  52.7466011  71.8906546  95.6043720  54.2622089  70.6905699
  95.6263351  54.9801254  69.7168732  96.7151260  53.8824654  71.2823248
  97.5925732  54.1936493  70.8907175  96.6990948  53.1590891  71.9869947
  91.8050194  52.2736835  71.8632603  91.0585117  53.2525015  72.0686150
  91.9871044  51.2992859  72.7354670  92.7380848  50.6660700  72.5005817
  91.5354729  51.2180996  74.1316509  90.4652500  51.3739204  73.9958668
  91.7286491  49.8412609  74.6966362  92.7918625  49.6850204  74.8790359
  91.2574768  49.6244621  76.1138153  90.1815605  49.7984266  76.0986280
  91.3512325  48.5826635  76.4203501  91.7756081  50.2421188  76.8474007
  91.4342785  48.6587477  73.7402344  92.2959137  48.5330915  73.0845785
  91.4728546  47.7460575  74.3348885  90.1391125  48.5471916  72.9578495
  89.4822788  47.9446745  73.5852671  89.7583199  49.5257616  72.6654339
  90.3156948  47.9756069  72.0466900  92.0198154  52.4180794  75.0080347
  93.0585384  53.0292988  74.6853209  91.2445164  52.7843523  76.0039806
  90.4202747  52.2183228  76.1465931  91.3857269  53.9080572  76.8520880
  92.4202919  54.2491484  76.8900013  90.5542469  54.9969912  76.2071371
  89.5706654  54.6239710  76.4926720  90.7864380  55.9039259  76.7654037
  90.6027031  55.4011488  74.6761179  90.6112480  54.4579506  74.1298485
  89.4787884  56.2295771  74.2238569  88.5309505  55.7012033  74.3264818
  89.6052265  57.1054983  74.8601532  89.5944595  56.4010000  73.1536531
  91.8598080  56.1581802  74.3738079  92.6725483  55.5791330  74.8122787
  92.0026970  56.3250971  73.3061790  91.9058800  57.0737314  74.9635077
  91.0487175  53.6590719  78.3363056  90.5379677  52.6221609  78.7198353
  91.4661121  54.5261192  79.3036366  92.1656418  55.8168077  79.1185570
  91.4378071  56.5859509  78.8601446  92.8394127  55.9049177  78.2662773
  92.9414082  56.1049938  80.4417896  93.1361866  57.1658516  80.5990791
  93.9393806  55.6756306  80.3533936  92.0323086  55.5054426  81.4788437
  91.3596535  56.2505484  81.9036388  92.6616669  55.2939796  82.3433018
  91.3676929  54.3220901  80.7927990  91.9727135  53.4912395  81.1557579
  89.9996567  54.1825056  81.3822842  89.1338158  55.0344276  81.0789776
  89.7918606  53.1187582  82.0749664  82.3776531  64.6706438 100.0042629
  83.3321381  64.4495678 100.2495956  81.8226242  63.8408804  99.8508644
  81.9463348  65.2265835 100.7288265  82.4179935  65.3714180  98.7107372
  83.1342125  66.1714649  98.8980198  82.8491974  64.4700432  97.5133610
  83.6910248  63.8376617  97.7953529  82.0139217  63.8067961  97.2886086
  83.2242298  65.2816391  96.2603760  83.4689045  64.7078228  95.3665257
  82.3806953  65.9265375  96.0141087  84.4225025  66.1786509  96.5370655
  85.5350399  65.6753397  96.2020874  84.2308807  67.2165775  97.2177696
  81.0952759  66.0479021  98.4406662  80.1318359  65.3722000  98.0252934
  81.0591125  67.3296309  98.5164070  81.8858528  67.7631092  98.9020157
  79.8345661  68.1150675  98.3893204  79.0680933  67.7890730  99.0924263
  80.1490974  69.5651150  98.5737705  79.1924381  70.0865698  98.5421085
  80.5401802  69.9308062  99.9819183  80.7547092  70.9839964 100.1632118
  79.6317101  69.7326803 100.5507183  81.2679482  69.2118740 100.3582191
  81.0431576  70.0997448  97.5215340  81.9127655  70.0941610  97.9281616
  79.1545916  67.9370832  96.9875908  77.9553032  67.8952312  96.8878078
  79.9181223  67.7703857  95.9159088  80.9070587  67.9499483  96.0151768
  79.4788504  67.4205923  94.5912266  78.8184166  68.1576586  94.1344357
  80.6950188  67.3160982  93.6558151  81.2117577  68.2666540  93.5234165
  81.3592625  66.5879822  94.1213608  80.2188492  66.7143059  92.2836113
  79.6935749  65.7598639  92.3186684  79.3711281  67.7403307  91.4943314
  79.1908598  67.3899078  90.4780674  78.5208321  67.9771852  92.1338749
  79.9995279  68.5881186  91.2214470  81.3807869  66.3641739  91.3795662
  81.7667866  65.4374456  91.8041611  81.0149860  66.0926008  90.3893375
  82.1527386  67.1337032  91.3773346  78.6237001  66.1543322  94.5678139
  77.4802446  66.1614370  94.0259457  79.0367222  65.0712633  95.1460838
  79.8685217  65.0221348  95.7168674  78.0952692  63.9351082  95.2250576
  77.8373957  63.6181688  94.2145348  78.8294411  62.8172922  95.9310722
  79.7944593  62.6844549  95.4419994  79.1053104  63.1388044  96.9353771
  78.1540775  61.4369440  96.0614967  78.7137270  60.8303785  96.7735195
  77.1296024  61.5204191  96.4242458  78.0447531  60.5701160  94.4699669
  79.8044157  60.5555487  93.8297462  80.0108528  61.2099743  92.9828644
  80.6117344  60.5877352  94.5613956  79.8649120  59.5417881  93.4338665
  76.8016863  64.2444944  95.9542942  75.7810211  63.8070393  95.4268742
  76.8552303  64.9784279  97.0791149  77.8021002  65.2798796  97.2598648
  75.5460596  65.4868793  97.7074242  74.9255562  64.6771288  98.0913258
  75.8931780  66.3635111  98.9648914  76.1707735  67.3535204  98.6030579
  75.0093460  66.5598822  99.5718288  76.9841480  65.8499336  99.9262238
  77.0468664  64.5723009 100.1226616  77.5232649  66.6765070 100.7008171
  74.5864201  66.2030125  96.7617416  73.3388805  66.0404921  96.7359352
  75.1754045  67.0416451  95.9368134  76.1638117  67.1851587  96.0870075
  74.4630909  67.7365637  94.8558617  73.6618376  68.1408644  95.4744434
  75.3633499  68.9096928  94.2656803  76.2569475  68.4839535  93.8092518
  74.8001146  69.3736124  93.4559631  75.7191896  69.9376059  95.3097248
  74.9815130  69.9507809  96.1120701  76.6469193  69.6512556  95.8051205
  75.9020567  71.4175081  94.8189163  75.0903702  71.6328526  94.1240120
  75.8215189  72.1574640  95.6152153  77.2049522  71.4741373  94.0421867
  78.0953312  71.1565971  94.3978405  77.3050737  72.1445656  92.9300499
  76.3354206  72.7933645  92.4177170  75.4322052  72.6541758  92.8477573
  76.4733076  73.2969761  91.5531635  78.5040617  72.2289991  92.3845959
  79.2646503  71.6015387  92.6034546  78.5525131  72.5014114  91.4132309
  73.8621998  66.7946196  93.7313747  72.7495289  66.9779158  93.2966995
  74.6680593  65.7863951  93.3616638  75.5475044  65.7928944  93.8582897
  74.3082333  64.7035789  92.3913956  73.9917183  65.0663424  91.4134789
  75.4861116  63.8704252  91.9720936  76.1229086  63.7145805  92.8428936
  75.0630713  62.4877262  91.4609146  75.8335686  61.9749308  90.8851719
  74.8576975  61.7242193  92.2112370  74.1404104  62.6076031  90.8930874
  76.4659595  64.5794487  90.9550476  76.4695311  65.6322861  91.2372208
  77.4911690  64.2181396  91.0356903  76.1222410  64.3810511  89.4659233
  75.0502729  64.4754267  89.2924976  76.6628313  65.1638794  88.9339066
  76.3017607  63.3636045  89.1185474  73.1341410  63.9087439  92.9828072
  72.1173286  63.7836647  92.2799397  73.1366301  63.5263348  94.2232895
  73.9969301  63.7353802  94.7093773  72.0590925  62.8392839  94.9720955
  71.7581034  61.9205523  94.4686604  72.5772285  62.4999809  96.4199638
  72.9792547  63.3919716  96.9004154  71.7752028  62.1195745  97.0525360
  73.4959793  61.3004589  96.3906670  72.9887295  60.3489542  96.2311840
  74.2425156  61.4911556  95.6196785  74.2372704  61.2706852  97.7744675
  74.9755907  62.0723867  97.7906704  73.4637356  61.3598537  98.5372162
  74.9074078  59.8825121  97.7777386  74.2181110  59.0733433  97.5364590
  75.6974220  59.7852373  97.0330811  75.4944134  59.6843004  99.1195297
  76.2267017  60.3248882  99.3906498  74.8015690  59.6344137  99.8527241
  75.9094238  58.7657690  99.0549850  70.7334900  63.6854696  95.0447559
  69.6802473  63.1852245  94.8155594  70.8373451  65.0052786  95.2469444
  71.7420340  65.3993559  95.4622364  69.7836542  65.9785700  95.2955627
  69.0517044  65.6212139  96.0198879  70.4999971  67.2742987  95.8922768
  71.0306644  67.0085382  96.8065357  71.1193848  67.7291918  95.1192760
  69.4920158  68.3944321  96.2233734  69.0787172  68.8003254  95.3000450
  68.7701797  67.9443073  96.9048691  70.1448059  69.6224499  96.9371128
  70.3560209  69.3124580  97.9605293  71.0608864  69.8393440  96.3877010
  69.3870497  70.8989239  96.9590092  69.9689293  71.7005491  97.4138927
  69.1536188  71.1674166  95.9287071  68.1172323  70.8236027  97.7815247
  68.2697582  70.4153204  98.6926460  67.6814222  71.7248440  97.9154205
  67.4973154  70.2035761  97.2801590  69.0794992  66.1842060  93.9162636
  67.8186512  66.3467216  93.8404465  69.8603392  66.1939287  92.8634644
  70.8491421  66.1833477  93.0690289  69.3772554  66.3372564  91.5600014
  68.5678244  67.0559454  91.6880989  70.3952074  67.0244503  90.6475639
  71.2557459  66.4010191  90.4048538  69.8937607  67.0435524  89.6799374
  70.5716419  68.5203791  91.1795712  70.5468941  68.4908533  92.2688866
  71.6236782  68.7259197  90.9819031  69.6730900  69.4809389  90.6482983
  68.6981153  69.2007732  89.9489117  69.9684048  70.7337713  90.9155655
  69.2871904  71.4679575  90.7851219  70.8721590  70.9622049  91.3043499
  68.8462973  65.0033855  90.9244061  67.8157568  65.0154495  90.2288818
  69.5148468  63.8711023  91.2787914  70.4185724  63.9676094  91.7193222
  69.1723299  62.4651337  90.8706570  68.7958527  62.4630594  89.8477364
  70.3809023  61.5828800  91.0565376  71.2005520  62.0753860  90.5333614
  70.6186056  61.4321375  92.1095657  70.3422832  60.1511717  90.5035877
  69.4935513  59.5530796  90.8353138  70.3263235  60.1643753  89.0109062
  69.4945145  60.7727671  88.6558533  71.1908627  60.7034016  88.6234474
  70.2643824  59.1785622  88.5499954  71.6066551  59.4255304  90.9933090
  71.4207125  59.2605352  92.0545864  71.6733503  58.4218740  90.5733871
  72.4879885  60.0515604  90.8538628  67.9341793  62.0755339  91.6143894
  67.3043299  61.1414623  91.1031246  67.5545263  62.7416229  92.6897430
  68.1700706  63.4239674  93.1087971  66.2661028  62.6076365  93.3436489
  66.1960077  61.6243553  93.8087845  66.1672878  63.7273216  94.4299126
  67.1419191  63.9637661  94.8568630  65.7740927  64.6651030  94.0374088
  65.1957273  63.2977104  95.5999851  65.5924320  62.4381971  96.1403179
  65.3113222  64.1359425  96.2870789  63.7311125  63.0528307  95.1877880
  63.8616562  62.0741129  94.7260952  63.0532074  62.9841805  96.0385704
  63.0668879  64.0934181  94.4063568  63.5468817  64.9374151  94.1281796
  61.7837286  64.1824770  94.0911293  61.2950754  65.2195597  93.6019707
  61.9678545  65.8732080  93.2275105  60.3363752  65.2975798  93.2939053
  60.9887791  63.1333685  94.1953468  61.4205551  62.2870159  94.5379066
  60.0270844  63.2721567  93.9196777  65.1928616  62.7740526  92.2557259
  64.1589975  62.1632147  92.3166561  65.4633808  63.6915541  91.3247776
  66.4076376  64.0482950  91.2899399  64.5306969  64.0395355  90.2233601
  63.5504246  64.0349388  90.6999588  64.7962999  65.4403877  89.7301006
  65.7059669  65.3446341  89.1372776  63.9778185  65.7290220  89.0706539
  64.9309111  66.5188313  90.8127785  65.8272791  66.2866306  91.3878536
  65.0138140  67.4831486  90.3114605  63.7276840  66.7333937  91.7622471
  63.7180901  66.3849306  92.9584408  62.6810169  67.1901989  91.2085915
  64.3190193  63.0204773  89.0650558  63.4679556  63.2031918  88.1259823
  64.9542904  61.8329334  89.0769577  65.5693674  61.5863228  89.8391724
  65.0989914  60.9021187  87.9707241  64.3963003  61.2598562  87.2181606
  66.5143871  60.8816385  87.4206448  67.2848797  60.5966234  88.1370354
  66.5870094  60.1014185  86.6629696  66.8342400  62.2129917  86.8159103
  67.1277523  63.3518791  87.4674702  67.2626114  63.5694218  88.5167027
  67.3735476  64.3543053  86.5871048  67.6077223  65.2723932  86.9369221
  67.0769835  64.0062809  85.2716923  66.9774675  64.6117353  84.0312004
  67.1802711  65.6717491  83.9906502  66.3229513  63.9444351  82.9732513
  66.0730505  64.6022367  82.1539593  66.1521769  62.5628853  82.9766083
  65.8315229  62.0002890  82.1122742  66.3929129  61.9558477  84.1997051
  66.3403749  60.8829117  84.3112373  66.8054199  62.6196957  85.3842545
  64.7494125  59.4976950  88.4780884  63.7132978  59.0060234  88.0129433
  65.5019331  58.8236475  89.3528557  66.2545586  59.3176985  89.8106480
  65.4577065  57.4023914  89.7585011  64.6936893  56.8879747  89.1756153
  66.7740965  56.7470884  89.3589783  67.0798397  57.2480392  88.4404659
  67.5633097  57.0921516  90.0269413  66.8155479  55.1611280  89.3791580
  65.8048534  54.5253563  89.1014957  67.8235388  54.6505785  89.8540974
  65.1518488  57.2863245  91.3366795  65.0830412  58.3123302  91.9980049
  64.9650717  56.0512924  91.8943882  64.9866772  55.2528143  91.2762833
  64.7068882  55.6724644  93.2909870  64.8203039  56.5320444  93.9515591
  63.3035183  55.0887394  93.4853458  63.2122374  54.2763853  92.7643394
  63.2327795  54.7637701  94.5233727  62.1322250  56.0813236  93.4164047
  62.3029280  56.8370581  94.1831112  62.2318745  56.5217495  92.4243355
  60.8234596  55.2978325  93.7357140  60.2455139  55.3118134  94.8421001
  60.2974892  54.6473074  92.7914143  65.7855368  54.7376394  93.9310837
  65.5876493  54.4406700  95.1106453  66.8658447  54.3391895  93.2409954
  67.0901394  54.7606611  92.3509598  67.7172184  53.3752918  93.7830257
  67.1421814  52.6069403  94.2998028  68.4790945  52.5711250  92.6634884
  68.9094877  53.2631302  91.9396114  69.2328262  51.9338751  93.1259823
  67.5038385  51.7182684  91.9545269  67.0007277  50.7446909  92.4620914
  67.2756481  52.0060730  90.6757355  66.7508125  51.3712311  90.0912476
  67.6328897  52.8697348  90.2929020  68.6841345  54.0497398  94.8010635
  69.4076061  55.0210714  94.4838905  68.7291241  53.4941149  96.0392094
  68.1620026  52.6792192  96.2247372  69.3342304  54.1736746  97.1749020
  69.2049646  55.2465391  97.0321846  68.5517502  53.9209461  98.4811497
  67.5220442  54.2522621  98.3468437  68.5199833  52.8542280  98.7029648
  69.1420746  54.5599413  99.7863865  70.2048397  54.3533754  99.9127102
  68.9032030  56.0435104  99.9244404  69.5017862  56.4823151 100.7227230
  69.1911268  56.6238976  99.0478802  67.8399324  56.2158108 100.0913811
  68.5095406  53.8883257 101.0477161  68.7045765  52.8162956 101.0762691
  68.9445448  54.3496656 101.9343090  67.4244165  53.9783239 100.9976196
  70.8447409  53.9511538  97.1929073  71.3715267  52.8601360  97.1059036
  71.6386938  55.0609970  97.0811844  71.1173534  55.9259892  97.0713615
  73.1045961  54.9721384  96.8009949  73.1300497  54.2996550  95.9435463
  73.7552929  56.2734461  96.2990570  73.0572987  56.7878437  95.6385231
  73.9859629  56.9972134  97.0807552  75.0271797  55.9839773  95.3965473
  75.6006622  55.1041269  95.6882381  74.7142553  55.8409548  94.3622684
  75.9693527  57.1927643  95.4661369  75.3450537  57.9579687  95.0048161
  76.0425806  57.4272680  96.5280914  77.2931194  57.1154928  94.7915554
  77.1684122  56.8454361  93.7429237  77.7840662  58.0838823  94.8879910
  78.1601524  56.1243343  95.4188728  78.1641626  55.2353907  94.9394417
  79.0954447  56.5053892  95.4300785  77.8751278  55.8963776  96.3606262
  73.9011145  54.3333673  97.9611874  74.9008989  53.5980749  97.7678680
  73.2842159  54.5120144  99.1610909  72.5159645  55.1674700  99.1446400
  73.6142921  53.7767410 100.4137230  74.7006845  53.7083149 100.4700947
  73.0118799  54.5603323 101.5870571  71.9566917  54.7088385 101.3576508
  73.1674814  54.0405941 102.5324440  73.5284901  56.0063410 101.7844296
  72.7474356  56.9448948 102.0755863  74.6819401  56.2631702 101.7178822
  73.2433510  52.3128319 100.3747940  73.5728836  51.6294193 101.3014793
  72.5056934  51.7343664  99.3604088  72.2689199  52.3292780  98.5793114
  72.0568609  50.3399134  99.3043327  72.5531483  49.8677254 100.1521778
  70.5783987  50.3370142  99.7458744  70.3741503  50.9615088 100.6155872
  69.9539852  50.7643986  98.9613056  69.9972057  48.9474916  99.9631119
  70.5266857  48.1340694 100.7465839  68.8345957  48.7239790  99.5208168
  72.4850607  49.6157837  97.9656696  73.2675076  48.7051153  97.9613113
  71.8503046  50.0152254  96.8947697  71.4681816  50.9500504  96.8813419
  71.7774439  49.2454338  95.5910397  72.3494148  48.3253193  95.7107544
  70.3200388  48.8499928  95.3278828  70.2696657  48.2793140  94.4005775
  69.9464941  48.3180094  96.2028408  69.5902443  50.1073265  95.1209068
  69.1581774  50.2998686  95.9562874  72.4277449  49.8707533  94.2630672
  72.3212814  49.3652868  93.1283283  73.1397438  50.9979534  94.5423031
  73.3284760  51.1809063  95.5175018  74.1504240  51.4834213  93.5154819
  74.0706253  50.8588648  92.6257324  73.8078308  52.9416132  93.1974792
  74.0254068  53.5602283  94.0681648  74.4983721  53.3318138  92.4498177
  72.3200369  53.2611275  92.7965069  71.6202164  52.9638529  93.5775185
  72.1594000  54.7774744  92.4980450  72.4011564  54.9005175  91.4423370
  71.0971069  54.9726629  92.6447773  72.7867317  55.3185940  93.2063961
  72.0056057  52.4397469  91.5169144  71.8808699  51.3772345  91.7257500
  71.0866690  52.8885603  91.1397934  72.8421259  52.7512455  90.8913708
  75.6233692  51.4359570  93.9443874  75.9130430  51.4801788  95.1081944
  76.6606426  51.3838816  93.0595303  76.5438557  51.2196779  91.5892696
  76.0593939  52.0973492  91.1613846  75.8965731  50.3650999  91.3922215
  77.9847765  50.9120226  91.0913849  78.2743263  51.0836220  90.0546551
  78.1095409  49.8456764  91.2796307  78.9184856  51.6059542  92.0908260
  79.1687393  52.6577330  91.9521332  79.8145056  50.9893942  92.0194149
  78.0956316  51.3782120  93.3484268  78.3987331  50.3820324  93.6707020
  78.5477018  52.4105978  94.3998623  78.2786989  53.6120749  94.3588638
  79.2509794  51.9927979  95.4555702  79.3424702  50.9891129  95.5215263
  80.0621605  52.8580999  96.3548660  79.4242716  53.6294746  96.7863464
  80.5735683  52.0763826  97.5547886  79.7386503  51.6610289  98.1191540
  81.1809254  51.2707567  97.1422672  81.2919617  52.8823471  98.4537220
  81.7915249  52.2459602  98.9704895  81.1485291  53.5569000  95.5711365
  81.3314152  54.7679615  95.7106018  81.8545437  52.7951050  94.7105694
  81.5841198  51.8223000  94.6856308  82.8926468  53.2896423  93.8185692
  83.6786079  53.5674620  94.5208454  83.3457661  52.1122789  93.0000019
  83.6549854  51.2378931  93.5726643  82.5435829  51.6433239  92.4302006
  84.5095348  52.4214411  92.0544434  84.4514370  53.3709145  91.2774277
  85.5475521  51.6265821  92.0057583  86.3093567  51.8529844  91.3824558
  85.5438614  50.7475138  92.5030804  82.4664116  54.4442701  92.9380608
  81.3712788  54.3760681  92.4114799  83.2357502  55.5225754  92.8108120
  84.4984722  55.7270813  93.4771347  85.1910496  54.9144793  93.2578278
  84.3592739  55.6714201  94.5567799  85.0262833  57.0729160  93.0317307
  85.7219601  57.0321655  92.1935940  85.5761147  57.5184870  93.8607407
  83.7801075  57.8956223  92.7514458  83.9557934  58.7247515  92.0660400
  83.3641911  58.2381821  93.6989498  82.8274536  56.7928696  92.2259235
  81.7710495  56.9745922  92.4236298  83.0024052  56.6349602  90.7149982
  82.3021412  57.3601055  90.0101852  83.9177322  55.8008814  90.1658630
  84.4015598  55.2361822  90.8493233  84.0347004  55.6045580  88.7458134
  83.9311314  56.6050720  88.3258820  85.4868984  55.1389456  88.3967113
  85.7474804  54.2843056  89.0210438  85.6302357  54.7506809  86.8759441
  86.5806007  54.2708015  86.6422272  84.8455811  54.1057110  86.4804173
  85.7827091  55.6828165  86.3319111  86.5963745  56.1628008  88.7130833
  86.4442062  57.0390368  88.0828857  86.5052986  56.5933752  89.7102928
  88.0036259  55.5652571  88.7938213  88.8213825  56.2273264  89.0784836
  87.9659748  54.7441483  89.5096874  88.1585979  55.1174593  87.8122139
  82.9868317  54.5994616  88.2151127  82.2786140  54.9468517  87.3046780
  82.7063942  53.4657335  88.8674068  83.2275105  53.3110523  89.7186470
  81.6250706  52.6066637  88.5361671  81.6361523  52.3170471  87.4854088
  81.6027164  51.3267088  89.3303299  81.3638496  51.5596151  90.3680229
  80.7045841  50.8266640  88.9678001  82.8497601  50.4006338  89.2980862
  82.8409767  49.4696379  90.1528740  83.7331009  50.5437040  88.4044170
  80.2721119  53.3150482  88.6095333  79.5054245  53.3388519  87.6542664
  80.0148201  54.0989256  89.6908665  80.7771301  54.1653633  90.3500843
  78.8830328  54.9998808  89.8191833  77.9947424  54.3688679  89.7896767
  78.7777424  55.5621529  91.1854362  78.6388063  54.7374773  91.8845081
  79.7295856  56.0088825  91.4727116  77.6359415  56.5519857  91.3654137
  77.9963207  57.9753494  91.4587498  79.0214491  58.3124828  91.5018940
  76.9319344  58.9016151  91.5929794  77.1068382  59.9571228  91.7403126
  75.5872297  58.4325314  91.6029739  74.7808695  59.1402340  91.7268658
  75.3034306  57.0548201  91.5217400  74.3156815  56.6193151  91.5546513
  76.3123417  56.0773420  91.4489555  76.1059523  55.0172853  91.4581966
  78.7136936  56.1496925  88.7790585  77.6573277  56.3956070  88.1912422
  79.8992252  56.7074108  88.3271694  80.7231331  56.4047241  88.8268280
  80.0045395  57.5632238  87.1952248  79.3855429  58.4426832  87.3726940
  81.3452435  58.0922699  87.0870209  81.6160679  58.6112309  88.0064964
  81.9498634  57.1949577  86.9552612  81.5575123  58.9548922  85.9903240
  81.9711876  59.7613049  86.3068104  79.3872690  57.0296431  85.8377934
  78.5875607  57.7080154  85.1993084  79.8696756  55.8882618  85.4013252
  80.7467937  55.5075693  85.7266617  79.2081976  55.1751518  84.2382240
  79.1325426  55.9594154  83.4850216  80.2326870  54.1884041  83.7362862
  80.4689407  53.4509993  84.5034409  79.8176146  53.5148287  82.9865456
  81.5078449  54.7940588  83.1670570  81.4412975  55.6977510  82.0776463
  80.5049038  56.0325241  81.6563511  82.6604843  56.3348389  81.6205788
  82.5957108  57.1037579  80.8649445  83.8996410  56.0882616  82.2346401
  84.9964142  56.8653011  81.9195080  85.7297325  56.7642975  82.5307846
  83.9198303  55.1930571  83.2934093  84.8164845  55.0691986  83.8825417
  82.7464485  54.5835543  83.7891102  82.8373241  53.8232803  84.5507717
  77.8032970  54.6724129  84.3916702  77.1259499  54.4667339  83.3876801
  77.2744560  54.4472218  85.5734921  77.8689766  54.2604685  86.3683319
  75.8268356  54.1580772  85.7799435  75.5500507  53.3900595  85.0576878
  75.7445717  53.4929466  87.1780586  76.4709282  52.6826382  87.2406006
  75.9787416  54.3194723  87.8489685  74.3691063  53.0835390  87.3619461
  73.8459110  51.8122721  87.2878933  74.3388939  50.8868933  87.0289421
  72.4547052  51.9151402  87.4099064  71.9140339  51.0637665  87.4641800
  72.0592070  53.1458664  87.8073597  70.8256817  53.6785078  88.1056404
  69.9611998  53.0327129  88.0605221  70.7868528  54.9287653  88.6573601
  69.8352957  55.3117847  88.9953423  71.9306803  55.7671499  88.7601471
  71.7958784  56.7526531  89.1808701  73.1830502  55.2702618  88.3709908
  74.0411854  55.9233379  88.3118820  73.2614994  53.9088297  87.9124355
  74.9474573  55.3950834  85.4773998  73.8927603  55.3174019  84.8275280
  75.3937674  56.6483927  85.7426262  76.2814379  56.6643095  86.2241745
  74.6842861  57.8832340  85.2913380  73.6166191  57.7347231  85.4529762
  75.1971149  59.0577745  86.0532284  76.2738132  59.1406631  85.9050560
  74.6230412  60.3806210  85.6289482  74.9680805  60.5060911  84.6026421
  73.5402346  60.2573919  85.6499386  74.9603510  61.2367487  86.2132263
  74.9021244  58.8598108  87.5690079  73.8480091  58.9549589  87.8295517
  75.2747822  57.9059505  87.9423523  75.5770588  59.5450115  88.0819130
  74.8357058  58.0275202  83.7608051  73.8962412  58.4747744  83.1194210
  76.0210323  57.8483009  83.2241154  76.8660784  57.7333450  83.7652206
  76.2241650  57.8473663  81.7295837  75.8831549  58.8216782  81.3795376
  77.7562618  57.7439547  81.4415455  77.8805733  58.2790089  80.5000687
  78.2788897  58.1544209  82.3055363  78.1201220  56.7500257  81.1811447
  75.4041052  56.7952585  80.9988117  75.2012968  56.9118786  79.8151588
  74.9404144  55.7448864  81.7439270  75.2214670  55.7408142  82.7140331
  74.1048002  54.5928812  81.2784481  74.3652868  54.3934011  80.2390003
  74.5355701  53.4051132  82.1281624  73.9853764  52.5219154  81.8035984
  75.5913067  53.1682301  81.9962025  74.2429733  53.5475159  83.1684589
  72.5779200  54.7641277  81.2124348  71.8856525  53.9860106  80.5565453
  72.1566296  55.7686472  81.9765568  72.8248596  56.3469791  82.4655342
  70.7236528  56.0303688  82.4041748  70.0771332  55.4600477  81.7372036
  70.5281496  55.5820704  83.8509464  71.2589502  56.0240555  84.5282078
  69.5915174  55.9049368  84.3054676  70.5122519  54.0556622  83.9147758
  69.7958755  53.4309006  83.1744766  71.4816809  53.4416437  84.6091270
  71.7029285  52.4722815  84.4316864  72.2828960  53.9210939  84.9942017
  70.2358961  57.4828768  82.1654415  69.0377712  57.6845694  82.0607281
  71.1593580  58.4394693  82.0376396  72.0889139  58.0457163  82.0689869
  70.7680035  59.8335743  81.7420769  69.7798586  59.9701929  82.1813965
  71.8561983  60.7359552  82.4275875  72.0081711  60.3195429  83.4233761
  72.7195120  60.5478811  81.7892838  71.6523361  62.3060083  82.3962975
  71.5703678  62.7173424  81.3902187  70.4564238  62.8540087  83.2499504
  70.4890728  63.9408875  83.1742287  69.4611692  62.6414156  82.8595829
  70.6082392  62.5018406  84.2702579  72.7955627  62.9102707  83.1427193
  72.9092121  62.4655676  84.1313648  73.7104368  62.7722836  82.5664711
  72.6616096  63.9919615  83.1533813  70.5481529  59.9961138  80.2052402
  71.4315987  59.7159624  79.4739056  69.4354963  60.5830765  79.7409725
  68.2720137  61.0409021  80.4772949  68.6533022  61.7180586  81.2416077
  67.8458500  60.1503277  80.9392071  67.3173714  61.6582727  79.3548965
  67.6387453  62.6782036  79.1438007  66.2787151  61.6643238  79.6854401
  67.6485443  60.6780195  78.1701756  67.2741413  61.0142851  77.2032928
  67.2418499  59.6852207  78.3626461  69.1702175  60.6160545  78.3199739
  69.5071745  59.6784306  77.8779078  69.9609184  61.6675329  77.4788284
  69.2613506  62.3927259  76.7571926  71.3015413  61.6607475  77.5425816
  71.6708422  60.9744263  78.1849813  72.1590376  62.5448370  76.7149162
  71.7938089  63.5625029  76.5768337  73.4998560  62.7169895  77.4827528
  73.8379288  61.7315054  77.8031015  74.5985746  63.2902002  76.5572023
  75.5386209  63.6228848  76.9973612  74.8740625  62.5691557  75.7875872
  74.2080641  64.1891909  76.0803175  73.4025478  63.7728119  78.6083555
  73.2060099  64.7907162  78.2717037  72.5049591  63.4137392  79.1118479
  74.5233250  63.6692190  79.6320105  74.6498871  62.6187801  79.8940516
  75.4368925  64.0954304  79.2174768  74.2664576  64.3090534  80.4762459
  72.2963524  61.9017601  75.2744865  72.4573231  60.6955099  75.1286316
  72.0308304  62.7188540  74.2839003  71.6522980  63.6325312  74.4888639
  71.8717289  62.2937632  72.8701591  71.2708759  61.3843441  72.8639269
  70.9846020  63.3536482  72.1025133  70.1109648  63.6390495  72.6885176
  71.5663052  64.2678547  71.9844055  70.4862022  62.7225065  70.6880283
  70.3325891  61.4666462  70.6268692  70.1245022  63.4318638  69.7728395
  73.2133675  62.1515942  72.2132587  74.2309427  62.7322817  72.6201391
  73.2922697  61.1883450  71.2367964  72.4269819  60.7823801  70.9103537
  74.5876884  60.8399534  70.5333710  75.0745869  60.1071358  71.1768007
  74.2116785  60.1651239  69.2296696  74.0399551  60.8318138  68.3845997
  75.1286459  59.6604919  68.9253235  73.2043266  58.9964628  69.2312765
  72.2132969  59.0588808  68.5614491  73.3762503  58.0667353  70.0434637
  75.5783224  61.9511318  70.2704716  76.7432737  61.8156195  70.5803823
  75.1809978  63.1560612  69.7733212  74.2135239  63.3188772  69.5333576
  76.0723209  64.2591333  69.3708229  76.8591022  63.7888861  68.7809563
  75.1934433  65.2950954  68.5249758  75.8146906  66.1221695  68.1813240
  74.7712564  64.7477531  67.6821995  74.1344595  65.9072447  69.2775393
  73.4967709  65.1952505  69.3671083  76.7919493  64.9609423  70.5620527
  77.8257847  65.6348562  70.3690243  76.2569666  64.7793865  71.7854261
  75.4252148  64.2187452  71.9036484  76.9300461  65.0495005  72.9923010
  77.8370333  65.6234360  72.8023863  75.9636593  65.9059000  73.9215279
  75.5887461  66.7313910  73.3164597  75.1071835  65.2650499  74.1309786
  76.4994955  66.4532423  75.2912092  76.9493294  65.6132889  75.8205795
  77.6139259  67.5070858  75.1955462  77.8777838  67.9140377  76.1716986
  78.4177303  66.9229650  74.7474384  77.2485876  68.2363653  74.4725132
  75.3365660  66.9802332  76.0478592  74.5057726  66.2757540  76.0079479
  75.6805086  67.1676731  77.0650482  75.0594616  67.8971481  75.5276871
  77.4668550  63.8044596  73.7345171  78.5201502  63.8477182  74.3636465
  76.8631840  62.6282787  73.6641598  75.9731197  62.6133156  73.1870127
  77.3623466  61.3889265  74.2710733  77.5908995  61.5762758  75.3202486
  76.2921143  60.2748823  74.1444874  75.2769089  60.6474400  74.0079069
  76.4493275  59.7584152  73.1975698  76.3066387  59.2176104  75.2514219
  75.8341646  58.3802891  74.7378445  77.3211670  58.8995790  75.4916286
  75.5207348  59.7062111  76.4917707  76.2196970  60.2277803  77.1456146
  74.6937656  60.3683901  76.2353325  74.9235630  58.5863638  77.2629976
  75.3086233  58.3249807  78.1593847  73.8954830  57.8827620  76.8693256
  73.1528664  58.1039476  75.8470583  73.2135725  58.9994335  75.3839016
  72.3452950  57.5110579  75.7189322  73.4687090  56.8828583  77.5473785
  73.9902163  56.6949701  78.3916712  72.6024771  56.4216948  77.3084879
  78.7267733  60.9944153  73.7610054  79.5307255  60.6909895  74.6720982
  79.1467381  61.1134338  72.4824572  78.5017633  61.4272451  71.7713785
  80.5274105  60.8454275  72.0263481  80.7836056  59.8043060  72.2226667
  80.5122280  60.9684896  70.4709339  79.7503662  60.2504158  70.1675749
  80.1874638  62.3273087  69.8049259  79.2801476  62.6919270  70.2865028
  80.9993458  63.0135536  70.0458193  80.0756359  62.1655655  68.7328100
  81.9624043  60.6150723  70.0420046  82.5698185  61.5182924  70.0998402
  82.5185490  59.8726511  70.6143856  81.9260883  60.2312088  68.5538864
  81.3277435  59.3510723  68.3184052  81.4700890  60.9863281  67.9136038
  82.9198742  59.9052763  68.2468748  81.5231895  61.8464804  72.6482391
  82.5673676  61.3520050  73.0686045  81.2580395  63.1583595  72.8489733
  80.3389454  63.3735371  72.4897194  82.1386433  64.1417408  73.4551954
  83.1442165  64.0633917  73.0419350  81.6928005  65.5807972  73.1615639
  80.7125282  65.8058548  73.5816908  82.3456383  66.2506962  73.7211466
  81.7253876  65.9097576  71.6662550  82.8007412  65.9282303  71.4891338
  81.3359070  65.0535583  71.1154985  81.1702728  67.2790527  71.2975168
  81.6359997  68.3564091  71.5014124  80.0168324  67.3436975  70.7181549
  79.7158384  68.2717800  70.4570580  79.4894600  66.5598869  70.3609085
  82.3575878  63.9377499  74.9850655  83.4681988  64.1428232  75.4331017
  81.3462639  63.6614227  75.7630062  80.5758286  63.4016895  75.1637840
  81.4511681  63.2908821  77.1725035  82.1153069  64.0134048  77.6468277
  80.0846195  63.3830786  77.9012585  79.3632793  62.8346491  77.2954559
  80.0997829  62.9495478  78.9012146  79.4685793  64.7845936  77.9352713
  79.1156244  64.9341679  76.9149017  78.2695246  64.7620964  78.9143419
  77.7445078  65.7133436  78.8272190  77.6386499  63.9226389  78.6221027
  78.6080980  64.7195911  79.9495506  80.5508614  65.8530521  78.3607292
  79.9370575  66.7202139  78.6043787  81.0306263  65.4867363  79.2683268
  81.2708378  66.0183287  77.5592232  82.1541691  61.9681978  77.3810673
  83.0027485  61.8764496  78.2816982  81.8391132  60.8751726  76.6389894
  81.0579681  60.9038258  75.9993839  82.5937271  59.6914196  76.8311119
  82.6389217  59.5094776  77.9048681  81.8738365  58.4971714  76.1473608
  81.9824123  58.7293434  75.0879240  82.4664497  57.5945711  76.2964725
  80.4559708  58.0556440  76.5184212  79.7501755  58.7953186  76.1404753
  80.1775932  56.8059206  75.7325029  79.1504717  56.5074730  75.9423828
  80.2536678  56.9219637  74.6513653  80.9158325  56.0357428  75.9559393
  80.1979351  57.7619934  77.9966784  80.7762623  58.4908867  78.5644436
  79.1191339  57.8102493  78.1448746  80.4377651  56.7259979  78.2360458
  84.0781307  59.6822214  76.5752506  84.8154068  58.8088751  76.9680786
  84.5313263  60.5982971  75.7382822  83.9319992  61.2759876  75.2892447
  85.9547710  60.8024883  75.3304529  86.4554501  59.8456192  75.1827288
  85.8716011  61.4398479  73.9226294  85.2613258  60.6748199  73.4426212
  85.3713226  62.4040699  74.0126371  87.2571850  61.5840435  73.2682037
  87.7140999  62.4779797  73.6927128  87.9289818  60.7717800  73.5457230
  87.0565319  61.6656876  71.8102217  86.7403603  60.6649590  71.5157986
  86.3655758  62.4473190  71.4944220  88.4835339  61.7692327  71.1400032
  89.1295147  62.5424528  71.5558481  88.9657307  60.8004379  71.2704706
  88.3288193  62.0568991  69.6706533  87.6808548  62.8015089  69.4566393
  89.1422176  62.5570107  69.3414545  88.1900978  61.2325239  69.1038609
  86.8461132  61.5887451  76.3646555  88.0763721  61.5623093  76.2589598
  86.2691021  62.0818281  77.4852991  85.2748680  61.9131756  77.5415802
  86.9780827  62.5991726  78.7004566  87.9495239  63.0060673  78.4196663
  86.0623264  63.6030817  79.4587421  85.1414013  63.0430365  79.6210527
  86.7136383  64.0894604  80.7891083  86.1342716  64.9627399  81.0888004
  86.7990494  63.3432293  81.5790081  87.7395630  64.3726015  80.5537224
  85.7327938  64.7890043  78.5510683  86.5899467  65.4603958  78.6023283
  85.6392384  64.4905901  77.5068951  84.5248795  65.6477928  79.0560818
  84.7799587  66.2085247  79.9553204  84.2052555  66.2640429  78.2157373
  83.6034203  65.0990009  79.2505980  87.2448063  61.4309216  79.6908474
  86.3059235  60.7237959  80.1718426  88.5131550  61.1931324  79.9441004
  89.2123795  61.7525959  79.4769907  89.1080189  60.0941992  80.7461834
  88.6542606  59.1514301  80.4405785  90.6312847  60.0023270  80.4606819
  91.1466217  60.9042978  80.7908058  90.9364510  59.2030191  81.1360168
  90.9388161  59.6434879  79.0366173  92.0994854  59.9692965  78.5962248
  90.1536083  59.0524197  78.3063078  88.8010406  60.1838684  82.2377872
  88.5001469  59.1467857  82.8316975  88.7380219  61.4553833  82.7243042
  89.0985775  62.1403599  82.0755291  88.3136368  61.8195963  84.0578556
  88.7667751  61.0821486  84.7203827  88.6574078  63.2589674  84.5491695
  89.6909714  63.5058308  84.3064785  88.0715084  63.9998055  84.0051270
  88.5839462  63.3157396  85.9910965  88.9410305  64.1835213  86.1936951
  86.7933178  61.6899538  84.3039608  86.0715199  62.7220440  84.2888165
  86.3547802  60.5593729  84.8133469  87.0014763  59.8727369  85.1744747
  84.9368095  60.2510452  85.0293255  84.4054508  60.4670095  84.1024399
  84.8545551  58.7432289  85.4712582  85.3963757  58.2180834  84.6846485
  85.3219414  58.5474110  86.4363003  83.8756847  58.2644272  85.4967594
  84.2504215  61.0975838  86.0730267  82.9816532  61.1823797  86.0951424
  85.0149822  61.6895247  86.9784069  85.9946251  61.4450312  86.9534016
  84.5576096  62.5738955  88.0113411  83.5613155  62.2440672  88.3058167
  85.3840351  62.4322081  89.2893600  86.4099789  62.5303888  88.9345551
  85.1361561  63.5111189  90.2945423  84.0994263  63.4894419  90.6304359
  85.8122921  63.5449505  91.1488247  85.3421974  64.4729710  89.8249817
  85.1843166  61.1041307  90.0962448  85.9392929  61.0629129  90.8813572
  84.2701721  61.1435223  90.6886005  85.2321625  59.7997952  89.3348789
  84.3054199  59.5839930  88.8032055  86.0133076  59.7900677  88.5747337
  85.3260326  59.0160799  90.0866032  84.4419193  64.0463305  87.4610806
  83.4907627  64.6319103  87.9140663  85.3004456  64.5834637  86.6244602
  86.1614513  64.0945530  86.4251614  84.9898338  65.8124018  85.8498478
  84.6995258  66.5932178  86.5528107  86.2246037  66.2173319  85.0807095
  87.0658493  66.3544369  85.7601261  86.4904976  65.3776455  84.4385815
  86.0759544  67.3935843  84.0831566  87.1103668  67.6072216  83.8139629
  85.4184628  67.2213984  83.2310104  85.6399441  68.7235355  84.6543121
  85.5763817  68.9231253  85.8776093  85.4009533  69.6904469  83.7500858
  84.9671268  70.5811214  83.9465427  85.5946827  69.4985580  82.7775955
  83.8353539  65.5902386  84.8085880  83.0798626  66.5647888  84.5357323
  83.6397076  64.4148588  84.1353416  84.2823982  63.6422539  84.2359638
  82.5202656  64.2212343  83.2670116  82.5651550  65.0324440  82.5403595
  82.4914551  62.8731346  82.5164986  83.5050106  62.6945877  82.1574402
  82.1640015  62.0475578  83.1484032  81.6778564  62.7708912  81.2474823
  80.6424332  63.0698872  81.4105511  82.1791840  63.3454895  80.4686260
  81.5256119  61.3349438  80.7535362  80.9201813  61.2539625  79.8507643
  82.5131130  60.8910131  80.6275749  80.6797600  60.6159115  81.7083359
  79.6948433  60.8349848  81.6630459  80.9196377  59.7949696  82.7194595
  82.1082115  59.2807150  82.9868603  82.8636932  59.4911003  82.3503971
  82.3499393  58.6378860  83.7274361  79.9360180  59.6090364  83.5429382
  79.0910244  60.1510048  83.4317780  80.1039219  59.3299580  84.4989872
  81.1756992  64.2608452  84.1287422  80.2476215  64.8569727  83.6560249
  81.2371922  63.6913681  85.4255581  82.0487022  63.1034136  85.5514812
  80.1097012  63.5662985  86.3618374  79.2459154  63.1579447  85.8372211
  80.3783703  62.5795984  87.5501060  80.6544590  61.6321230  87.0873260
  81.2353134  62.8816366  88.1522083  79.2981339  62.3622847  88.6262321
  78.9733553  63.3131170  89.0487766  78.0669928  61.6222620  87.9907799
  77.4457645  61.1662722  88.7616539  77.5161123  62.3083925  87.3474598
  78.4713173  60.8362532  87.3529720  79.6724510  61.4203835  89.8198509
  80.6502724  61.7818213  90.1381588  78.9323139  61.4935923  90.6166840
  79.7352219  60.3694201  89.5376396  79.7443914  64.9507904  86.8973827
  78.5876417  65.2674580  86.9810009  80.7413578  65.7908440  87.2699833
  81.6964817  65.4684353  87.2076416  80.4735470  67.2381020  87.5373363
  79.6796799  67.2927856  88.2822514  81.8089104  67.8426552  88.0412865
  82.1042347  67.2458458  88.9042473  82.5949287  67.7906275  87.2879124
  81.7692471  69.1828060  88.7303543  81.7822170  69.9767828  87.9836750
  80.9192371  69.2686462  89.4072628  82.9373169  69.4500113  89.6447182
  82.7727222  70.3575850  90.2255154  83.0851269  68.6785555  90.4004288
  84.2115211  69.4463825  88.9298820  84.2657280  69.4349670  87.9214001
  85.3822041  69.4578600  89.4411755  85.6147957  69.7709322  90.6299973
  84.7768593  69.9847603  91.1517620  86.5814400  69.8730087  90.9043598
  86.3533974  69.4565344  88.6150932  86.1630058  69.2224264  87.6512241
  87.3230267  69.5237446  88.8896847  79.9926281  68.0864859  86.3677788
  79.5243692  69.2076015  86.5916920  80.1169205  67.5647593  85.1183796
  80.6738949  66.7461395  84.9190235  79.5004463  68.1821537  83.9272976
  79.3988991  69.2674017  83.9314270  80.4280090  67.9239416  82.7131844
  80.7016563  66.8754292  82.5955486  79.8622227  68.3093786  81.8649960
  81.7903042  69.0611553  83.0587482  82.3320293  68.4066296  84.0897846
  78.1156921  67.6142263  83.6600113  77.2106266  68.3915138  83.4553719
  77.8855944  66.2964201  83.8770103  78.6736727  65.6992006  84.0828323
  76.5931368  65.6119823  83.8696480  76.1984253  65.7872772  82.8688622
  76.6920900  64.1335678  84.0975666  77.3473740  63.9945793  84.9574375
  75.7347059  63.6597538  84.3143845  77.2132730  63.3818769  82.8231525
  76.4428043  63.3719110  82.0521927  77.9181004  64.0731716  82.3611546
  77.7083445  61.9695234  82.9652500  77.9526329  61.5456820  84.1215038
  78.0595160  61.3742018  81.9180012  75.5729818  66.1600828  84.8262882
  74.3547535  66.0612297  84.5715427  76.0353327  66.6353607  85.9784222
  76.9817162  66.3763666  86.2179756  75.3066397  67.3727226  87.0674610
  74.6354914  66.6002941  87.4429989  76.2662697  67.9836273  88.1094646
  76.8752956  67.1263218  88.3961964  77.0178795  68.6564255  87.6965141
  75.5156422  68.7329865  89.2211723  75.0740957  69.6720505  88.8875675
  74.2956209  68.0263567  89.8879910  74.5331049  66.9891882  90.1246262
  73.9955711  68.5146761  90.8151436  73.4622574  68.0133867  89.1855335
  76.5230465  68.9722919  90.3665352  77.3481560  69.6049452  90.0393581
  76.0211039  69.4407988  91.2130833  77.0058966  68.0484915  90.6852055
  74.5870781  68.6572504  86.4334297  73.5115433  69.0037251  86.9858646
  75.2334213  69.3890810  85.4524803  76.1255074  69.0531588  85.1186657
  74.6359444  70.5912542  84.7515202  74.2710543  71.2680960  85.5240822
  75.6226063  71.3877583  83.9518356  76.0142756  70.7055855  83.1972980
  75.0597286  72.1926403  83.4791470  76.6787291  72.0986223  84.7671413
  77.6958704  72.6326704  84.2440796  76.4534378  72.3411179  85.9773445
  73.4692240  70.2699232  83.8010788  72.4911165  71.0332537  83.8212490
  73.5521841  69.0385866  83.1780052  74.4929552  68.6736107  83.1349850
  72.4935532  68.4621906  82.3642540  72.1616793  69.2880535  81.7350388
  73.1078434  67.3229551  81.5722370  73.7181044  66.6241646  82.1444035
  71.9713879  66.5697718  80.8798409  72.2825480  65.6434488  80.3969288
  71.2409878  66.2473679  81.6219139  71.4537907  67.2033072  80.1595497
  74.0510893  67.6934862  80.4065990  74.4230270  66.7823839  79.9379110
  73.5513926  68.1958437  79.5783138  75.2449608  68.6266184  80.6010723
  75.8943987  68.1221724  81.3165092  75.7563400  68.7993765  79.6541023
  74.9847984  69.5972824  81.0232544  71.3850355  68.0298376  83.3324337
  70.2858829  68.5294628  83.1041813  71.7749548  67.2776031  84.3630219
  72.7722549  67.1979761  84.5014477  70.8064747  66.6561413  85.2953053
  70.1929903  65.9704113  84.7109032  71.7286015  65.7525539  86.2842464
  72.3391628  65.1089668  85.6509113  72.3673296  66.4778900  86.7882442
  70.9966516  64.9912691  87.3347950  70.4260445  65.6967497  87.9387856
  70.2857018  64.2994404  86.8830872  72.0674706  64.1194773  88.5295677
  73.1049490  63.1728506  87.3436928  72.3297548  62.8777790  86.6365147
  73.8412428  63.8451529  86.9032574  73.6516619  62.3933506  87.8743458
  69.9784136  67.6890278  86.0568905  68.8076115  67.5764418  86.3309193
  70.5847931  68.8625526  86.2660694  71.5447998  69.0340042  86.0032177
  69.8794889  70.0826073  86.7809105  69.3844414  69.7906542  87.7070808
  71.0397100  71.0510445  87.3553371  71.4848328  70.5458593  88.2125187
  71.7439985  71.2109900  86.5389442  70.6173086  72.4625397  87.7696323
  69.4712639  72.8250980  87.5698566  71.4582443  73.3838892  88.1698704
  71.0962152  74.3216944  88.2676029  72.4083757  73.1186104  88.3866024
  68.9078951  70.6927299  85.7480335  67.7146292  70.6856680  86.0232258
  69.4292641  71.0138369  84.5489788  70.4342890  70.9349537  84.4872761
  68.6603451  71.8204784  83.6420536  68.0529833  72.5763035  84.1399956
  69.6943760  72.6300097  82.7548695  70.5028009  73.0778217  83.3328152
  70.2166557  71.9385624  82.0936394  69.0505266  73.6998701  81.9627380
  68.6209679  73.2334471  81.0761547  68.2621670  74.1766739  82.5451851
  69.8838663  74.8075724  81.4916611  70.2088976  75.3042555  82.4058628
  70.8183336  74.4495201  81.0596180  69.0622711  75.8191252  80.7560158
  68.0120850  75.7443428  81.0381889  69.3529844  76.8374205  81.0142040
  69.1466236  75.5748844  79.2846680  68.7780714  74.6581984  79.0750027
  68.4427404  76.1680508  78.8689709  70.0300646  75.7023287  78.8120317
  67.6681423  71.0561275  82.8145695  66.5507030  71.4259720  82.7691269
  68.0923033  69.9465942  82.2391510  68.9289761  69.6119213  82.6953030
  67.1049070  68.9562464  81.5987587  66.6850805  69.3896484  80.6910038
  67.9174995  67.7199078  81.1193848  68.6808825  68.1073570  80.4446793
  68.3268642  67.1775675  81.9716740  66.9275475  66.6086149  80.0493908
  66.6257763  67.5050163  79.1058350  65.9433079  68.5987759  82.4977207
  66.1465359  68.3735037  83.6408138  64.7845364  68.7324381  81.9796848
  64.7064400  68.8131428  80.9759426  63.4811878  68.7441826  82.6789570
  63.5445976  68.2158947  83.6302757  63.0410767  70.1524019  82.9320049
  63.2189035  70.7607174  82.0451927  61.6058826  70.2741909  83.3954430
  61.4134073  71.3234901  83.6191273  60.9052420  69.9028397  82.6475716
  61.4260721  69.6825600  84.2930698  63.8052845  70.6256485  84.0125656
  64.7123146  70.6305313  83.6981201  62.4301863  67.9927444  81.8930149
  61.7187214  67.1877098  82.5047493  62.3071241  68.0456543  80.5344391
  62.9160643  68.6534119  80.0053596  61.3735008  67.2681856  79.6851587
  60.9269667  66.4927006  80.3075218  60.1791048  68.1758451  79.2234421
  60.6258440  69.0169621  78.6932993  59.4395638  67.6443863  78.6245012
  59.4611120  68.6796713  80.3191757  58.8307858  69.3624163  80.0780392
  61.9802523  66.5506172  78.4810638  63.2176781  66.5636778  78.2723999
  61.1637259  65.7490158  77.8122568  60.1722050  65.7392597  78.0043316
  61.6011286  64.8623848  76.7247534  62.5564623  65.2558327  76.3774157
  61.6958904  63.3992672  77.0990610  60.8214521  63.0949783  77.6742697
  61.7052603  62.7159262  76.2499046  63.0080748  63.1089783  77.9334021
  63.0913782  63.9746475  78.5905027  62.9017496  61.7900562  78.6884212
  62.4877024  61.0121679  78.0468988  63.9398956  61.4875698  78.8257456
  62.3086596  61.7732382  79.6027899  64.2588091  63.1067038  77.1102333
  64.2223358  62.3745108  76.3035965  64.2500639  64.0745878  76.6090107
  65.1995134  62.9890585  77.6481295  60.6452227  65.1320124  75.5739689
  59.3984127  65.0134516  75.7235098  61.2307453  65.5577326  74.4646502
  62.2315931  65.5533361  74.3290567  60.5086470  65.8667755  73.1742525
  59.4400024  65.6664038  73.2514095  60.8472681  67.3122740  72.7911329
  61.9056273  67.3382139  72.5317049  60.2321959  67.5534534  71.9241667
  60.2856445  68.4356499  74.0516853  61.4739180  68.5308313  74.6548891
  60.8838177  64.8921633  72.0279312  61.8289900  64.1235304  72.1191454
  60.1573181  64.9194717  70.9045315  59.3710709  65.5501461  70.8399963
  60.5490494  64.1786289  69.7068214  60.6335020  63.1449890  70.0423193
  59.3819714  64.2222738  68.5874653  59.1746235  65.2349758  68.2417154
  58.5200024  63.9006662  69.1720057  59.8091745  63.0596304  67.2415113
  61.9353342  64.7340012  69.1048908  62.2220707  65.9412766  69.0573549
  62.8504896  63.8220644  68.6519432  62.6570606  62.8612995  68.8961172
  64.0163851  64.1056585  67.7694225  64.5350790  64.9966145  68.1233454
  64.9816465  62.9695320  67.8020382  64.7960520  62.3402882  68.6724997
  64.8042011  62.3390961  66.9307375  66.4096403  63.5271978  67.8815556
  66.5912771  64.4010258  67.2558308  66.6295910  63.6697531  68.9395761
  67.4323940  62.4956179  67.3940659  67.2749329  62.2919178  66.3349104
  68.3949184  63.0029631  67.4592924  67.3950529  61.0786915  68.0279732
  66.3688231  60.7505512  67.8628016  67.9269266  60.3287697  67.4424601
  67.7033281  60.9785128  69.4857979  67.0808458  61.5918159  69.9922276
  67.6179218  60.0051785  69.7415876  68.6944723  61.1642075  69.5428085
  63.6733532  64.4329548  66.2834835  64.5809317  64.8241329  65.5609560
  62.4581528  64.2547226  65.8248615  61.6884279  64.1383123  66.4683485
  62.1535206  64.2049980  64.3920088  63.0551434  64.5542049  63.8887882
  61.8543625  62.7444410  63.9419079  60.9831715  62.3723125  64.4810247
  61.5897846  62.8346586  62.8883600  63.1308985  61.9019604  64.0115166
  63.8618469  62.3848295  63.3629370  63.4703112  61.8927479  65.0472832
  62.9843712  60.4362679  63.5762024  61.9275331  59.9757957  63.2072878
  64.0475178  59.7125530  63.6938906  63.8035536  58.7399387  63.8147211
  64.8900843  60.0427628  64.1423893  61.1191797  65.2176857  63.8996220
  61.1969948  65.5367422  62.7148485  60.2388620  65.6418228  64.7654009
  60.0660038  65.1404619  65.6249714  59.5962191  66.9930553  64.6587992
  59.9196386  67.3103094  63.6674118  58.0817509  66.8128014  64.7241116
  57.7836609  66.1557055  63.9071274  57.6239157  67.7963448  64.6186113
  57.5217485  65.9344816  66.1655903  60.2057028  67.9958773  65.6336880
  60.6943035  69.0188265  65.2377605  60.0228930  67.6360464  66.9236469
  59.4767427  66.8001556  67.0756578  60.4122925  68.4423971  68.0646706
  60.3966999  67.8033733  68.9475679  61.8369532  69.0692711  67.9216051
  62.5340128  68.3794260  67.4458742  61.7559004  69.9334478  67.2622633
  62.4816322  69.5863485  69.2363787  61.8549633  70.2542925  69.8273468
  62.5075912  68.6492062  69.7924232  63.8356113  70.1979589  69.0423393
  64.2379904  70.8817196  68.1143427  64.5797539  70.1254368  70.0679541
  65.4585409  70.6208801  70.0192642  64.1762400  69.9384832  70.9747791
  59.2795753  69.3808174  68.3469200  59.4714546  70.3646231  69.1145945
  58.1175613  69.2294931  67.7083683  57.9674482  68.4003592  67.1514988
  56.9031334  70.1611567  67.9630709  57.3335028  71.1160946  68.2646942
  56.1129856  70.3989220  66.6516733  55.7392740  69.4195175  66.3529968
  55.2113438  71.0036278  66.7490292  56.8477964  70.9656143  65.4414558
  57.6492929  70.3049135  65.1110411  56.0158300  71.1878061  64.7732019
  57.4125099  72.4193144  65.6233835  56.7100620  73.1611919  66.3092470
  58.4710884  72.8277969  65.0957870  56.0492325  69.7053337  69.1395903
  54.8948622  70.2012157  69.3396711  56.5541887  68.8311005  70.0100374
  57.4850559  68.5302258  69.7589111  55.9022236  68.1791687  71.1704874
  55.0840521  68.7768221  71.5723801  55.1636791  67.0152712  70.5219746
  54.4332457  67.4339247  69.8296595  56.0264874  65.9721661  69.7528219
  56.6540861  66.4738178  69.0162277  56.6982841  65.4611635  70.4425049
  55.3825855  65.2342558  69.2742968  54.3394947  66.2871170  71.4805126
  53.8919783  66.9032001  72.0651245  56.7916441  67.6809454  72.2569132
  57.9050589  67.2120476  72.0088720  56.3638735  67.9076624  73.5294962
  55.5791950  68.5407019  73.5898924  56.8130684  67.3478985  74.8045492
  57.8493023  67.0584583  74.6297836  56.7201567  68.4102774  75.9746218
  57.6245546  69.0155745  75.9131241  55.7938528  68.9298201  75.7293749
  56.6691351  67.8129721  77.3391485  55.7865763  67.1923399  77.4941254
  57.5903559  67.2463322  77.4746847  56.7069864  68.8284349  78.4850311
  57.3507261  69.9026394  78.3822727  55.9791851  68.5255098  79.4554472
  55.9863758  66.1353588  75.0413275  54.8233175  66.1723471  75.2825928
  56.6602182  65.0207043  75.1372099  57.6590204  65.0060320  74.9879551
  56.0177135  63.7026548  75.3900003  54.9670982  63.7463284  75.1029396
  56.6803694  62.6820946  74.5624495  57.7641344  62.6179600  74.6596909
  56.1273670  61.2027931  74.8817730  55.0401831  61.1398506  74.9283600
  56.5215158  60.5533695  74.1001129  56.4991426  60.8325720  75.8371925
  56.2885332  63.0028343  73.0809546  55.2772570  62.5998974  73.0256271
  56.2070036  64.0613079  72.8338099  57.0128441  62.3145914  71.8918228
  57.0598030  61.2270546  71.9480324  56.7082739  62.7054548  70.9209633
  58.0017328  62.7495956  72.0366240  55.9273386  63.3288765  76.8603516
  54.8925638  62.9053497  77.3916388  57.0187283  63.5672235  77.5741816
  57.6866293  64.1799974  77.1286345  57.0214653  63.3829689  79.0809536
  56.0531330  63.6850691  79.4799137  57.0858431  61.9040632  79.4574833
  56.3107872  61.4293766  78.8557673  58.4787083  61.1939907  79.3149281
  58.7779951  61.0097647  78.2831383  59.2620516  61.8109989  79.7551298
  58.4080696  60.2202606  79.7996616  56.7154884  61.7214918  80.7752514
  55.8028603  61.4274836  80.8229542  58.0837345  64.2445755  79.7807360
  58.7776899  65.0526047  79.1894436  58.1529903  64.1830444  81.1069584
  57.7248526  63.4262323  81.6207981  58.9229298  65.0871849  81.9267654
  59.7104597  65.5580425  81.3383865  58.0357027  66.2423944  82.5516129
  57.6349688  66.7249680  81.6601944  56.8426895  65.8077621  83.3898354
  56.1245632  65.2130413  82.8252983  57.3131323  65.3587866  84.2645931
  56.2640762  66.5986252  83.8671589  58.8399649  67.1684980  83.3253479
  59.5358372  67.5218201  82.7663040  59.6506977  64.2388773  82.9929161
  59.2124557  63.1696129  83.3280182  60.7905531  64.7916412  83.4707069
  61.0739326  65.6915188  83.1101227  61.7793369  63.9982605  84.2797279
  62.1886969  63.1271029  83.7682533  63.0497456  64.7526646  84.6157455
  63.7712717  64.0046215  84.9442863  63.3668137  65.2153683  83.6811447
  63.0416250  65.8545017  85.6889534  62.4010134  66.6975451  85.4301357
  62.8646851  65.4391384  86.6810513  64.4862604  66.4689636  85.8325005
  65.0225925  65.9360313  86.6176319  65.0562096  66.4600801  84.9034214
  64.5388508  67.9093456  86.3274956  63.9439917  68.5642147  85.6907940
  64.1707850  67.9941845  87.3499584  65.9443331  68.3658028  86.2896824
  66.5272570  67.7482796  86.8364620  66.2898636  68.4189081  85.3421116
  66.1207867  69.3193436  86.5720367  61.2439394  63.4047270  85.5845356
  61.5673685  62.2723961  85.9698105  60.4198456  64.1526413  86.3367844
  60.2723646  65.1152420  86.0689068  59.7620869  63.5831308  87.5194168
  60.5337906  63.0553341  88.0797768  59.0833807  64.7318888  88.3709812
  58.3321762  65.2247095  87.7538013  58.5425425  64.2554712  89.1886806
  60.1389885  65.6878567  88.8402081  60.2958107  66.7267704  88.2974243
  60.8427095  65.3146505  89.8659420  61.5877342  65.9532595  90.1051521
  60.6436491  64.4611788  90.3679943  58.7411737  62.4581814  87.2142887
  58.0976152  61.9441271  88.1106281  58.4510183  62.0616722  85.9472656
  59.0501928  62.5373363  85.2878380  57.4527979  60.9929466  85.5686569
  56.8951321  60.7530260  86.4739418  56.3837242  61.6405821  84.6314144
  56.8504333  61.9251728  83.6883926  55.6921339  60.8454180  84.3529892
  55.6561136  62.8640175  85.2731133  56.3080549  63.7172937  85.4601860
  54.9501324  63.2126999  84.5193768  54.7834158  62.7414179  86.5696621
  54.5032597  61.5683842  87.0106506  54.4117832  63.7686586  87.1557999
  58.0316687  59.7062778  85.0179100  57.2768831  58.9520836  84.5030689
  59.3761873  59.5794153  85.1615143  59.8388958  60.3942204  85.5384731
  60.1104784  58.3503342  84.9954224  60.0080347  57.9103184  84.0034580
  61.5986681  58.7551641  85.0399971  61.7446423  59.2970800  85.9743977
  62.5054646  57.4921274  84.9055481  63.5421896  57.8175735  84.9914265
  62.5187969  56.8138504  85.7586956  62.3387098  56.8903399  84.0121555
  61.9231033  59.7638655  83.8871479  61.7079210  59.2440891  82.9535389
  61.3748646  60.6968498  84.0178204  63.3627844  60.2252865  83.7909985
  63.4520435  60.8618307  82.9106903  63.5956240  60.6334066  84.7745228
  64.1054058  59.4381285  83.6606216  59.6229792  57.3900890  86.0043335
  59.1455889  57.7397490  87.0721817  59.5810080  56.0972071  85.6642056
  60.1050329  55.8525372  84.8361683  59.1521549  54.9874687  86.4863396
  58.7645388  55.3172541  87.4502373  58.0051374  54.2245340  85.8249664
  57.1129370  54.8374367  85.9531689  58.2329464  54.0171194  84.7794151
  57.5801182  52.8305292  86.3338661  56.7045832  52.0355988  85.5547237
  56.4617586  52.4271107  84.5779133  56.0454702  50.9072256  86.0401440
  55.3974628  50.3795195  85.3560257  56.3387728  50.5353785  87.3356152
  56.0265112  49.6120262  87.8007126  57.3450613  51.2244749  88.0625439
  57.7032375  50.7454205  88.9617729  57.9028654  52.3653555  87.6443768
  58.5769701  52.8921843  88.3034992  60.3643751  54.1581202  86.8044090
  60.9170389  53.4571457  85.9104729  60.8354902  54.1134214  88.0566978
  60.4216671  54.6636581  88.7956810  62.0085144  53.3670092  88.4239292
  62.7537394  53.4419012  87.6320076  62.5270891  53.9678097  89.7768116
  62.6581192  55.0492001  89.7376442  61.7327690  53.7309074  90.4846478
  63.7368774  53.3292437  90.2927494  64.4753361  53.6823750  89.7911739
  61.7084074  51.8728209  88.5883427  60.7082558  51.4667559  89.2593575
  62.4150372  50.9648037  87.9821682  63.3264256  51.3007975  87.7054501
  62.0216990  49.6245623  87.6628017  61.3310099  49.3306065  88.4531498
  61.1698008  49.8100424  86.4347076  60.4144096  50.5888224  86.5395164
  61.8837929  50.1622105  85.6902027  60.3908062  48.5152864  85.9929180
  61.0336542  47.6894999  85.6880665  59.4776011  48.0782223  87.2207642
  60.0664330  47.6223040  88.0167007  58.8706064  48.9463139  87.4778271
  58.7900209  47.2886181  86.9176769  59.5986509  48.9510918  84.7488499
  58.7239981  49.5232391  85.0582790  60.2275085  49.4473267  84.0096664
  59.1869020  48.0435371  84.3073559  63.1887817  48.6369228  87.5694180
  62.9066372  47.4802113  87.4379539  64.4424343  49.1034889  87.5804424
  64.4599247  50.0520992  87.9267502  65.6734180  48.3594418  87.5850391
  65.4002905  47.3677874  87.9457664  66.0841417  48.3054924  86.1295128
  65.3507090  47.8750849  85.4476643  66.2523651  49.3051481  85.7288933
  67.3126650  47.5872469  85.9102631  67.3720455  47.1054745  85.0820255
  66.8800783  48.9332533  88.3438206  66.8981695  50.0991678  88.6614609
  67.7532291  48.0691099  88.7674904  67.4997854  47.1047115  88.6068439
  69.0372276  48.3540010  89.4866657  69.0092611  49.1937828  90.1809883
  69.4485331  47.0907688  90.2765083  68.5903597  46.6091728  90.7452297
  69.7865629  46.3011074  89.6054840  70.5092001  47.3692703  91.3507080
  71.3504791  47.8823805  90.8848000  69.9881744  48.0033588  92.0680428
  71.0672140  46.0608292  91.9546700  71.4572716  46.3432789  92.9325104
  70.2280188  45.3952980  92.1569633  72.0806742  45.4415751  90.9990120
  72.6433516  46.1594009  90.5651760  72.3181629  44.2190886  90.6439877
  73.3565998  43.9414930  89.9670124  74.0202618  44.6612453  89.7187901
  73.5478544  42.9858017  89.7021103  71.5381765  43.2184982  91.0890293
  70.6700325  43.3877802  91.5766525  71.7192793  42.2651672  90.8089256
  70.1023912  48.6252069  88.4588337  71.1026812  49.3303108  88.6631489
  70.0639391  47.9924011  87.2759628  69.1910505  47.5195408  87.0900440
  70.9665012  48.2842255  86.1865807  72.0098448  48.4122610  86.4749146
  70.9812784  47.1002436  85.1478100  70.9008598  46.1846828  85.7337952
  70.0920963  47.3054361  84.5516968  72.1889973  47.0004892  84.2436504
  71.8970585  46.4339352  83.3594036  72.4893332  47.9443169  83.7885857
  73.4903002  46.5499449  84.8833275  74.5773125  47.1215725  84.5849419
  73.5234404  45.5819941  85.5894566  70.6046772  49.5591640  85.4410362
  71.4592743  50.3694487  85.0417614  69.2536354  49.7886562  85.4026413
  68.6460447  49.0260649  85.6660557  68.7404394  51.2107372  85.5904961
  68.3377790  51.3779879  86.5894985  69.5669365  51.8926048  85.3903675
  67.5819302  51.5300512  84.6614170  67.2660398  50.8255386  83.7496471
  66.8807697  52.7069092  84.8957634  67.2984552  53.8524818  85.7272243
  68.3291864  54.1663837  85.5624485  67.1932411  53.5200453  86.7599487
  66.3299084  54.8906755  85.4657745  66.7503643  55.5845881  84.7378922
  66.1730289  55.5018997  86.3545322  64.9985647  54.2901134  84.9022007
  64.5139313  54.9939156  84.2255211  64.2350245  54.0346813  85.6369495
  65.5457735  53.0173683  84.2615414  64.7628260  52.2909069  84.4791412
  65.6462717  53.1627417  82.7255058  64.5803022  53.2624292  82.0741272
  66.8238783  53.2109547  82.2110271  67.6229477  53.3091402  82.8209019
  67.1214485  53.2299376  80.7825565  66.1373377  53.0453348  80.3518009
  67.4945450  54.6665287  80.3408623  66.9841862  55.4335690  80.9233475
  68.5556793  54.8662901  80.4898357  67.1900415  54.8914051  78.8294029
  67.6164818  54.0463495  78.2889175  66.1083031  54.8519230  78.7013531
  67.6541424  56.5212727  78.2035160  69.4418907  56.3959455  78.4238195
  69.8935604  55.5527115  77.9012632  70.0434065  57.2746563  78.1911325
  69.6219397  56.2051916  79.4817877  68.1066036  52.1705914  80.1916885
  67.9347372  51.7306042  79.0423155  69.1851044  51.8526506  80.9185791
  69.3210936  52.3722649  81.7739201  70.2011776  50.8221722  80.6338120
  71.2073135  51.1844778  80.8448315  70.1335335  49.6561003  81.6505337
  70.7935476  48.8810825  81.2608719  70.5693054  49.9433231  82.6074600
  69.0983057  49.3423033  81.7844391  70.2889729  50.3897476  79.1573048
  70.8638430  51.1275053  78.3831978  69.8734522  49.1261768  78.8071489
  69.2539549  48.6673975  79.4597149  69.9673271  48.5389519  77.5599718
  69.6890211  49.2715311  76.8023586  71.4571047  48.1185150  77.2991943
  71.5764141  47.7858829  76.2680721  72.1646690  48.9135075  77.5346708
  71.7533302  47.2834015  77.9339647  69.0468597  47.2581768  77.4472713
  69.1792059  46.2611055  78.1667137  68.0579138  47.3810148  76.5514135
  67.9396963  48.2071733  75.9825611  66.9949389  46.3722992  76.5421152
  67.2159576  45.4185629  77.0213175  65.7086420  46.9828224  77.2217798
  65.3645229  47.8844547  76.7150879  64.8691463  46.2962246  77.1124744
  65.8361816  47.3224449  78.6655188  66.0188580  46.2569380  79.5710325
  66.0246897  45.2312136  79.2330217  66.3082361  46.5542507  80.9027576
  66.6797066  45.7842541  81.5626907  66.3723707  47.8897953  81.3626575
  66.7547464  48.1884384  82.6937580  66.6809130  49.1330671  82.8481102
  65.9963894  48.9848232  80.4580402  66.1010170  50.0029516  80.8028126
  65.7109308  48.6650705  79.1220665  65.4757833  49.3950939  78.3616924
  66.6032076  46.0211086  75.1277828  66.7178392  46.8153477  74.2122126
  66.1088324  44.7832251  74.8745966  66.1209917  44.2434311  75.7281590
  65.8701134  44.2182779  73.5303545  66.5213394  44.7716379  72.8537512
  66.3010120  42.7226257  73.4135389  65.5194330  42.1163273  73.8714027
  66.3593483  42.2034740  71.9730949  67.0569134  42.7557135  71.3433838
  66.6478300  41.1535311  72.0231295  65.3590918  42.2401571  71.5415335
  67.6731062  42.4923801  74.0644550  67.8789806  41.4244699  73.9918327
  68.4380531  43.1430864  73.6407375  67.5946999  42.5820446  75.1479292
  64.4593048  44.4914198  73.0510616  63.4898949  44.0846920  73.7595415
  64.2292547  45.1760530  71.9383812  65.0733805  45.3691578  71.4185095
  62.9365015  45.4286623  71.2496328  62.2145414  45.5766439  72.0527363
  63.0943918  46.6991472  70.3357124  62.1669769  47.2496367  70.4937029
  63.9324617  47.3070049  70.6766605  63.1930685  46.5773058  68.8055944
  63.3593702  45.4837513  68.2330561  63.3351421  47.6950502  68.1729937
  63.6542797  47.7448654  67.2160387  63.1089354  48.5721827  68.6197376
  62.3165083  44.1812706  70.5400181  63.0024195  43.1365633  70.3670740
  61.0314465  44.1510391  70.1256084  60.0656891  45.2198887  70.2529573
  60.1725531  45.9192181  69.4237280  60.2069235  45.8258724  71.1479092
  58.7370110  44.5294428  70.1274109  57.8983402  45.1905584  69.9091196
  58.5583258  43.9516544  71.0342360  58.8870239  43.4505463  69.0287924
  59.0057135  44.0207577  68.1074524  58.1401682  42.6568460  69.0100145
  60.3322077  42.9984570  69.4532156  60.1972437  42.1944475  70.1767206
  60.9070253  42.3968363  68.2282448  60.4591990  41.3862181  67.7905512
  61.7411375  43.1644821  67.5439501  62.0557451  44.0137815  67.9909515
  62.3801613  42.8119898  66.2864780  61.7469597  42.0336056  65.8607149
  62.2238493  43.9556313  65.1923656  62.9503679  44.7332001  65.4282951
  62.4581766  43.5676146  64.2010880  60.8510017  44.5661306  65.2388144
  59.6744776  43.9599991  64.7184896  58.6518383  44.7828150  64.9378014
  57.6053905  44.5968580  64.7460413  59.0986156  45.8427954  65.6300497
  58.5683680  46.6741514  65.8486366  60.4795837  45.7420015  65.7719707
  61.0863447  46.4151525  66.3594389  63.8605928  42.5092936  66.3508224
  64.5302582  42.1205568  65.3720570  64.3281078  42.5685692  67.5390005
  63.7863350  42.9557323  68.2984018  65.6588745  42.0795679  67.9613972
  65.6010199  41.4955521  68.8799191  66.0475731  41.4401960  67.1687984
  66.7262411  43.1741476  68.0886221  67.8444147  42.8447199  68.5063410
  66.4955664  44.4646549  67.7469969  65.5511284  44.6069860  67.4185562
  67.4936247  45.5411053  67.9120350  68.4631777  45.1270533  67.6352215
  67.1770000  46.6546679  66.8636274  66.1775351  47.0279694  67.0868158
  67.7542019  47.5792980  66.8648005  67.1692657  45.9808064  65.4870701
  68.3622169  46.0621166  64.7183371  69.2342091  46.5621185  65.1133490
  68.3337402  45.3638887  63.5152388  69.1266012  45.4529285  62.7873373
  67.2003174  44.6020555  63.1330061  67.1934795  43.7606621  61.9845724
  68.0520630  43.8849211  61.5734816  66.0381651  44.5712900  63.9012241
  65.1142883  44.1792440  63.5022831  65.9776258  45.3292799  65.0716591
  65.0494480  45.5628824  65.5719805  67.4302673  46.0525084  69.3698406
  66.3502598  45.9826756  70.0595617  68.6078501  46.4043617  69.8478842
  69.3530035  46.6291475  69.2042160  68.8135624  46.7585659  71.2401247
  68.0668736  46.4056635  71.9514704  70.1790285  46.1414862  71.7045116
  70.9914780  46.7398787  71.2922573  70.3454018  46.1420250  73.1973410
  69.9237680  47.0671463  73.5903692  69.7859812  45.3369141  73.6737347
  71.3354206  45.9323788  73.6023426  70.3382158  44.6661282  71.2175131
  71.1205244  44.1286564  71.7534447  69.4300699  44.1271448  71.4874458
  70.4844284  44.6228456  70.1382351  68.8972902  48.3184147  71.4859009
  69.6217966  49.0226555  70.6987619  68.1637001  48.8481522  72.4867821
  67.5834513  48.2382298  73.0448198  67.9523611  50.2954531  72.7000284
  68.7081289  50.8616400  72.1556425  66.6048765  50.7548666  72.1572208
  65.8630514  50.0835800  72.5898552  66.4146471  51.7596769  72.5343990
  66.3639879  50.7263565  70.7069254  66.5569258  51.8636894  69.8613501
  66.3605118  51.5059042  68.6286402  66.5096951  52.1463537  67.7719164
  66.2138605  50.2051020  68.5641241  66.0044909  49.6660233  67.7360773
  66.1664343  49.6666288  69.8591089  66.1058855  48.6460114  70.2070808
  68.0871296  50.7736301  74.1540670  67.9394674  50.0295162  75.1578569
  68.3478165  52.0548630  74.3433094  68.6908484  52.4872923  73.4974718
  68.1275797  52.7788305  75.5518341  68.5305882  52.1650362  76.3574028
  68.9367294  54.1106701  75.4231167  68.6523485  54.5325708  74.4591570
  68.6076069  54.9041986  76.0940075  70.4884958  53.8571835  75.5701160
  70.7406902  53.5598898  76.5880156  70.8057117  53.0186462  74.9501705
  71.2796021  55.0951576  75.0748301  72.1175909  55.0383759  74.1368246
  70.9649849  56.1301231  75.6206989  66.6294098  53.1721210  75.7743883
  66.1629057  54.2041111  75.2609587  65.8890247  52.2019196  76.3023806
  66.4029837  51.3745928  76.5697384  64.4475222  52.4000740  76.3378000
  64.0342665  53.1182909  75.6296444  63.7002516  51.0947275  76.0229540
  63.9922333  50.4119682  76.8208885  62.1626234  51.4969873  75.9722567
  61.7866802  51.9281340  76.9000912  62.0560646  52.2593307  75.2005196
  61.5059233  50.7089233  75.6037569  64.0989733  50.4783106  74.6460056
  63.9498234  51.2380838  73.8788080  65.1779127  50.3273773  74.6113014
  63.3479214  49.1764498  74.0478420  62.2843742  49.1705799  74.2864513
  63.5857201  48.9967346  72.9993868  63.7320662  48.3377266  74.6284246
  64.0646124  52.9251814  77.7728558  64.1584587  52.1237183  78.7004328
  63.7413645  54.1867399  78.0196285  63.7354660  54.8300934  77.2410631
  63.3511782  54.8064709  79.3343925  64.0478802  54.4995499  80.1144600
  63.5982466  56.3112831  79.1910934  64.5456266  56.5207195  78.6943960
  62.8469610  56.7006207  78.5040045  63.4052896  57.2431803  80.3951359
  62.3606539  57.1493673  80.6918430  64.2398548  56.9768000  81.5950680
  64.1968346  55.9524441  81.9651413  65.2867031  57.1080732  81.3212490
  63.9915466  57.6964235  82.3751831  63.7158966  58.7236500  80.0767803
  64.7445536  58.9638233  79.8079252  63.0210400  59.0884829  79.3203592
  63.4911537  59.2874813  80.9821510  61.9578409  54.5382881  79.7894526
  60.9800482  55.0166845  79.2174625  61.8327236  53.8122416  80.8927345
  62.7271891  53.5256290  81.2640667  60.5615425  53.4850550  81.5371037
  59.9060345  53.1384706  80.7381725  60.7704067  52.2777843  82.5633717
  59.8498487  52.1675014  83.1365299  61.0547733  51.0714006  81.6485596
  61.8419981  50.4670954  82.0993328  60.1656246  50.4427433  81.6005802
  61.4342880  51.3191891  80.6572628  61.8867207  52.5280285  83.4029198
  61.5884876  53.0040312  84.1814327  59.9937916  54.6756649  82.3123932
  60.6009722  55.3009653  83.2547379  58.7628031  54.9707794  81.9528675
  58.1917620  54.3203211  81.4323711  57.9739809  56.2529230  82.2118568
  58.5086775  56.8346262  82.9627419  57.9204130  57.1037006  80.9463024
  57.8332520  56.3640308  80.1504421  56.9129467  58.2285976  80.7719326
  55.9198809  57.7998686  80.9065247  57.0141840  58.9829636  81.5521812
  56.8920660  58.7055874  79.7920656  59.3745041  57.6679659  80.6881237
  60.1512718  56.9038725  80.7180309  59.3708563  58.0401134  79.6636248
  59.4648123  58.4774446  81.4124870  56.5450907  55.9100676  82.7103806
  55.8818579  55.0396109  82.0971203  56.0612392  56.5366268  83.7831116
  56.6766071  57.1872759  84.2500973  54.6578264  56.3190985  84.2128658
  54.5325661  55.2456093  84.3544006  54.4102764  57.0696259  85.5433369
  54.6797228  58.1217146  85.4505730  53.3298731  57.0462704  85.6857586
  55.0521278  56.4214802  86.7686081  54.5672274  55.1487589  87.3294640
  53.8727474  54.5089340  86.8053246  55.0790977  54.7373724  88.6172771
  54.6808147  53.8490582  89.0848923  56.2036228  55.4280233  89.2140007
  56.7902374  54.8704815  90.3217983  57.7171946  55.1201630  90.3244591
  56.7530060  56.5412807  88.5837746  57.5258827  57.0635843  89.1280746
  56.1143541  57.1276236  87.4966908  56.4378023  58.0742550  87.0896721
  53.5447502  56.7199755  83.2150936  52.5329399  56.0322142  83.0780506
  53.7206650  57.9105473  82.6331711  54.6560192  58.2911587  82.6145077
  52.7172565  58.7601233  81.9669819  52.0801830  58.0915976  81.3879204
  51.7786741  59.3469286  83.0234623  51.1017513  60.0110531  82.4860477
  51.2297440  58.5333729  83.4976959  52.4841833  60.2609348  84.0874481
  53.2430935  59.6954346  84.6281528  53.0328417  61.0606861  83.5899830
  51.2664938  60.7244349  84.9845028  50.3816128  61.0045338  84.4129848
  50.9974957  59.8280239  85.5432415  51.6711521  61.8089151  85.8962440
  52.3305225  61.4346743  86.6793633  52.1530724  62.5805187  85.2958393
  50.4444933  62.3591852  86.6165924  50.9605694  62.9512119  87.2516251
  49.7978830  62.8150415  85.9887409  49.8942327  61.6339540  87.0540237
  53.2557964  59.7647476  80.9898090  54.3049335  60.3620005  81.2153339
  52.5409985  59.9338436  79.8796177  51.5944338  59.5888090  79.8084211
  53.0525208  60.5686283  78.6360025  53.6354351  61.4751244  78.7990189
  53.8756800  59.5992422  77.8273678  54.7346163  59.3034220  78.4297085
  53.2488203  58.7396622  77.5901175  54.0891790  60.0489712  76.8576956
  51.8390560  61.1441374  77.8255177  50.7384968  60.7067490  78.0287075
  52.1689081  61.8983269  76.7972898  53.1384611  62.0847845  76.5844584
  51.1243963  62.1925020  75.7896233  50.5810928  61.2621355  75.6242943
  50.2088308  63.3300543  76.2113428  49.9142075  62.9722548  77.1978951
  50.6626177  64.3208551  76.2335062  48.6350298  63.5413694  75.2953100
  47.8305197  63.7249613  76.3460064  51.8151760  62.3997974  74.3910694
  53.0187035  62.4122477  74.2559242  50.9843159  62.5928831  73.3817101
  50.0096941  62.6804161  73.6318064  51.2991953  62.8611135  71.9359732
  50.3644323  62.9683018  71.3856792  52.1706533  64.1429472  71.7259026
  53.1915951  63.9589071  72.0604324  52.1704197  64.4682312  70.6855679
  51.6016293  65.3642464  72.4559641  50.7387781  66.0738182  71.9222546
  51.9960260  65.6360769  73.6584663  51.5787506  66.4728594  74.0402794
  52.6844072  65.0472212  74.1050911  51.9107294  61.5881920  71.2901449
  52.6725245  61.7875051  70.3275108  51.4479065  60.3800964  71.5846062
  50.6907988  60.3532219  72.2525597  51.6930914  59.1631365  70.8807468
  52.2367859  59.3880701  69.9631929  52.4983883  58.1451130  71.8470287
  51.8617821  57.8827000  72.6919985  52.6808262  57.2229290  71.2953091
  53.8206005  58.7666321  72.2816229  53.6317348  59.7094536  72.7949619
  54.5255899  57.8155899  73.2710791  55.1943016  58.4463167  73.8568306
  53.8359594  57.2959661  73.9362860  55.0434875  57.0078135  72.7539968
  54.7343588  59.0220070  71.1463690  54.4458723  59.9203587  70.6006289
  55.7180786  59.1861296  71.5862036  54.8686600  58.1512642  70.5045938
  50.3964090  58.5253525  70.4213667  49.3519545  59.0214205  70.6070137
  50.6013918  57.5168896  69.5933485  51.5602970  57.2508383  69.4206381
  49.5353889  56.7547131  69.0038109  48.6582184  56.7747831  69.6505499
  49.1976690  57.5109816  67.6869106  48.4940338  56.8673420  67.1589661
  48.6535883  58.4479237  67.8061914  50.2782249  57.8063250  66.6493797
  49.8310471  58.4922171  65.7319307  51.4722872  57.3019123  66.5602541
  52.1377850  57.6076174  65.8647299  51.7677450  56.6437197  67.2670650
  50.0199699  55.3023386  68.6744308  51.1479759  55.0625229  68.2738829
  49.1326571  54.2754650  68.8864803  48.1831455  54.5144606  69.1342878
  49.5641899  52.8911495  69.0358829  50.6383848  52.8645563  69.2188931
  48.6413336  52.2278929  70.0916529  47.6275253  52.2910404  69.6962881
  48.9752817  51.1912012  70.1346779  48.6696148  52.8966951  71.5167761
  48.1577301  53.8590193  71.5186357  48.0238295  51.9816256  72.5262880
  47.8525543  52.5827694  73.4192562  47.1361828  51.4515448  72.1810484
  48.6958361  51.1888599  72.8549671  50.0616121  53.2803392  72.0020866
  50.7505417  52.4365234  71.9639301  50.4421902  54.0363598  71.3152838
  49.9506330  53.6693192  73.0142546  49.4434547  52.0764208  67.7503252
  48.4681892  52.3039007  67.0512819  50.4054689  51.2187099  67.4175072
  51.2234163  51.1873245  68.0091810  50.4876232  50.3409863  66.2560654
  49.6570635  50.6188679  65.6071758  51.8248224  50.5168724  65.4253769
  52.6615810  50.2837181  66.0838366  51.8956280  49.4947958  64.2829847
  50.9179735  49.4279003  63.8056898  52.5896215  49.7617579  63.4859848
  52.0486259  48.4717941  64.6267223  52.1185875  51.9406986  64.8627186
  53.0511618  51.8911743  64.3006182  51.3679838  52.2823286  64.1499853
  52.2438097  53.1464863  65.8217239  52.4272299  53.9589024  65.1185656
  51.3466167  53.3518600  66.4056444  52.9896927  52.9378605  66.5886831
  50.3761196  48.9019012  66.7268229  51.3687181  48.1986713  67.0595551
  49.1303587  48.4333467  66.7709446  48.3727789  49.0342569  66.4792395
  48.7003088  47.0933056  67.2079897  47.9519510  46.7361212  66.5005398
  49.4962740  46.3547516  67.1126747  48.2265091  47.0307684  68.5978127
  48.5603523  47.7266312  69.5634031  47.3216867  46.0074902  68.7121868
  47.1467352  45.5515575  67.8280973  46.7638922  45.4961729  69.9773407
  46.2363052  46.3364077  70.4287434  45.7036114  44.3709087  69.6252918
  45.0050497  44.8507023  68.9397860  46.1294079  43.5690737  69.0220833
  45.0088978  43.8341856  70.9093046  45.6443930  43.2332945  71.5598297
  44.7035933  44.7412634  71.4309406  43.7998724  42.8901291  70.6348753
  43.1140089  43.4072971  69.9638844  44.1138268  41.9533587  70.1744318
  43.0854654  42.5076389  71.9276381  43.6030674  41.8420219  72.4836445
  42.0812035  43.1761599  72.5013828  41.7878199  42.8575611  73.7513304
  42.4037647  42.3392439  74.3613005  40.9540081  43.3016300  74.1086245
  41.2874651  44.0252829  71.9004011  41.4068460  44.2074537  70.9141636
  40.5930424  44.5816565  72.3782396  47.8811455  44.8608351  70.7757378
  48.5891771  44.0113211  70.2835846  47.9347181  45.2612925  72.0957327
  47.1829510  46.3294363  72.7579308  46.1840153  45.9387827  72.9518747
  47.1649456  47.2594976  72.1898079  47.9701805  46.6340590  74.0468502
  47.2813797  47.0454597  74.7846842  48.7414265  47.3763800  73.8413191
  48.6006641  45.2948523  74.4247961  47.8489208  44.6377087  74.8620033
  49.4893980  45.5666208  74.9943542  48.9068985  44.6502209  73.0615187
  49.9125481  44.9050331  72.7270937  48.8449383  43.1017923  73.1157827
  47.8132343  42.5568199  73.0359793  49.9566412  42.3316002  73.2130909
  50.8710575  42.7597046  73.1871605  50.1513052  40.8786201  73.2806063
  49.2390203  40.4085588  73.6478758  50.6016779  40.3740072  71.9196844
  49.7831154  40.5588388  71.2240505  51.4165115  40.9425354  71.4714479
  51.0638332  39.0883470  71.9005585  50.3612280  38.4421062  72.0021248
  51.2475157  40.5777645  74.3282270  51.9624805  41.4455223  74.6594238
  51.0785866  39.5480490  75.2004004  50.2646112  38.9822841  75.0068712
  52.1711779  39.1374826  76.0669756  52.4964762  39.9893284  76.6641665
  51.6913128  38.0129170  77.0660257  52.4673510  37.6997685  77.7644539
  50.6107759  38.4220862  77.9832077  50.4999924  37.5776625  78.6634874
  50.8965111  39.3619108  78.4556293  49.6908617  38.5461378  77.4118280
  51.1739159  36.9758725  76.2405920  51.9292879  36.5940952  75.7875395
  53.4381390  38.7161398  75.3191519  54.5550156  38.8111353  75.8758545
  53.3542538  38.4190249  73.9788866  52.4402571  38.5283899  73.5632563
  54.4756413  37.9354358  73.1203318  54.7480154  36.9549274  73.5108662
  54.0407515  37.5771546  71.6716337  53.1382561  36.9665384  71.6989803
  53.7031078  38.4505796  71.1137581  55.0695086  36.9023466  70.8146620
  55.8259487  37.6546645  70.5912352  55.4409981  36.0835075  71.4307785
  54.5639992  36.4442372  69.4652843  54.9082184  35.3012800  69.1692019
  53.8728952  37.1834826  68.7076283  55.6354523  38.9290786  73.1372166
  55.5115747  40.0633144  72.7623987  56.8007946  38.3575153  73.5713911
  56.6923285  37.4769211  74.0539837  58.2120991  39.0305114  73.6130905
  58.9355898  38.2458186  73.8342810  58.6172628  39.5713329  72.2407961
  57.9755497  40.3997755  71.9408178  59.6286678  39.9775243  72.2276878
  58.6158419  38.4781361  71.1487770  59.3402100  37.3346400  71.2867451
  59.4208288  36.8174982  70.0435019  59.8812151  35.8608174  69.8454857
  59.0174341  37.6995277  69.1194153  58.9553928  37.4747658  68.1366920
  58.4845066  38.7338829  69.8090076  58.2342577  39.6351171  69.2690516
  58.3848238  39.9563479  74.8462677  59.4901180  40.4890585  74.9233627
  57.3967695  40.1259661  75.7659435  56.5246344  39.6338725  75.6343126
  57.4180460  41.0480976  76.8713570  57.4923229  42.0786238  76.5240765
  56.0289049  40.9401989  77.5787973  55.2594423  41.2712574  76.8813515
  55.7978773  39.9412990  77.9488373  56.0651875  41.7209196  78.7175417
  55.1574278  41.8441343  79.0045786  58.5933065  40.7741594  77.8159237
  59.2527819  39.7384214  77.7916431  58.9743280  41.8596315  78.5805559
  58.4876585  42.7446318  78.5855722  60.0238943  41.6421986  79.5965624
  60.6780434  40.8353996  79.2660141  60.8176517  42.9026604  79.7467089
  60.2386713  43.6941719  80.2225208  61.7278051  42.7548170  80.3279686
  61.4071751  43.5160351  78.4896564  61.8929577  42.9683161  77.3465681
  61.9779444  41.9165659  77.1163511  62.2403097  43.9281178  76.4823675
  62.5917101  43.7302351  75.5563736  62.0394373  45.1842260  77.0024967
  62.2132397  46.4765358  76.4633989  62.3720407  46.5989256  75.4021740
  61.7771578  47.5444126  77.2839689  61.8303823  48.5515547  76.8976545
  61.3239098  47.3176336  78.6381817  61.2284946  48.1875801  79.2710209
  61.2437391  46.0035324  79.1358089  60.9938908  45.8592939  80.1765633
  61.5644264  44.9097538  78.3119535  59.4371080  41.1997366  80.9795666
  60.2717829  40.7332802  81.7622280  58.1309748  41.1970139  81.1964989
  57.5377989  41.4809227  80.4299164  57.5263262  40.9887028  82.6110363
  58.2002020  40.4905844  83.3080769  57.1963501  42.3805904  83.1842899
  56.4534330  42.8954124  82.5750828  56.6615057  42.2199202  84.1203594
  58.3190775  43.3769464  83.3049297  59.1167068  43.2753944  84.4890594
  59.0222406  42.4120140  85.1309681  60.1037169  44.1951656  84.7173786
  60.5664253  44.1057158  85.6891251  60.4019403  45.1715326  83.7595081
  61.2076473  45.8778238  83.8951111  59.5434141  45.3357077  82.6305389
  59.7761488  46.0719967  81.8754864  58.4765053  44.4639540  82.4272823
  57.7923822  44.5795488  81.5996265  56.2178802  40.2434444  82.5789738
  55.5652618  40.3159857  81.5396023  55.8655500  39.5218921  83.6411285
  56.6271305  39.4027925  84.8777008  56.8298197  40.4192543  85.2150822
  57.5225735  38.8649774  84.5661831  55.7581329  38.6607265  85.8645535
  55.2710009  39.3571043  86.5471077  56.4174366  37.9537559  86.3681507
  54.7349024  37.9387331  84.9970818  53.7578058  37.7377415  85.4363918
  55.2563047  37.0045185  84.7885609  54.6180058  38.7065744  83.7654114
  54.4866705  38.0654120  82.8937531  53.3988476  39.6133447  83.8629341
  53.4240723  40.6460190  84.5041275  52.3589993  39.2577529  83.1532192
  52.3980999  38.3836579  82.6487064  51.1020994  39.9806786  83.2376385
  50.3813791  39.3227649  82.7520370  50.8657694  40.3357744  84.2407131
  51.0335493  41.2148333  82.4018955  49.9548960  41.7591238  82.1418285
  52.1449709  41.6810274  81.8436623  53.0324745  41.3266039  82.1705151
  52.2613859  42.9266739  81.0782623  51.3413048  43.5028648  81.1760902
  53.3496618  43.7872601  81.6825771  54.2709827  43.2733154  81.9566631
  53.6226654  44.5438385  80.9469509  52.9108715  44.4573879  83.0315590
  53.8084221  44.3310738  84.1619396  54.5883799  43.5853052  84.1183662
  53.5672522  45.1312971  85.2989006  54.1735697  45.0399590  86.1879730
  52.5100708  46.0596561  85.3219128  52.3134995  46.9808102  86.2775803
  51.5009069  47.4400091  86.0529995  51.6246128  46.0708809  84.2803860
  50.7822084  46.7466450  84.2903233  51.8367624  45.3361607  83.0745697
  51.1803293  45.4070520  82.2198963  52.4026489  42.5548315  79.6218395
  53.3710766  41.8790865  79.2187929  51.4037275  43.0019522  78.8287163
  50.6386423  43.5391569  79.2110205  51.3190889  42.9272556  77.3666000
  52.0916367  42.2124195  77.0832682  49.8938417  42.4756575  77.0103216
  49.1742849  43.2495832  77.2774982  49.8275566  42.4383068  75.9229803
  49.7053194  41.4993763  77.4568987  51.6745281  44.3000221  76.7324686
  51.1675453  45.3894043  77.1652508  52.1923590  44.3106031  75.4901648
  52.3155022  43.4164429  75.0369406  52.8028059  45.5083036  74.9418259
  52.3338127  46.3557911  75.4417372  54.3337154  45.6018829  75.1857328
  54.6295118  46.5080404  74.6570778  54.5439339  45.7395267  76.2463760
  55.2347040  44.5974255  74.5744371  54.9203444  43.3343315  74.1638517
  53.9447117  42.8720951  74.1934872  56.0517931  42.7511597  73.6558294
  55.9528780  41.8414593  73.2283163  57.2069263  43.5414076  73.7538624
  58.5575914  43.3555031  73.4661961  58.9004469  42.4545145  72.9793024
  59.4805670  44.3851519  73.6228180  60.5088282  44.2627621  73.3160400
  59.0192461  45.6923676  74.0844488  59.6514511  46.5679789  74.0898228
  57.6540899  45.8424950  74.4231224  57.4659491  46.8398666  74.7922564
  56.6732550  44.7648382  74.3043423  52.6060629  45.6882238  73.4273005
  52.4349976  44.6708918  72.7790165  52.7575493  46.9424248  72.9182482
  53.1933022  47.5851870  73.5640669  52.4770021  47.4825573  71.6274595
  52.7068901  46.7032766  70.9008360  51.0122061  47.9367065  71.5270329
  50.3149939  47.1082354  71.6520739  50.5847883  49.1168594  72.3981094
  49.5002985  49.2101908  72.3409224  50.7966805  48.7657928  73.4080362
  51.3234615  49.9047375  72.2507477  50.8623695  48.5301685  70.2934456
  49.9729109  48.3348513  69.9896145  53.4651279  48.5914278  71.2159920
  53.9328480  49.3436193  72.0994139  53.8267183  48.8533020  69.9506092
  53.1954575  48.4926748  69.2494965  54.5664644  50.0022697  69.4575310
  55.5253220  50.0036907  69.9758863  54.8379707  49.7219992  67.9421806
  53.8717794  49.5069313  67.4857664  55.6031895  50.8772945  67.2240782
  55.4331398  50.7601786  66.1538124  55.3042173  51.8797684  67.5302839
  56.6246700  50.8261824  67.6010132  55.7098436  48.4809732  67.6793861
  56.7184687  48.6460066  68.0582619  55.2726603  47.5630426  68.0722857
  55.6487656  48.4000778  66.5941095  53.7660646  51.3048077  69.5713949
  52.5678873  51.3759613  69.2892313  54.3978262  52.3328209  70.1781082
  55.3313971  52.1584415  70.5218077  53.9443254  53.7169218  70.3465271
  52.9309893  53.7881184  69.9513245  53.9313221  54.0540123  71.7989969
  54.8990250  53.8064003  72.2352695  53.7284374  55.1181507  71.9196367
  53.1915808  53.4290791  72.2993469  54.7363091  54.6241331  69.4932890
  55.8936214  54.9161625  69.8838139  54.2020082  55.0166798  68.3028173
  53.2708263  54.7229910  68.0444479  54.8654366  56.0445213  67.4673748
  55.9266472  55.9851551  67.7090597  54.6588755  55.7646036  65.9276152
  53.6177349  55.4959917  65.7487774  54.8602438  56.6645718  65.3465796
  55.7097483  54.7956324  65.3518724  56.7176151  55.1694536  65.5323362
  55.6433296  53.8208532  65.8350849  55.4004765  54.6908712  63.8267565
  54.5980310  53.8877726  63.3759403  56.1073256  55.3881693  62.9706240
  56.0609674  55.2227783  61.9753361  56.9546223  55.7987642  63.3361387
  54.2959738  57.5377846  67.7636051  53.3460808  57.6271009  68.5173035
  54.9352264  58.5376501  67.1733427  55.7355547  58.3865595  66.5760612
  54.6990442  59.9388742  67.4641371  54.6462679  60.1553535  68.5311222
  55.8890676  60.8133936  66.9421148  56.2302017  60.6061029  65.9278345
  56.6671705  60.5670166  67.6645756  55.6186819  62.5654411  66.9947577
  53.2699966  60.2528143  66.8813515  52.8930378  59.7562170  65.8120441
  52.5491238  61.2030220  67.4929428  52.9924822  61.7442083  68.2214069
  51.2853098  61.7606068  66.9167614  50.7691717  60.9659815  66.3779831
  50.4851007  62.0959473  68.2326698  50.5592728  61.1872053  68.8299847
  51.0047293  62.9041862  68.7472963  49.0248871  62.4686289  67.9395819
  48.8722134  63.4969187  67.6118374  48.7581205  61.7947865  67.1254158
  48.1568003  62.2188330  69.2022848  48.1561756  61.1624956  69.4710922
  48.4277964  62.8713560  70.0322723  46.7351389  62.5979662  68.8256359
  46.3148832  62.8440762  69.8007822  46.7503262  63.4607697  68.1597185
  46.0611248  61.4454031  68.2302904  46.3981247  61.4510250  67.2781897
  46.2494755  60.5427027  68.6423063  45.0825071  61.6267300  68.0584335
  51.4606047  62.9746103  65.9953976  50.5909538  63.1463528  65.2124405
  52.6299143  63.6025190  65.9343195  53.3833599  63.2090759  66.4798784
  52.8693008  64.7358084  65.0265360  51.9274950  65.2693939  64.8985481
  53.7912703  65.7632065  65.8054304  54.5758200  65.1627684  66.2659216
  54.4371510  66.8673229  64.8727703  54.9222755  67.6485491  65.4579592
  55.2366257  66.3718843  64.3218708  53.6670923  67.3213911  64.2491293
  52.9829168  66.6029358  66.8498898  53.5725498  67.4315929  67.2420073
  52.2576141  67.2569847  66.3658905  52.3819447  65.8871078  68.0826664
  53.0301046  65.0604057  68.3734369  52.3154497  66.6427231  68.8654375
  51.4904404  65.3146505  67.8264904  53.4498024  64.1133833  63.7217331
  52.7540398  64.1499567  62.7167416  54.7077370  63.6260462  63.8308620
  55.1838493  63.6574888  64.7210503  55.4020643  63.0474901  62.6627684
  54.9295521  63.3746529  61.7365980  56.8422842  63.6587667  62.6563931
  56.7298651  64.5681381  63.2467365  57.1850491  63.9175892  61.6545868
  57.9425335  62.7378559  63.6596394  55.2239847  61.4330196  62.5372171
  54.1390419  60.9228277  62.9222393  56.2386465  60.7031155  62.0879459
  57.0457172  61.2589931  61.8435383  56.3108683  59.2440796  62.2983742
  55.5345535  58.9975023  63.0226946  56.0234690  58.4328508  61.0255289
  56.7269373  58.6401081  60.2191353  56.0759687  57.3553944  61.1818552
  55.0785255  58.7758732  60.6041908  57.5184250  58.7123442  63.1185102
  57.9588079  57.5876141  62.8919888  58.0584908  59.4515562  64.0668869
  57.7937841  60.4251146  64.1139793  59.0785408  58.9253378  64.9514627
  59.9847937  58.8382864  64.3521023  59.3314648  59.9916077  66.0087299
  59.5196915  60.9555292  65.5359411  58.4415531  60.0568819  66.6347456
  60.5479336  59.6522141  66.7542028  60.8275366  60.3853512  67.3073149
  58.7445545  57.6208735  65.6030798  57.6797819  57.5493765  66.2459469
  59.7161961  56.7492247  65.6214762  60.6391525  56.9794369  65.2819777
  59.6663237  55.4550600  66.2524652  58.6943293  54.9979258  66.0671186
  60.6890154  54.5641327  65.5034065  61.6049004  55.1121330  65.2821541
  60.9395933  53.6618519  66.0612535  60.1133871  54.0947819  64.2147589
  58.9338779  53.3696508  64.0990162  58.7426472  53.2064819  62.7646875
  57.8429222  52.7901554  62.3362255  59.8157978  53.6291790  62.0761204
  59.8198318  53.7256002  61.0707426  60.6159258  54.2337561  62.9413605
  61.5736055  54.7032022  62.7714539  60.0624657  55.5430508  67.7198744
  61.0907936  55.0164890  68.1530952  59.2626715  56.3522196  68.4828234
  58.5027981  56.8107557  68.0007029  59.3635321  56.6470337  69.9366045
  60.3156900  57.1742725  69.9958849  58.2512140  57.6776075  70.3638935
  57.3302412  57.1615791  70.0925589  58.1783628  57.9883432  71.8307924
  59.1508007  58.2637596  72.2389841  57.5596428  58.8697481  71.9993353
  57.7795029  57.1218729  72.3582792  58.3583117  58.9564848  69.4654465
  58.3448982  58.6826944  68.4104776  57.4199390  59.5091629  69.5112896
  59.5665026  59.8698521  69.8026705  59.3992805  60.0818777  70.8586979
  60.4959583  59.3298960  69.6219444  59.5636463  60.7876396  69.2146635
  59.4751072  55.4680920  70.8911037  60.4195833  55.5203581  71.6510153
  58.5560322  54.4835424  70.8809948  57.8257751  54.5280838  70.1846838
  58.7004519  53.3467817  71.7367887  59.5483732  52.7762699  71.3577938
  58.9267159  53.7466145  72.7252436  57.5874996  52.3279142  71.7854404
  57.1506214  51.6906929  70.7830572  57.2418165  51.9908857  73.0153513
  57.6013279  52.6406813  73.6999083  56.2499762  51.0756397  73.3996439
  55.5877829  50.8360052  72.5676680  56.9391108  49.7511435  73.8275194
  57.8401375  49.8585844  74.4314241  56.2750292  49.0355921  74.3123770
  57.4265862  48.9860630  72.5863123  56.6962719  47.9552794  72.0485115
  55.7626390  47.5713921  72.4323893  57.2523069  47.6270676  70.8737278
  56.7917061  47.0808029  70.1599073  58.3832645  48.3891010  70.6170082
  59.2687368  48.4921598  69.5524597  59.0141535  47.9948521  68.6281919
  60.3846312  49.3179893  69.6771049  61.0482311  49.4163942  68.8307238
  60.7268143  49.9755716  70.9150410  61.6541529  50.5275297  70.9573746
  59.7842407  50.0398779  71.9821835  59.9241543  50.5707026  72.9122639
  58.6123562  49.1830969  71.8160105  55.3457928  51.5559292  74.5547867
  55.7842255  52.3585558  75.3965950  54.1727257  50.9579420  74.6774817
  54.0589571  50.1433516  74.0913105  53.3154964  50.9665346  75.8328009
  53.8193750  51.5556717  76.5990448  52.0343304  51.7054081  75.3977060
  52.3770285  52.6439524  74.9620485  51.4990139  51.0902548  74.6744299
  51.2389898  52.0404148  76.6261101  50.9727955  51.1997080  77.2667789
  51.7130327  52.8055573  77.2408772  49.9597692  52.7212620  76.1943293
  50.0263786  53.4931040  75.4275656  49.4085264  51.8388987  75.8692646
  49.3540764  53.3552313  77.4574137  49.4662571  52.6991415  78.3205843
  49.9617910  54.2445517  77.6244116  47.9257870  53.7053204  77.1692848
  47.5457144  54.2746639  77.9119062  47.9833412  54.2328978  76.3099480
  47.3049212  52.9317141  76.9791031  53.0224228  49.5526361  76.3685751
  52.9412985  48.6779165  75.5046606  52.9104757  49.3776703  77.6140881
  53.0586529  50.2037191  78.1760359  52.6639843  48.1391907  78.4493971
  52.5397873  47.3032236  77.7610397  53.8601303  47.9141808  79.4134998
  53.9826488  48.8404989  79.9747658  53.5956144  47.0979643  80.0857449
  55.1782322  47.5685453  78.8434696  55.9344625  48.7194538  78.4469748
  55.5082083  49.6643400  78.7501049  57.2235823  48.5375118  77.9018688
  57.8479195  49.4083643  77.7668619  57.6192570  47.2058296  77.5605536
  58.5722113  47.0338345  77.0823240  56.7342329  46.1486864  77.7388430
  57.0610762  45.1499033  77.4898434  55.4684591  46.2533188  78.4002304
  54.8666525  45.4310560  78.7581491  51.3935518  48.3182144  79.1766834
  51.0622644  49.3889570  79.7424507  50.6560278  47.2290182  79.1753912
  50.9866762  46.4234400  78.6637115  49.2746687  47.1711779  79.6629953
  49.2241478  47.8627539  80.5039883  48.3208370  47.5479364  78.5254574
  47.3716259  47.7361536  79.0271282  48.6851692  48.7529516  77.6429224
  47.9937649  48.8526154  76.8061829  48.7318182  49.6721506  78.2268763
  49.6386194  48.4873343  77.1863317  48.2740545  46.4313984  77.6474571
  49.1305780  45.9988403  77.6768637  49.0523577  45.8222103  80.3153610
  49.6540022  44.8295879  79.9064445  48.2677698  45.7756615  81.4038181
  47.6488400  46.5338993  81.6530228  48.0588341  44.4937992  82.0686531
  48.9939928  43.9538336  81.9202614  47.7687836  44.7613859  83.5541534
  47.9566097  43.8850927  84.1745758  48.5334921  45.4475164  83.9182091
  46.7184925  44.9793053  83.7478447  46.9696188  43.5446930  81.5660858
  45.8720732  43.9643764  81.2713528  47.2516727  42.2134495  81.5518188
  48.1792593  42.0169926  81.8997955  46.3920784  41.1393976  81.1129665
  45.7451248  41.4582729  80.2957344  47.1087027  39.9326611  80.6914902
  46.3995886  39.1945434  80.3167248  48.0541897  40.2813482  79.4652748
  48.6989689  39.4090176  79.3585110  47.5053120  40.4633474  78.5413074
  48.5940742  41.2119055  79.6404600  47.8576326  39.4218016  81.7880535
  47.3141336  38.7501240  82.2064590  45.4007006  40.7903624  82.2477436
  44.2525148  40.4215860  82.0393467  45.9186649  40.8658028  83.5034943
  46.7893505  41.3719940  83.5794735  45.0530910  40.5993414  84.6812248
  44.2584085  39.9590564  84.2983150  45.8743095  39.8568964  85.7349682
  46.6741943  40.5209589  86.0625362  45.1832247  39.7579789  86.5720558
  46.2965441  38.4470081  85.4759502  45.4591179  37.9414701  84.9950600
  47.1071100  38.4437275  84.7472000  46.8798399  37.6905417  86.7063427
  47.8610706  38.1268144  86.8932819  46.1526108  37.7290535  87.5173664
  47.1265125  36.2780976  86.1841583  47.4364042  36.3648748  85.1427460
  47.8702831  35.8444619  86.8526459  45.8714962  35.5256224  86.3078499
  45.8496523  34.6245933  85.8520317  45.6229973  35.4999089  87.2864628
  45.1256418  36.0217643  85.8413219  44.6177912  41.9501400  85.1968956
  45.2961302  42.9142284  85.3477859  43.4590387  42.0865726  85.7092190
  42.8001976  41.3341284  85.5682945  42.7373886  43.3967113  85.9135151
  43.0874538  44.1531372  85.2111053  41.2539673  43.2415724  85.8706379
  41.0716248  42.3111963  86.4084625  40.7314444  44.0407801  86.3963223
  40.6876183  43.3077240  84.4942093  41.0695791  44.2412949  84.0811062
  41.1319685  42.4367285  84.0125179  39.1469002  43.2471514  84.3758011
  38.7845802  42.2535944  84.6397495  38.6936402  43.9262629  85.0979233
  38.6489058  43.6944199  83.0246639  39.3210340  44.5050335  82.7431488
  38.8166595  42.7565861  82.4951172  37.1791792  44.0718174  83.0204105
  36.7737818  43.4002161  83.6565685  37.0492697  45.0105238  83.3697796
  36.8047929  44.0153933  82.0840549  43.1624365  44.0576744  87.2278309
  43.2038116  45.2707767  87.2194862  43.4808683  43.3252192  88.2865715
  43.2344389  42.3458052  88.2973671  43.9049196  43.9248943  89.5606136
  43.4090757  44.8843622  89.7077942  43.7018824  42.9938889  90.8202362
  44.2558002  42.0554876  90.7942390  44.1124916  43.4546852  91.7186642
  42.1985340  42.7315950  91.0491180  41.2312126  43.4446049  90.5625343
  41.9065094  41.7162943  91.7210674  45.3795242  44.1613960  89.5592785
  46.2313128  43.4380579  90.1595306  45.8332872  45.1603270  88.8314533
  45.0883913  45.7775450  88.5411358  47.1874046  45.5953979  88.5903645
  47.8708315  45.1828814  89.3325615  47.6322269  44.8370314  87.2717667
  47.4399662  43.7653303  87.2209072  47.1893454  45.2879047  86.3836956
  49.1714525  45.1148891  87.1313286  49.4786930  44.6269941  86.2063026
  49.1839647  46.1726093  86.8683243  50.3540468  44.7025490  88.4532166
  49.8024893  43.1181097  89.1746521  49.9780321  42.3202372  88.4530640
  50.2864552  43.0270386  90.1470566  48.7465620  43.2502460  89.4105816
  47.2694731  47.0674562  88.6023617  46.4595985  47.7578306  87.9474735
  48.1999826  47.5670576  89.3701172  48.8206148  46.8771458  89.7687912
  48.5783005  48.9316225  89.5373535  48.1017447  49.6241617  88.8435459
  47.9370880  49.5321226  90.8627987  48.0954552  48.8894367  91.7288113
  48.4319496  50.4888868  91.0295677  46.5986824  49.7249317  90.5537319
  46.5442562  50.5725956  90.1063919  50.1114893  49.1848516  89.6129227
  50.8196306  48.6976719  90.5485821  50.6918573  49.9101305  88.6270428
  52.1508932  50.2038574  88.5558796  52.7552509  49.4168377  88.1048203
  52.6074457  50.3434658  89.5357609  52.3036671  51.4259577  87.7281094
  53.2355452  51.4476204  87.1631050  52.1750164  52.2671127  88.4092903
  51.1444759  51.3799238  86.6766739  51.4784670  50.9036493  85.7548809
  50.6639814  52.3491669  86.5432930  50.0791740  50.4862642  87.3643303
  49.3313980  51.1685896  87.7685165  49.5160437  49.5347548  86.4449978
  50.1030540  48.5219812  86.1004925  48.2725763  49.8344231  86.0866451
  47.9175758  50.7388020  86.3626385  47.5097704  49.1562271  85.0469875
  47.6086521  48.0771494  85.1649380  45.9962177  49.5714045  85.1001358
  45.6519556  49.2233992  86.0740280  45.8576584  50.6489563  85.0118923
  45.0657701  48.9254236  84.0548229  44.0429115  49.1533756  84.3546486
  45.2939844  49.2403126  83.0365562  45.2120495  47.4026632  84.0479660
  45.2744675  46.7838478  83.0384254  45.2973509  46.7980051  85.2455807
  45.4190731  45.7954073  85.2365112  45.1547575  47.3631763  86.0704041
  48.2701254  49.4285297  83.7304592  48.4189367  48.5421371  82.8487587
  48.7849045  50.5976534  83.4831238  48.6215496  51.3178110  84.1721725
  49.5942354  50.8692789  82.2931480  49.9899483  49.8906136  82.0216179
  48.6953163  51.4192581  81.1313152  49.2965889  51.3539457  80.2245045
  47.8203869  50.7702589  81.0938358  48.1545782  52.8511953  81.2884998
  49.0476847  53.4699917  81.2015915  47.5552893  53.0877686  80.4092979
  47.3474121  53.3120584  82.5443935  46.5132809  52.6143837  82.6190662
  47.9211235  53.2891035  83.4709072  46.6415119  54.6695471  82.2137356
  47.4133921  55.4047775  81.9862747  46.1050701  54.6187449  81.2662411
  45.8027172  55.0955105  83.3456898  46.3921928  55.2496910  84.1512108
  45.3297186  55.9661293  83.1497383  45.0198555  54.4887781  83.5434341
  50.8171797  51.7214203  82.5026798  50.8059072  52.6579809  83.3059311
  51.8468237  51.4800739  81.7159081  51.7653894  50.8363533  80.9418964
  53.1139183  52.2286463  81.7979908  52.8913069  53.2559633  82.0863724
  54.1525221  51.6094828  82.7775192  54.9124575  52.3662663  82.9721642
  53.6133289  51.4769983  83.7155056  54.7908258  50.3063059  82.4621773
  54.1038799  49.1252565  82.7194405  53.1091738  49.1293669  83.1400871
  54.7457933  47.8644228  82.4903870  54.2164421  46.9428730  82.6825523
  56.0784674  47.8152132  82.0425797  56.5215778  46.8358660  81.9380569
  56.7169666  48.9858961  81.7253971  57.7059078  48.9635229  81.2919235
  56.1175680  50.2399540  82.0093632  56.5706396  51.1804581  81.7326164
  53.7767458  52.3188353  80.4059982  53.3997726  51.6598797  79.4154549
  54.8859978  53.0918884  80.3031731  55.1840019  53.6227942  81.1090469
  55.5605507  53.3670330  79.0333796  55.0792694  52.7494049  78.2750893
  55.3630638  54.8517132  78.7242746  55.9517622  55.3817749  79.4729900
  55.8478594  54.9444914  77.7524328  53.9791679  55.3575373  78.6025333
  53.2357788  55.8160019  79.6662569  53.6400175  55.9144735  80.6628990
  52.0956039  56.4039087  79.1930151  51.3320351  56.7814112  79.7357464
  51.9382000  56.2171555  77.8106976  51.0210085  56.6249752  76.8653584
  50.2223110  57.2835445  77.1732187  51.0694647  56.2488794  75.5585575
  50.3367519  56.6368484  74.8664427  52.1018267  55.3572655  75.2205849
  52.3103285  55.0221872  74.2152691  53.1096411  54.9464226  76.1729002
  53.9812660  54.4328070  75.7949257  53.0281591  55.4268408  77.4795914
  57.0724440  52.9975986  79.0347338  57.7496004  53.1003189  80.0351238
  57.5472736  52.6365662  77.8286362  57.0220089  52.6528025  76.9661188
  58.9746714  52.4955273  77.5167370  59.5695686  52.8928614  78.3391237
  59.3288040  51.4888477  77.2947216  59.3135166  53.2803202  76.2504196
  58.9510059  52.9245853  75.0985909  59.9764299  54.4221687  76.5060806
  60.2248573  54.5888996  77.4707508  60.1773930  55.4436541  75.4201126
  59.7008324  55.1437616  74.4868088  59.5234966  56.8294525  75.8329248
  60.1376390  57.3978138  76.5314198  59.5346260  57.3559523  74.8785830
  58.0574179  56.8682766  76.3044071  57.8688192  56.2903786  77.2091532
  57.7057076  58.2537985  76.7595816  58.5449314  58.5608530  77.3836946
  57.6871872  58.8724184  75.8623219  56.7406225  58.3690453  77.2529650
  57.0593262  56.3503981  75.3191757  57.0959234  57.0484066  74.4827890
  57.3147488  55.3381824  75.0056791  56.0474920  56.4297247  75.7166767
  61.6452456  55.5861712  75.1654053  62.5760078  55.6364202  76.0066795
  62.0114851  55.3905821  73.9467287  61.2922430  55.4778385  73.2430410
  63.4430456  55.3461981  73.5324383  63.8899469  54.8131990  74.3716574
  63.4749842  54.5064783  72.2378445  64.4965744  54.1809607  72.0416069
  62.7670622  53.1239033  72.2651052  61.7162895  53.2439375  72.0013428
  63.3899498  52.4192953  71.7140722  62.8650045  52.8174686  73.3065510
  63.0154896  55.2104235  71.0716248  62.0750809  55.3317499  71.2216616
  64.2523098  56.6087723  73.2753515  63.8596058  57.5742865  72.6060438
  65.5130053  56.6880608  73.7941980  65.7655382  55.8450937  74.2899179
  66.3915014  57.8729439  73.5907555  65.8485126  58.8155079  73.6603355
  67.5585270  57.7463484  74.6345425  67.1963215  57.5655270  75.6465769
  68.1682444  56.9021845  74.3124628  68.4324408  58.9550972  74.8496962
  67.8558111  59.8535776  75.0695324  68.9303637  58.6838913  75.7806206
  69.5182657  59.2966700  73.8011408  68.9737082  59.7529078  72.9744577
  70.2277374  60.0444031  74.1556072  70.3453636  58.1400585  73.4734154
  70.4549599  57.3979378  74.1496944  71.0268879  57.9512072  72.4027395
  70.9986734  58.7931490  71.3785267  70.5193758  59.6820211  71.3617039
  71.6986465  58.6983013  70.6566286  71.8526411  56.9427204  72.1427488
  71.9187689  56.2050629  72.8294754  72.3943710  56.9540882  71.2903976
  66.8596506  57.9785156  72.1092796  67.1885347  59.0479565  71.5660667
  66.9121647  56.8791246  71.3894606  66.8512106  55.9952164  71.8743181
  67.1374702  56.8902445  69.9810982  68.1619215  57.2485256  69.8798943
  67.1653032  55.3970814  69.5439434  67.4653006  55.3372812  68.4977484
  68.0258417  54.9220085  70.0149918  66.0103750  54.6185589  69.7145128
  66.2401533  53.6921263  69.6119356  66.1932993  57.7346420  69.0952969
  66.6468668  58.1602764  68.0710602  64.9653053  57.9836178  69.4516706
  64.6978664  57.4587917  70.2721167  63.9268112  58.7400055  68.7819004
  64.3658495  59.0058088  67.8202915  62.8606129  57.7463579  68.4808111
  62.5344324  57.1710777  69.3472719  62.0611811  58.3284998  68.0224085
  63.1363630  56.9742060  67.7625942  63.4076071  59.9638271  69.5310211
  62.6910639  60.7394981  68.9287758  63.8026953  60.1448727  70.8006954
  64.1948795  59.2885542  71.1653948  63.5268450  61.2288570  71.7092514
  62.5973129  61.6968918  71.3851833  63.3004379  60.7560730  73.1423998
  64.1322803  60.1187086  73.4422398  63.3133936  61.4964247  73.9422798
  61.9352770  60.1442289  73.4264040  61.7802858  59.3540096  72.6917982
  61.8961096  59.4338655  74.8068476  60.8632040  59.1594982  75.0211334
  62.5153351  58.5417700  74.7128773  62.1812248  60.0545931  75.6562614
  60.6808615  61.0740662  73.2825279  60.8450222  61.8109798  74.0687227
  60.7001162  61.5107203  72.2839975  59.7277594  60.5463886  73.2469845
  64.7045755  62.2808981  71.6917753  65.7752037  62.1288109  71.0678768
  64.5140409  63.4214687  72.3292971  63.6487389  63.5041571  72.8436136
  65.5757570  64.4779968  72.6053667  66.5570974  64.0040827  72.6270628
  65.6332636  65.5307722  71.4449978  65.6061172  64.9306631  70.5354738
  64.5008612  66.5160799  71.3504076  64.4146061  66.9471550  70.3529882
  63.4922695  66.1178589  71.4611340  64.6109200  67.2783804  72.1216965
  66.9222736  66.2445784  71.3497019  66.9864178  66.8525553  72.2521162
  67.6966238  65.4779053  71.3760090  67.1022797  66.9818115  70.0247955
  66.3141155  67.7073240  69.8234558  68.0002880  67.5965023  70.0867128
  67.2712898  66.2043571  69.2797470  65.4414845  65.1224041  74.0165758
  64.2910337  65.4755783  74.3767118  66.5442944  65.3241587  74.8358488
  67.9090977  64.8929071  74.5998716  68.3856821  65.1023674  73.6422205
  67.9376984  63.8328648  74.8520470  68.7840319  65.4496193  75.7029676
  69.1323090  66.4145613  75.3346062  69.5308781  64.6971512  75.9561729
  67.8104496  65.7601547  76.8598318  68.1696463  66.6489935  77.3785257
  67.6025677  64.8839235  77.4739122  66.5255880  66.1007261  76.0908890
  65.6822777  65.7426643  76.6814232  66.3318634  67.6206064  75.9334135
  66.7861891  68.2197857  74.9390554  65.5214500  68.2069302  76.8022871
  65.1295519  67.7417421  77.6085854  65.1913738  69.6684217  76.8246555
  66.0123634  70.2162075  76.3620472  63.8762999  69.9895668  76.1312628
  63.0883169  69.5906162  76.7700243  63.6683798  71.5086651  75.9583664
  62.7325487  71.8593740  75.5232525  63.5904360  71.9765425  76.9397497
  64.4000340  71.9903469  75.3097010  63.7659359  69.2867088  74.9118185
  63.8040161  68.3427143  75.0821638  65.0353527  70.1743126  78.3048487
  64.4333935  69.3939972  79.1253757  65.5437660  71.2269831  78.6878061
  57.7477646  63.5253668  65.9296894  66.3485909  42.9716253  48.0924654
  65.3989029  43.3073664  48.1664848  66.4746237  42.4284887  48.9346170
  66.3227081  42.3038149  47.3352003  67.2288990  44.1667652  47.8604364
  68.2341909  43.7607431  47.7480745  66.8666506  44.8079872  46.5513849
  66.9074297  43.9491844  45.8813858  65.8224392  45.1115084  46.4765978
  67.8899622  45.9117270  46.1746120  68.8637781  45.6470203  45.1734304
  68.9201546  44.7430372  44.5851755  69.8571014  46.6240788  45.0172043
  70.6776237  46.3738871  44.3610382  69.8998785  47.8404713  45.6815195
  70.7384109  48.5051680  45.5350733  68.8426924  48.1690216  46.5510130
  68.8297558  49.1082144  47.0840740  67.8677225  47.1640444  46.8440151
  67.0798063  47.3589420  47.5564766  67.0597410  45.1192570  49.0154552
  65.8846903  45.4578352  49.3461752  68.1246567  45.6015396  49.6871901
  69.0459204  45.5399275  49.2778158  68.0459499  46.3213110  50.9357500
  67.0274162  46.3757706  51.3200998  68.7364006  45.5840397  52.0593071
  69.5633841  45.0047588  51.6486645  69.0629435  46.4219236  53.3226538
  68.2454777  46.8354797  53.9132643  69.6138287  45.8217192  54.0467930
  69.8620367  47.0975685  53.0176067  67.7471972  44.4374514  52.4591875
  66.7805767  44.7153568  52.8793192  67.4890852  43.9610863  51.5133762
  68.4140110  43.3576822  53.3279133  69.1029215  42.7574968  52.7335405
  68.9404297  43.7864780  54.1806269  67.7435970  42.5953484  53.7247658
  68.5471392  47.7907467  50.8017206  69.7898102  48.0184031  50.5848837
  67.7127266  48.7812233  51.0111904  66.7286539  48.5753059  51.1076641
  68.1711292  50.2057886  50.9550190  68.9472914  50.4113293  50.2178478
  67.0019674  51.1235142  50.5693436  66.0621786  50.7136965  50.9394217
  66.9852877  52.6296091  50.8715868  66.0544157  53.0762577  50.5221891
  67.0683050  52.9054499  51.9228363  67.7192211  53.1081772  50.2231884
  67.0574999  51.0313797  48.9928865  67.8651094  51.6739368  48.6421919
  67.2552729  50.0460625  48.5708141  66.1316776  51.4622879  48.6117411
  68.7242413  50.6577396  52.3373079  68.1443405  50.3697777  53.3916426
  69.9598312  51.2330198  52.3418713  70.2457047  51.5218925  51.4172459
  70.7434082  51.8079853  53.4259415  71.7596436  52.0823669  53.1429577
  70.2377844  52.6629400  53.8748264  70.9927511  50.8198929  54.5712423
  71.0314322  51.2582064  55.7549572  71.0938644  49.4994831  54.2394876
  71.2323666  49.3199587  53.2552671  71.2500906  48.4024572  55.2041674
  71.4941216  47.4963427  54.6496296  72.1139002  48.7537575  55.7685423
  70.1044416  48.1479549  56.1680508  70.2590609  47.6092625  57.2622156
  68.9099216  48.6856985  55.8534479  68.8326168  49.1732025  54.9722767
  67.7094793  48.8249016  56.7837000  67.6674557  48.0033922  57.4988604
  67.9873037  50.1064873  57.5006485  69.0102816  50.0704002  57.8752375
  67.9138565  50.9724903  56.8428183  67.0529032  50.4585648  58.7067795
  66.0911417  50.7224798  58.2669306  66.9586754  49.5808601  59.3461990
  67.7078342  51.6548252  59.5452642  68.7476301  51.5081263  59.8375177
  67.6349306  52.4820995  58.8392925  66.9029808  51.9382715  60.8033562
  66.7311192  51.0975790  61.4755201  67.4539137  52.7199078  61.3264465
  65.5497265  52.3922729  60.4179811  65.1323032  52.9320812  61.1626053
  65.4894161  53.0792236  59.6800327  64.8577118  51.6922283  60.1918221
  66.3366222  48.8632679  56.1356735  65.4062939  48.4465122  56.7745781
  66.1121511  49.3004942  54.8727369  66.8643713  49.8800087  54.5285988
  64.8549652  49.5410824  54.2011261  64.0336132  49.3225670  54.8835707
  64.7413063  50.9711361  53.7477827  65.5882978  51.2382936  53.1158590
  63.7776232  51.0795546  53.2501221  64.8407984  51.9884109  54.8867607
  63.7189722  52.1975422  55.6983328  62.7800655  51.6801548  55.5672979
  63.8634253  53.1058979  56.7952919  63.0098772  53.2574892  57.4393988
  65.0940609  53.7015390  57.0794582  65.2861214  54.3442631  58.2792616
  65.9910107  54.9958849  58.2900047  66.2275934  53.4806538  56.2356377
  67.1789455  53.8298512  56.6089964  66.0908461  52.6461887  55.1484442
  67.0031214  52.4839973  54.5936060  64.7588682  48.4991550  53.0645752
  65.0269079  48.7696981  51.9140148  64.3547249  47.2585058  53.4611130
  63.9748240  47.2420311  54.3967962  64.2144108  46.1110640  52.5614691
  65.1323414  45.9481716  51.9966936  63.9394808  44.9082994  53.4825945
  64.8421431  44.8051023  54.0848017  63.2030106  45.1668262  54.2434311
  63.6411619  43.6222649  52.8030300  62.8648281  43.7299538  52.0455265
  64.5106745  43.4210443  52.1772861  63.3615065  42.4771118  53.7929678
  63.8526249  42.7770805  54.7186661  62.3427677  42.5258541  54.1775417
  63.6239386  41.1039543  53.2024479  62.8092766  40.8390379  52.5284672
  64.5793390  41.0288382  52.6831484  63.6087084  40.0257540  54.2388296
  63.8975668  39.1474628  53.8323021  64.2866755  40.1879454  54.9696875
  62.6925182  39.9479747  54.6567392  63.0819464  46.3073397  51.5714693
  61.9974422  46.5778446  52.0609426  63.3179665  46.0743904  50.2746725
  64.2738962  45.9160757  49.9896526  62.3180389  46.1775827  49.2606544
  61.7057943  47.0439959  49.5108366  63.0516338  46.3646173  47.9135561
  63.6553335  45.4880142  47.6785755  62.2821999  46.3248062  47.1425247
  63.7928247  47.7384329  47.7989483  64.7412157  47.6747322  48.3324289
  64.1889572  48.0319977  46.3555861  64.8733759  48.8795519  46.3918161
  64.6467829  47.1477509  45.9121799  63.3143568  48.2815838  45.7548475
  63.0770874  48.9817095  48.3712482  63.3646107  49.1882849  49.4021511
  63.4498119  49.8639870  47.8508997  62.0032549  48.8756704  48.2171535
  61.3952494  45.0233746  49.2094231  61.7860699  43.9433193  49.6262884
  60.1874495  45.2761364  48.7199879  60.0312138  46.1999846  48.3429098
  59.0530252  44.3415117  48.7658548  59.4122410  43.3391142  48.9987993
  58.0899715  44.5474339  49.9201632  57.7204180  45.5506802  49.7079802
  56.9043922  43.5852861  50.1339436  56.3739538  43.9972448  50.9924459
  56.2665224  43.5355520  49.2514753  57.2408867  42.5696611  50.3422022
  58.8573837  44.5581007  51.2434101  58.1376314  44.7994041  52.0256042
  59.2694998  43.5739326  51.4663029  59.6014977  45.3468132  51.3544369
  58.4763622  44.1699934  47.4052382  58.7289238  43.1092548  46.8161535
  57.9644918  45.1765203  46.6939402  57.9964542  46.1054850  47.0890427
  57.4594975  45.0376558  45.2832699  58.2532644  44.5977926  44.6794844
  56.1752224  44.1907072  45.1650524  55.7970476  44.2725992  44.1460419
  56.4225149  43.1676865  45.4485607  55.0382042  44.7136784  46.0293818
  55.2601767  45.0413132  47.0450020  54.6019697  45.6157875  45.6004286
  53.8769054  43.6737299  46.0831547  53.7045479  43.2493687  45.0940561
  54.2796040  42.8482437  46.6701126  52.6807880  44.2179441  46.7927742
  52.3329258  43.7141371  47.5960636  51.8755579  45.1425791  46.3958693
  51.9371414  45.7744741  45.2229404  52.5830650  45.4413652  44.5215702
  51.1359262  46.3132334  44.9264765  50.9158278  45.4623461  47.1926880
  50.9403658  45.1560640  48.1548166  50.1096821  45.9674788  46.8534756
  57.2847557  46.4068508  44.5958996  57.1403074  47.4064302  45.3048086
  57.3848057  46.5021420  43.2831144  57.5983238  45.6857157  42.7281761
  57.1840477  47.8050470  42.4967003  57.7972651  48.5553932  42.9957485
  57.8948689  47.6959753  41.1069965  58.8936901  47.3834467  41.4116001
  57.4514484  46.8753719  40.5429983  57.9225254  49.0277386  40.2592802
  56.9790888  49.5578241  40.1287603  58.6143589  49.6987724  40.7683754
  58.4844780  48.6805105  38.8428617  59.5431519  48.4408855  38.9423108
  57.9565096  47.8986549  38.2969213  58.3819246  49.8549461  37.9561758
  57.3028564  49.8948193  37.8074145  58.6631727  50.7728052  38.4724474
  59.0786839  49.6560192  36.6490221  58.7519598  48.8901377  36.0773754
  59.1156054  50.5532837  36.1867905  60.0654125  49.4412661  36.6305089
  55.7893467  48.2867146  42.2790575  55.0252914  47.5370836  41.6600275
  55.5608749  49.5476437  42.6341391  56.2639618  49.9743032  43.2204199
  54.2308760  50.1310825  42.6830101  53.5723400  49.4998550  42.0863628
  53.7455940  50.2614164  44.1586399  52.8078890  50.8167887  44.1778946
  53.3604383  48.8828278  44.7624159  52.8268623  48.2538700  44.0498066
  54.2352247  48.5116100  45.2963209  52.6804686  49.1063166  45.5844831
  54.7552490  51.0866261  45.0079155  55.7414103  50.6248093  44.9598265
  54.8183489  52.0892954  44.5850801  54.3792343  51.0706949  46.5256023
  53.3159208  51.2432289  46.6920137  54.6539974  50.1185179  46.9794321
  54.9028826  51.8902111  47.0178318  54.1758060  51.4904737  41.9558096
  53.2077980  52.1933317  41.9912481  55.2672005  51.9473743  41.3277006
  56.0927296  51.3678837  41.3805676  55.3936195  53.2126665  40.5934238
  54.4182205  53.4658289  40.1779556  55.5874538  53.9559317  41.3667822
  56.4246559  53.2570696  39.5359135  57.4320459  52.6304531  39.5969105
  56.1153650  54.1802454  38.5806036  55.2730179  54.7367430  38.6099243
  57.0293379  54.6274519  37.5545835  57.9837036  54.7514772  38.0663466
  57.2683096  53.5879183  36.5712690  57.4312687  52.6293135  37.0638347
  56.3231564  53.4946203  36.0364032  58.4334755  53.8559484  35.8745146
  59.1837025  53.5419750  36.3845992  56.6103172  55.8973455  36.9101214
  55.4231644  56.1756992  36.6963243  57.4990511  56.7812014  36.5766311
  58.4646988  56.6017437  36.8120623  57.2608232  57.9856873  35.7690549
  56.6938925  57.7808285  34.8609114  56.7416859  58.7481880  36.3497305
  58.5065699  58.6629248  35.2994847  59.5408154  58.0464792  35.4606271
  58.4756804  59.9404144  34.8808002  57.5593376  60.3199863  34.6901488
  59.5874023  60.6757689  34.4286633  60.0314856  60.1540041  33.5809231
  59.1615438  62.0442152  33.9840293  59.9675655  62.5356913  33.4391594
  58.3526564  61.8762207  33.2729864  58.8733435  62.8739595  35.0358748
  57.9700089  62.6767159  35.2941084  60.8060408  60.7470560  35.3872657
  61.9495296  60.8949757  34.8875618  60.5553961  60.6276751  36.7063260
  59.5956659  60.7100010  37.0100427  61.6241074  60.4938841  37.7666354
  62.2991228  61.3488960  37.7291369  60.9861422  60.4960060  39.1542816
  61.7737961  60.2685213  39.8725843  60.7263947  61.5394783  39.3326044
  59.8411942  59.5134115  39.4894075  58.5372353  59.7170210  38.8970423
  58.3187342  60.6388140  38.3784294  57.5332499  58.8603020  39.0916300
  56.5863514  59.0997028  38.6306691  57.7510118  57.6694489  39.8395514
  56.9113207  56.9951630  39.9211931  59.0345907  57.3998356  40.3257322
  59.2118263  56.4178705  40.7389259  60.0682592  58.3367109  40.2431059
  61.0828733  58.0619287  40.4909992  62.4585390  59.2704916  37.6532078
  63.6528730  59.2571735  37.9414558  61.8051767  58.1223583  37.4039769
  60.8186436  58.1155872  37.1876192  62.3553181  56.7836571  37.7490950
  62.9217577  56.3750029  36.9122839  63.0718994  56.8071795  38.5701060
  61.2858152  55.7548094  38.1587052  60.3524017  55.6338453  37.3732495
  61.4351034  55.0594425  39.3535042  62.0906401  55.4210138  40.0314713
  60.4733229  54.0814114  39.8067141  59.5453787  54.2108297  39.2496920
  61.0120106  52.6659346  39.5571423  61.9152641  52.4674940  40.1340771
  60.2253246  51.9995975  39.9110031  61.1888981  52.2344303  38.1425118
  60.3340197  52.5461674  37.2462130  61.9927406  51.2636805  37.8962874
  60.2044153  54.1270781  41.3509321  60.7545567  54.8506069  42.1592617
  59.1464710  53.4162664  41.7535973  58.6066818  52.9195833  41.0593128
  58.7276077  53.3815813  43.1868505  59.6022797  53.7248468  43.7393188
  57.4607992  54.2512178  43.5482502  56.5838909  53.6902332  43.2250834
  57.3308802  54.5397425  45.0452757  58.2105637  55.1167107  45.3305149
  56.5025949  55.1977301  45.3081369  57.4267387  53.6875391  45.7180738
  57.5085497  55.6058121  42.8042698  58.5689211  55.8548641  42.8453398
  57.2489166  55.5165720  41.7494059  56.6513586  56.8159199  43.2927895
  57.0022297  57.1834803  44.2570972  56.8654823  57.5712919  42.5366974
  55.6126308  56.5304899  43.4591579  58.5114574  51.9329453  43.7107229
  57.9832935  51.1106253  42.9638100  58.7520599  51.7150736  45.0222206
  59.1260862  52.5088024  45.5224228  58.6816406  50.3929758  45.7173252
  58.1000233  49.7211838  45.0860500  60.0645733  49.7745562  45.8143759
  60.7952833  50.5525780  46.0353708  60.0854349  49.0580988  46.6355705
  60.5849981  49.0813398  44.5544386  61.1848783  49.8225069  43.5375404
  61.1835241  50.9021568  43.5649490  61.8647766  49.1779613  42.4875689
  62.2280836  49.7461605  41.6440296  61.9237232  47.7618647  42.4548006
  62.5549459  47.0847034  41.4221716  63.1831026  47.5931311  40.9039783
  61.2398672  47.0434952  43.4499502  61.1884022  45.9648609  43.4672308
  60.4958296  47.6913404  44.4621181  59.8618174  47.1280622  45.1308107
  57.9687691  50.5377769  47.1047068  58.4094143  51.3171673  47.9366541
  57.0779848  49.5851946  47.3779726  56.8158484  48.8874674  46.6963816
  56.8489456  49.0776873  48.7218094  56.6785097  49.9288082  49.3810892
  55.7101202  48.0776596  48.7418890  55.1689959  48.1311131  47.7972078
  56.1911392  47.1016169  48.8057137  54.5717239  48.3187628  49.7316933
  54.0862703  49.2887688  49.6243334  53.5696316  47.1447229  49.6773624
  53.2835007  47.0015764  48.6353779  53.9666796  46.2148237  50.0844860
  52.6284838  47.3820162  50.1733780  54.9954939  48.1664324  51.1184406
  55.3982401  47.1718121  51.3098001  55.7940197  48.8974714  51.2450647
  54.0645885  48.2467937  51.6797447  58.1477261  48.4290886  49.2288446
  58.8493681  47.7183151  48.4722805  58.3443403  48.5750914  50.5703068
  57.6971865  49.2051601  51.0223103  59.5081043  48.1571627  51.3169336
  59.8226786  47.2055101  50.8885670  60.5823660  49.2127419  51.2066984
  60.7861090  49.1340876  50.1388025  60.2424431  50.1898003  51.5500832
  61.4386940  49.0082693  51.8493414  59.0978622  48.0981016  52.7572775
  58.1803560  48.7737846  53.1563997  59.8395252  47.4777555  53.6241007
  60.7671356  47.2257948  53.3140135  59.7059250  47.2157717  55.0516033
  59.0529585  47.9224205  55.5638361  59.2991638  45.7468796  55.3595734
  59.8299074  45.1466036  54.6205997  59.5893621  45.2755880  56.7846584
  59.6500444  46.1242437  57.4659777  58.9144087  44.5419836  57.2255230
  60.5788040  44.8245144  56.7096519  57.8163719  45.6129074  54.9998665
  57.2746944  46.2309837  55.7158756  57.5711870  46.1249018  54.0693569
  57.1498728  44.2503023  55.0876856  56.2970114  44.2311764  54.4091892
  57.8268814  43.5280418  54.6315098  56.8162441  43.8541317  56.0467720
  60.9886169  47.5958157  55.7596397  62.0535326  47.3285341  55.2269125
  60.7965708  48.3122253  56.8503904  59.8089075  48.4272766  57.0275497
  61.7547655  49.0196180  57.7254105  62.5589657  49.2651272  57.0317984
  60.9761095  50.2567244  58.2145929  60.4922915  50.7917643  57.3974228
  60.1854229  50.1003361  58.9483881  61.9298172  51.3570118  58.9165401
  63.1619549  51.2601042  59.0662479  61.3301706  52.5686073  59.2587852
  61.8910599  53.3232498  59.6275902  60.3839445  52.7194548  58.9394093
  62.2237968  48.0961895  58.9217758  61.6297245  48.0739832  60.0322819
  63.1152058  47.1140432  58.5750055  63.6553288  47.2703362  57.7359915
  63.3901262  45.8379126  59.2970133  62.5060797  45.2131224  59.1697550
  64.4878531  45.0041056  58.6166430  64.3745565  44.0001249  59.0256548
  64.2913818  44.9230003  57.1289635  64.4483519  45.8715725  56.6154718
  64.8046255  44.1371012  56.5748501  63.2222605  44.7304964  57.0393896
  65.9431744  45.5101156  58.9102030  65.9702063  46.5996313  58.8922834
  66.1275625  45.2294111  59.9471760  67.1407938  44.8499012  58.1344938
  66.9331980  43.7800694  58.1560850  67.2200727  45.3193808  57.1539783
  68.0919695  45.0215769  58.6383677  63.7299013  45.9310532  60.7295132
  63.5812473  44.9586058  61.5021324  64.0309095  47.1282530  61.1683273
  64.1138649  47.9387474  60.5714035  64.3189049  47.4061251  62.5514650
  64.8952055  46.5594149  62.9243708  65.3661394  48.5891294  62.6797867
  65.5464268  48.9315701  63.6987782  66.7822266  48.1395721  62.2557116
  67.3459482  47.7781630  63.1157684  66.7397070  47.3535824  61.5017080
  67.3339176  49.0124464  61.9066668  65.0196362  49.6519089  61.8567562
  64.2369413  50.0354719  62.2590876  63.0475760  47.7433968  63.4013748
  63.1771946  47.8750086  64.6608305  61.8719721  47.9323530  62.7128077
  61.8504477  47.7757883  61.7152452  60.6163788  48.5471678  63.2915354
  60.6132317  48.4408665  64.3763351  60.6270409  50.0537777  62.9811478
  60.4785299  50.1765919  61.9083166  59.7920275  50.5614662  63.4639645
  61.8168354  50.8734179  63.5238838  62.8229570  50.9089804  62.9288769
  61.7826176  51.3406801  64.7506332  62.5655079  51.8579006  65.1243591
  60.9475517  51.2011194  65.3013468  59.3057871  47.7616215  62.9087257
  58.2794905  48.0261135  63.4705400  59.2954683  46.8334818  62.0210695
  60.1828909  46.4479256  61.7313719  58.1125689  46.1549759  61.4217472
  58.4435272  45.4471445  60.6617832  57.5608587  45.5453920  62.1373796
  57.0666742  47.0160151  60.8297873  55.9049225  46.6487408  60.8292866
  57.4957466  48.1719637  60.3344774  58.4842634  48.3543205  60.2360725
  56.6158199  49.1670990  59.6171999  55.5608082  48.9092827  59.7098541
  57.0255470  50.5920649  60.1618242  56.8996096  50.5976582  61.2445116
  58.1075621  50.6665659  60.0531721  56.3711166  51.8134594  59.5479202
  56.2232018  51.7652273  58.4690762  55.3527260  51.9585609  59.9083757
  57.0884132  53.1354618  59.8359203  56.4944220  54.1802931  60.1637411
  58.3051968  53.2580423  59.5543051  56.8639612  49.1004276  58.0492544
  57.9986811  49.1261673  57.5189400  55.8287525  48.9693022  57.2393608
  54.8752213  48.8767242  57.5592375  55.9268045  49.1409397  55.7654285
  56.7902088  48.5334539  55.4941607  54.7217655  48.5678530  55.0630093
  53.8374615  49.1781807  55.2463436  54.8471642  48.7400484  53.9940262
  54.4100094  47.1002865  55.2645445  53.7239170  46.8747759  54.4481373
  55.3478765  46.5593004  55.1386738  53.7158442  46.8076420  56.5544891
  52.9713011  47.6845551  57.0197964  53.8340521  45.6979275  57.0820856
  56.1799288  50.6529427  55.3977728  55.5935717  51.5377617  55.9943199
  56.9391537  50.9669495  54.3555737  57.2617149  50.2205324  53.7564802
  57.4469280  52.3656416  53.9380980  56.7040586  53.1097698  54.2253828
  58.7985039  52.6523352  54.6166372  59.2424393  53.5586214  54.2047310
  58.5492802  52.7607489  56.1683941  57.6869869  53.4060097  56.3362980
  58.4092045  51.7475748  56.5451765  59.3805981  53.3044100  56.6172075
  59.8619843  51.5730429  54.3724346  60.8031082  51.9692373  54.7537661
  59.5760536  50.5626345  54.6646976  60.1843882  51.7230606  53.3420706
  57.5822544  52.3879910  52.4417543  57.5811863  51.3530064  51.7852211
  57.6108217  53.5946798  51.7913818  57.6933813  54.4225883  52.3639631
  57.7386141  53.6924124  50.3369617  57.6110601  52.7120018  49.8780203
  56.5387249  54.4721317  49.9252987  55.6407595  53.8917303  50.1371574
  56.5308332  55.4486465  50.4095078  56.6449690  54.5483017  48.8431692
  59.0383196  54.2999172  49.9178267  59.5135689  55.2565002  50.5068970
  59.6060991  53.6995840  48.8037682  59.1955042  52.8768492  48.3859015
  60.9362650  54.0868187  48.3815479  61.3345146  54.8654842  49.0320730
  61.8285513  52.8516245  48.4467268  61.4782810  52.1321535  47.7066088
  63.3103085  53.1056881  48.0440617  63.7885714  53.8851738  48.6371660
  63.8835573  52.1826029  48.1301212  63.3579683  53.3717823  46.9881153
  61.8535805  52.1585798  49.7864342  62.5572586  52.7275610  50.3940487
  60.8749056  52.2592258  50.2556610  62.2529602  51.1508703  49.6718884
  60.8376932  54.6203327  47.0026541  60.4407692  53.8605261  46.0966730
  61.3423204  55.7918262  46.7685986  61.8434715  56.2531519  47.5143385
  61.4090109  56.3457727  45.3881121  60.9038305  55.7043266  44.6659994
  60.7301950  57.7324200  45.3860807  59.7138834  57.6765680  45.7760763
  61.3419437  58.4200907  45.9700060  60.5529594  58.3563089  44.0090656
  61.5120316  58.5662985  43.5355806  59.8699141  57.7257729  43.4398890
  59.8409319  59.7317600  44.2510271  58.9477301  59.6123600  44.8642445
  60.6032372  60.3264570  44.7543430  59.5526505  60.2907991  42.8344107
  60.4319954  60.2305889  42.1931410  58.8529491  59.5537853  42.4402809
  58.9070368  61.6113234  42.8462934  59.4003201  62.2404718  43.4634924
  58.8425875  61.9793463  41.9079399  57.9550505  61.6389179  43.1825352
  62.8962564  56.3796186  44.9959564  63.7889004  56.8154526  45.7970715
  63.0904293  55.9485197  43.7539101  62.4019670  55.5918312  43.1066895
  64.4707584  55.9056711  43.0776548  65.2623940  56.1433506  43.7882328
  64.8085356  54.4696951  42.7015829  64.1180515  54.1910744  41.9055271
  65.7991266  54.5056820  42.2482252  64.6623325  53.3797073  43.8131332
  64.2732859  53.7819338  44.7485256  63.5657597  52.4510956  43.2916975
  63.3427095  51.6540861  44.0010071  62.6943064  53.0135536  42.9565525
  63.8999796  52.0114803  42.3519421  65.8850384  52.5941849  44.1236877
  66.8147564  53.1620836  44.1586256  65.9639072  52.1784401  45.1281929
  66.0695601  51.9327354  43.2772017  64.5103455  56.8504620  41.8266058
  63.7171316  56.8521023  40.9392548  65.6053257  57.5454855  41.7612886
  66.2119627  57.2995758  42.5304604  65.8964109  58.5422754  40.7230902
  65.2184772  58.3472204  39.8921490  65.5361748  60.0189781  41.2748766
  64.5535231  59.9860716  41.7454243  66.2910604  60.2423286  42.0287752
  65.4142570  60.9321117  40.1026154  66.1607790  60.6084394  39.3773270
  64.4641161  60.7794619  39.5907211  65.6692505  62.4129725  40.4448748
  64.6998835  63.2131147  40.2390766  66.8442822  62.8070402  40.7770348
  67.3406982  58.2718468  40.1934195  68.2121801  58.0557680  40.9841061
  67.5596237  58.1448603  38.8894868  66.7823219  57.9475403  38.2755136
  68.9447403  57.9370356  38.3751059  69.1995335  56.8944359  38.5652709
  69.0355349  57.9849625  36.8480635  68.2303715  57.4314451  36.3649178
  69.0859032  59.0175343  36.5025806  70.1624584  57.3098707  36.3891554
  69.9288559  56.9667339  35.5235434  70.0628853  58.8898087  38.8753724
  69.7279358  60.0268030  39.1283417  71.3232422  58.3695412  39.0798044
  71.4530563  57.4210882  38.7578106  72.4412727  59.3582296  39.3106079
  71.9889784  60.0601530  40.0112057  73.5998154  58.6045313  40.0047302
  73.8405752  57.6504469  39.5358348  74.5125341  59.2002106  40.0196218
  73.3018970  58.1288242  41.4816666  73.1172085  58.9570427  42.1658039
  72.3626804  57.5793076  41.5449715  74.3326569  57.2067404  42.0220089
  75.4928112  57.3668861  41.6550732  74.0478611  56.3768768  42.9589605
  74.8516655  55.8563375  43.2799625  73.1499767  56.1806631  43.3777761
  72.9094505  60.0495338  38.0556750  73.2030106  59.4273806  37.1062303
  72.9960489  61.3934803  37.9568672  72.6587296  61.9223881  38.7484288
  73.7918806  62.1367550  36.9185233  73.6239004  63.1823587  37.1765804
  75.2622938  61.8821144  37.1617603  75.3929806  60.8034849  37.2488308
  75.8877420  62.1369219  36.3061953  75.7964754  62.6311302  38.3446908
  75.5375481  63.6813116  38.2098532  75.3498363  62.2083378  39.2446136
  77.2911787  62.4315166  38.6747932  77.9168177  62.8689337  37.8967524
  77.5324106  62.9306746  39.6132755  77.6749468  60.8990002  38.7203145
  76.8837690  60.4106283  39.2892003  77.6802635  60.5143881  37.7004385
  79.0021229  60.6351709  39.3531203  79.6125793  61.3917398  39.0791678
  78.9630079  60.7326460  40.3576469  79.4352674  59.7687435  39.0671301
  73.3386421  61.8888712  35.4766703  74.1078138  61.9745016  34.5959711
  72.0796585  61.5822744  35.3058076  71.6009140  61.4879894  36.1901236
  71.4477825  61.3805246  34.0355086  72.2204685  61.4025354  33.2670212
  70.6820822  59.9782658  34.1063476  69.8706865  59.9550724  34.8338151
  70.2532387  59.7097015  33.1409097  71.3614941  59.1782045  34.4002962
  70.4609203  62.4890900  33.6101031  70.2535343  62.7848625  32.4014091
  69.8580599  63.1958008  34.6629190  70.1827240  62.9494429  35.5870438
  68.8404226  64.2254019  34.5806742  68.9148474  64.6699953  33.5882521
  67.3614788  63.6725950  34.7034574  66.6275549  64.4450331  34.9332309
  67.0737267  63.0837536  33.8325000  67.2633982  62.6050186  35.8589768
  67.7785635  61.7564487  35.4088259  67.7725410  62.8771257  36.7835474
  65.8541965  62.0456171  36.2277794  65.3542471  61.8490314  35.2793550
  66.1257362  61.0556316  36.5942383  65.0999975  62.9293966  37.1640706
  65.6450748  63.2610321  37.9470181  63.9427185  63.5102987  36.9179630
  63.2045412  63.3901691  35.8632040  63.3242273  62.7336454  35.1050806
  62.4145794  64.0060997  35.7340145  63.4424543  64.1629124  37.9178786
  63.9950466  63.9178848  38.7270164  62.4623299  64.4029808  37.9606175
  69.1268206  65.3069019  35.6570077  69.9819613  65.2040339  36.5638947
  68.2185984  66.2867308  35.7418656  67.3810720  66.2576818  35.1781273
  68.2082653  67.2194862  36.8433642  69.2239428  67.6127720  36.8860841
  67.1660233  68.2724619  36.5016961  67.0201015  68.9526224  37.3408556
  67.6012564  68.7449074  35.6210899  65.7406473  67.7605152  36.1383724
  65.5239296  67.1481276  34.9431992  64.2218685  66.8362713  34.9185872
  63.6223984  66.4197445  34.1226363  63.6326647  67.2216892  36.0752225
  62.6842117  67.1046829  36.4020896  64.6010113  67.7257347  36.8678093
  64.4053888  68.2114458  37.8123808  67.7904654  66.5586281  38.2191253
  67.0050192  65.5788708  38.2551432  68.1172848  67.1947289  39.3311787
  69.0455246  68.3869362  39.4218469  68.5268402  69.2661667  39.0397191
  69.9273014  68.1796837  38.8155317  69.5637751  68.4862185  40.8344841
  68.8845968  69.1366291  41.3856459  70.6148052  68.7586260  40.9306097
  69.3503809  67.0889330  41.3443995  69.4231606  66.9929266  42.4277210
  70.1898384  66.5605593  40.8924818  68.1014729  66.5446329  40.6528521
  68.2125235  65.4713678  40.4983521  66.7649317  66.7979622  41.4716339
  66.8564367  67.3685503  42.5792456  65.5864382  66.4547396  40.9299898
  65.4849386  65.9268141  40.0749540  64.3541145  66.8128157  41.6508341
  64.4181824  67.8626871  41.9367838  63.1841755  66.6723919  40.7430315
  63.2091570  67.4255943  39.9555254  63.1268215  65.6739473  40.3095293
  61.8284369  66.8851280  41.4742661  61.0559654  66.8325090  40.7070494
  61.7356110  66.0475540  42.1656084  61.6315031  68.2639122  42.0891428
  62.1951485  69.2335558  41.7300797  60.4999208  68.4238958  42.7255630
  60.3053236  69.3473577  43.0853510  59.7475815  67.7546310  42.6470375
  64.2860985  66.0172319  42.9138279  63.7492847  66.5600300  43.8453960
  64.7369385  64.7526217  43.0348873  65.2805424  64.3485594  42.2856617
  64.5796537  63.9190865  44.2032909  63.5197687  63.8220835  44.4385147
  65.0980568  62.4659061  43.9803028  64.7168398  62.1821642  42.9993534
  66.1821270  62.3547268  43.9573431  64.5075893  61.6051006  45.0750303
  64.8813725  61.9315624  46.0455036  63.0100775  61.4085388  44.9724388
  62.5908136  61.3260841  43.9696789  62.7679634  60.5672026  45.6217766
  62.5771427  62.2320700  45.5402946  65.0949097  60.1459885  44.8766613
  64.8583174  59.7461653  43.8906288  66.1805296  60.2297068  44.9269390
  64.6778393  59.4794559  45.6315708  65.3490400  64.5380449  45.4139805
  64.8133659  64.4119930  46.4766026  66.4603186  65.3060818  45.2209997
  66.9038439  65.4718781  44.3288660  67.0356178  66.1033154  46.3317966
  67.0968103  65.4346561  47.1904325  68.4432936  66.5427828  45.9452343
  69.0562010  65.7017612  45.6209898  68.3497572  67.1098280  45.0190544
  69.1931629  67.3887777  46.9995260  68.7413406  68.3436346  47.2682285
  69.4270420  66.4778805  48.1987572  69.8211622  65.5185652  47.8633690
  70.1697493  66.9016886  48.8746786  68.4466982  66.3070440  48.6435461
  70.5548382  67.5756741  46.4228153  70.4151535  68.4047031  45.7290602
  71.3067675  67.9020119  47.1412897  70.9674168  66.6677523  45.9828711
  66.1317348  67.2589874  46.7620468  65.8880520  67.4752808  47.9185104
  65.6733465  68.0434847  45.8116388  65.8235025  67.7736473  44.8500013
  64.7426033  69.0807867  46.1209917  65.2427483  69.8044157  46.7646694
  64.2497206  69.7320032  44.8348093  65.0649309  70.0807142  44.2008257
  63.6560059  69.0152693  44.2674494  63.4623957  71.0245752  45.1292562
  64.0685606  72.1790075  45.5927706  65.1358366  72.2673750  45.7324600
  63.3091497  73.3108902  45.8607244  63.7855673  74.2161798  46.2069654
  61.9006920  73.2578230  45.7738256  61.0907221  74.3533516  46.0596514
  61.5771675  75.0870037  46.4427042  61.2336779  72.0426035  45.3933239
  60.1600599  72.0038176  45.2827072  62.0399523  70.9269142  45.1205778
  61.5883875  69.9629879  44.9380112  63.4950638  68.4635258  46.8983030
  63.0543852  69.0646696  47.9126978  62.9660130  67.2403479  46.5120888
  63.3932114  66.6368389  45.8240604  62.0427132  66.4475822  47.3852301
  61.1176348  66.9655895  47.6381922  61.5771627  65.2114868  46.5643930
  62.4131680  64.7551727  46.0343266  61.3387203  64.4326782  47.2887564
  60.4876184  65.4156828  45.4842901  59.5667791  65.7449770  45.9656572
  60.8045864  66.2090015  44.8073244  60.2782679  64.0909290  44.6336746
  60.3766108  64.1500998  43.3848000  59.8218870  63.1168842  45.2315569
  62.5438118  66.0155058  48.7705088  61.8744516  66.4305258  49.7566557
  63.7039852  65.3958511  48.9322567  64.0421009  65.0105906  48.0619955
  64.4159603  65.1720476  50.2154303  63.9970160  64.3796968  50.8357239
  65.9053087  64.8123312  49.8957825  65.7493591  64.0352201  49.1475344
  66.4607906  65.6096983  49.4020748  66.4027262  64.3127680  51.1329508
  67.2897673  64.0936041  50.8384514  64.2961979  66.2929440  51.1168003
  63.8859367  66.0524130  52.2762728  64.7587681  67.4733353  50.6445026
  65.0152874  67.5685978  49.6722746  64.6335697  68.7680531  51.3971996
  65.0441790  68.5586786  52.3849535  65.5786467  69.8171949  50.7778072
  65.3245354  69.9040937  49.7214079  65.3957510  70.7975626  51.2177324
  67.0636702  69.4287348  50.8500576  67.3958635  69.2532682  51.8732691
  67.1693420  68.4432030  50.3965473  67.9645443  70.4966164  50.0609970
  68.9816809  70.1201582  49.9522781  67.4993277  70.7230806  49.1016293
  67.9742622  71.8008757  50.8905125  66.9553852  72.0163727  51.2123251
  68.7922955  71.6905642  51.6023731  68.2867432  72.8574276  49.9587965
  69.2403793  72.7655888  49.6390533  67.7160454  72.6970959  49.1410542
  68.1013584  73.7577915  50.3772163  63.2314396  69.3081713  51.6906881
  62.9496622  69.4998789  52.8552103  62.3816824  69.4671488  50.6579256
  62.7896214  69.2601013  49.7574711  60.9456062  69.9177837  50.7294321
  60.8671093  70.9860849  50.9311199  60.3910685  69.5883226  49.2877150
  60.9299994  70.2757263  48.6356974  60.7120132  68.6378717  48.8614130
  58.8847494  69.8708725  49.0439463  58.6608124  69.7256088  47.9871368
  58.0464554  68.8969374  49.8563814  57.0812178  68.8740778  49.3505287
  58.4112024  67.8786659  49.7215366  57.9436874  69.1583586  50.9095669
  58.4896898  71.3363743  49.2826128  57.4051666  71.4277840  49.2230272
  58.7892056  71.5451956  50.3096390  58.9332438  72.0740891  48.6139250
  60.2739525  69.2079782  51.9213343  59.7139263  69.8392057  52.8363466
  60.3335667  67.8865385  51.9855165  60.8259249  67.3664522  51.2733364
  59.5231152  67.1267223  52.9119587  58.4926891  67.4595642  53.0366135
  59.4632483  65.6978369  52.4630022  60.4820108  65.3200436  52.3764467
  58.9768219  65.0996351  53.2334900  58.7519789  65.5076504  51.1433792
  59.3032598  64.7660637  50.0544739  60.3248072  64.4313860  50.1585340
  58.4991455  64.4324923  48.9430380  58.9902401  63.8684082  48.1639099
  57.1463251  64.8768044  48.8498449  56.4921904  64.6388006  47.6900244
  56.9966459  64.0621853  47.1115398  56.6569233  65.5847979  49.9560595
  55.6433201  65.9348869  49.8278189  57.4730825  65.9923029  51.0413122
  57.0656729  66.6254711  51.8156052  60.0468302  67.2659111  54.3287182
  59.2807150  67.3519850  55.2146435  61.4140844  67.3737717  54.5202255
  62.0441389  67.2873926  53.7355757  62.0991516  67.5233221  55.7788992
  61.7850113  66.7529488  56.4831257  63.6466885  67.3254156  55.7285976
  64.0530014  67.9464149  54.9302435  64.0983200  67.6891947  56.6515255
  64.0029430  65.8762264  55.4434443  63.5651398  65.1801729  56.1589432
  63.5665321  65.4890823  54.5227003  65.4879808  65.8011246  55.3967714
  65.7830811  66.5922213  54.7074366  65.9293461  65.9563112  56.3812590
  65.8499336  64.4402790  54.8377800  65.3643417  63.7580395  55.5355263
  65.2789497  64.2244434  53.9347315  67.3219585  64.2642212  54.6258879
  67.4678755  64.7922134  53.7773371  67.9109287  64.6420097  55.3542376
  67.5638247  63.3304548  54.3264198  61.8612337  68.8719034  56.3463926
  61.5928411  69.0516901  57.5522995  61.9156599  69.8885298  55.3946257
  62.0003796  69.6590757  54.4146919  61.6246271  71.3372850  55.7105780
  62.3220634  71.5311670  56.5254927  61.9487047  72.2822046  54.5562077
  61.5204716  71.9237566  53.6201382  61.3804626  73.7400150  54.7454357
  61.9103813  74.3542910  55.4734135  61.5710306  74.3241501  53.8451195
  60.3068399  73.8347244  54.9081039  63.4794188  72.3321247  54.2713833
  64.0628099  72.9498768  54.9541283  63.9269686  71.3640785  54.4965172
  63.8402843  72.7032280  52.8331518  63.7421942  73.7812996  52.7056980
  64.8873568  72.4389982  52.6850748  63.2668924  72.2152519  52.0449924
  60.1987743  71.5920639  56.3241100  59.9432087  72.3543072  57.2852468
  59.2696047  70.8459377  55.7009935  59.5066786  70.2798843  54.8988199
  57.8350544  70.8941364  56.0423136  57.5425911  71.8623638  56.4486361
  57.0650053  70.7794571  54.6877575  57.5317669  70.0332403  54.0447950
  56.0120678  70.5337048  54.8256922  57.0957136  72.1072149  53.8664770
  58.1024504  72.3817492  53.5515070  56.4046001  71.9605350  52.4959135
  56.9528341  71.2497711  51.8775749  55.3963137  71.5629292  52.6115036
  56.3284349  72.8575897  51.8814135  56.3971043  73.2583952  54.5479345
  56.8869829  73.5948467  55.4616737  56.3677835  74.1099548  53.8681602
  55.3731012  73.0890799  54.8808813  57.3384666  69.8088980  57.0619106
  56.1510897  69.8264933  57.4700069  58.2683086  68.9265490  57.4614096
  59.1734076  68.8825512  57.0153570  58.1030178  67.7433205  58.3851671
  57.4876547  67.0511150  57.8104687  59.4123936  66.9932604  58.5862112
  60.0000381  66.8078089  57.6871109  59.9828386  67.5883389  59.2993546
  59.1891003  65.5264807  59.1589308  58.9527702  65.5414534  60.2228928
  58.3502817  65.0509405  58.6506510  60.3681421  64.6040583  59.0027380
  60.6361818  63.9954901  58.0009651  61.0449934  64.3181467  60.0877047
  61.6841698  63.5451031  59.9695683  60.9016895  64.8348045  60.9436417
  57.5106478  68.0392218  59.7454166  57.8505373  69.0288591  60.4244947
  56.4180517  67.3088360  60.0507784  56.1470032  66.6018152  59.3823814
  55.4844713  67.4854565  61.2226295  55.3343821  66.4699602  61.5891600
  55.8651304  68.0383444  62.0814133  54.0892029  68.1032658  60.7647514
  53.1875944  68.1691742  61.5488815  53.9355898  68.5029173  59.4523335
  54.7279119  68.4888840  58.8261271  52.6666117  68.9123344  58.8540411
  52.1875334  69.6282864  59.5218706  52.9041767  69.4554090  57.9393053
  51.7008305  67.7704573  58.5513926  52.1420240  66.7708969  57.9789543
  50.4463911  68.0399084  58.6932755  50.1756811  68.9493465  59.0393066
  49.3923235  67.0976067  58.2896757  49.7111225  66.1262941  58.6678696
  47.9669857  67.4102116  58.9116335  47.7280474  68.3489656  58.4118843
  46.9116020  66.3538408  58.5577488  46.8050575  66.3139057  57.4737024
  47.3308659  65.3957748  58.8650560  45.8867931  66.4585686  58.9139652
  47.8871822  67.5706577  60.3807116  46.8949699  67.8619766  60.7253122
  48.1437063  66.5789175  60.7531977  48.5571718  68.3953619  60.6237698
  49.2616606  66.9714308  56.6996479  48.9728975  67.9112291  55.9675074
  49.4742632  65.7656765  56.1877489  49.8772526  65.0733376  56.8028593
  49.5119333  65.3952074  54.8158026  49.1099215  64.4099283  54.5797729
  48.8992882  66.1460876  54.3168592  50.8327436  65.5352497  54.0650940
  50.9061337  65.5134773  52.8759718  51.9187737  65.8187723  54.7506571
  51.8376780  65.8867311  55.7551003  53.3416605  65.9200001  54.3366528
  53.3435822  65.8415890  53.2494783  54.0045357  67.2579050  54.8658848
  54.2477989  67.2051382  55.9270811  55.4218149  67.2492266  54.1834307
  55.8885765  68.1987190  54.4455290  56.0344934  66.5063667  54.6941948
  55.4865503  67.0960331  53.1061935  53.3093548  68.5482979  54.4481707
  52.3472071  68.4102917  54.9414539  53.6493921  69.4506454  54.9563503
  53.0936098  68.8188028  52.9978561  52.2717810  69.4980049  52.7711630
  53.9502430  69.2856216  52.5116873  52.8386831  67.8673267  52.5311613
  54.0482473  64.6289778  54.8778725  53.9957428  64.2778206  56.0688734
  54.8202085  63.9193726  53.9863634  54.5649099  63.9335060  52.5220585
  54.9612665  64.8456526  52.0759726  53.5200882  63.9456272  52.2117376
  55.3561878  62.6982307  52.0014715  55.8358860  62.9410696  51.0533047
  54.6468687  61.8716145  51.9605875  56.4107370  62.3989105  53.0884027
  57.2937489  62.9788494  52.8199434  56.5775347  61.3221550  53.0588675
  55.7308769  62.8252935  54.4168472  55.1581907  61.9578981  54.7451258
  56.7057228  63.1593704  55.4973316  57.5512028  64.0492535  55.3372049
  56.7838573  62.4271488  56.5971470  55.9463739  61.9016361  56.8034410
  57.9901314  62.1029043  57.3324966  58.5160780  63.0426598  57.5008297
  57.5730610  61.5596867  58.6891127  57.0955467  62.3451042  59.2749453
  56.8599749  60.7731438  58.4422064  58.7183332  61.0718250  59.5647621
  59.5110798  59.9568033  59.2426586  60.5066252  59.9001741  60.1597071
  61.2848616  59.1554594  60.0812483  60.3420115  60.9034157  61.0764265
  60.8489752  60.8656454  61.9491577  59.2634439  61.7067003  60.6979275
  59.0860987  62.6764774  61.1389208  58.9566708  61.2876177  56.4295721
  58.6715698  60.3244066  55.7876301  60.1645565  61.7372561  56.3183975
  60.3509808  62.6238728  56.7647839  61.2418461  61.0580206  55.6076622
  60.8812904  60.3896046  54.8257923  62.1282244  62.1865368  54.9919939
  62.3571110  62.8283262  55.8427668  63.4163094  61.5780354  54.4005108
  63.2206106  60.5400705  54.1313934  63.6083174  62.0503712  53.4371138
  64.2572594  61.6494894  55.0902891  61.4344931  63.0280066  53.8999748
  60.7990456  63.7803221  54.3672323  62.2008562  63.6658335  53.4595585
  60.7016563  62.3017263  52.7435875  59.9573660  61.6084528  53.1353807
  60.1177883  62.9955006  52.1387053  61.4109945  61.8973970  52.0214653
  61.9710398  60.0977564  56.5893984  62.5260448  60.6214714  57.6072645
  62.0431566  58.8110924  56.2806368  61.6319275  58.4752083  55.4214668
  62.8661251  57.8035641  57.0250273  62.7812386  57.9625559  58.1000233
  62.3183203  56.3562298  56.7724800  62.5940275  56.1210346  55.7444859
  62.7697134  55.6269121  57.4451208  60.8069754  56.1810589  56.9255686
  60.2896023  56.8356228  56.2241602  60.5435562  55.1661396  56.6278267
  60.3030777  56.5272045  58.2662010  60.8876944  56.0223389  59.0352488
  60.3762436  57.6078939  58.3880758  58.9346838  56.0734272  58.4117842
  58.7330484  55.1416302  58.7452459  57.9175568  56.8390608  58.2347012
  57.9567337  58.0651903  57.8279257  58.8462210  58.5412598  57.7801895
  57.0934725  58.5585117  57.6503992  56.7708731  56.3554955  58.4769726
  56.6702557  55.3693771  58.6707449  55.9738636  56.9147635  58.2084656
  64.3355703  57.7507114  56.6673803  65.1491833  57.6257658  57.6133585
  64.7226620  58.0861521  55.4453516  64.0343761  58.3234978  54.7453260
  66.1345291  57.9944992  54.9313211  66.7735386  58.5867977  55.5862617
  66.5862179  56.5030909  54.8440075  66.4099598  55.9947348  55.7919550
  66.0403728  55.9967661  54.0478992  68.0467892  56.2710142  54.5190001
  68.9938021  56.3215733  55.4713631  68.7655067  56.3217115  56.5269613
  70.1935816  56.0238361  54.9026060  71.0717487  56.0014677  55.4010248
  70.0685406  55.7978678  53.5251570  70.9906292  55.2802372  52.5528717
  72.0183468  55.0099182  52.7455521  70.5192471  55.0347853  51.2369776
  71.0614109  54.6422195  50.3894234  69.2240095  55.4626894  50.8799171
  68.8715315  55.3635788  49.8638725  68.3268166  55.8491564  51.9136429
  67.3145628  56.0387325  51.5883589  68.7063742  56.0595798  53.2620096
  66.1657286  58.6625385  53.5728598  65.1812458  58.7336874  52.8669071
  67.4292517  59.0659904  53.2169151  68.1647348  58.9345789  53.8965464
  67.7427292  59.5412922  51.8783665  67.1543455  58.9556694  51.1719990
  67.5385094  61.0017109  51.6587734  66.5496826  61.4074802  51.8724632
  68.0689812  61.3874006  52.5293732  68.0658102  61.5282154  50.3238869
  67.5348473  61.0588121  49.1424417  66.7623949  60.3044128  49.1180277
  68.0303049  61.4995241  47.9157829  67.6177311  61.2612200  46.9465590
  69.1130018  62.3636866  47.8495026  69.5306540  62.8696871  46.6712523
  70.4593658  63.0848360  46.7844534  69.6903896  62.8074074  49.0325785
  70.5506754  63.4574795  48.9716721  69.1897202  62.3682308  50.3101730
  69.5652771  62.6373720  51.2863493  69.2389727  59.2081928  51.5610981
  70.1542616  59.6208239  52.2934532  69.5678616  58.6281872  50.4584265
  68.9033127  58.4388018  49.7217989  70.9512663  58.4236145  50.0519657
  71.5919876  59.2853451  50.2390623  71.4695597  57.7441740  50.7286024
  71.1438322  57.9727173  48.6358929  70.4778337  58.4329939  47.7330780
  72.3068047  57.2884560  48.4990120  72.7891922  57.0147276  49.3430948
  72.7397728  56.8368006  47.1708012  71.9199371  57.0829201  46.4959717
  73.9192486  57.5825357  46.6013241  74.4192028  58.0242300  47.4633265
  74.5114279  56.9037008  45.9876394  73.3673429  58.6955309  45.6645584
  72.9666090  58.1845522  44.7890997  72.5591373  59.2555571  46.1349583
  74.4730186  59.6411991  45.1864195  75.6526327  59.4867039  45.5613899
  74.1952991  60.7493734  44.4556141  74.8706245  61.4848042  44.3033552
  73.2449675  60.8841753  44.1412926  72.9981327  55.3007412  47.1031761
  73.5655355  54.7358894  48.0605602  72.5606251  54.6585321  46.0704994
  72.1077156  55.2003241  45.3483915  72.6085091  53.2033300  45.9886360
  73.4830379  52.8967667  46.5625048  71.3715887  52.4301100  46.5151024
  70.5103159  52.7052546  45.9063339  71.5400171  51.3766384  46.2916279
  71.0289192  52.6648712  48.0172396  71.1557913  53.7240553  48.2411385
  69.9498129  52.5471306  48.1160402  71.9866562  51.8697214  48.9517260
  73.2034731  51.8103886  48.6791515  71.5352249  51.0799217  49.8331833
  72.9715919  52.7836084  44.5645571  72.0484877  52.5985193  43.7208700
  74.3061113  52.6375771  44.2252827  74.9740410  52.7545929  44.9737978
  74.8963881  52.2514868  42.8979445  75.9503365  52.5292063  42.9109907
  74.8037243  50.7323170  42.6843357  75.1592016  50.2444077  43.5919046
  73.7766075  50.4011393  42.5312090  75.4964828  50.1215458  41.5367603
  75.4387379  49.0383911  41.6442156  74.8980141  50.3674173  40.6595564
  76.9950056  50.5087042  41.2381697  77.0989847  51.5858316  41.1074591
  77.5837803  50.1713800  42.0911980  77.4990511  49.7874546  40.0169420
  77.4620199  48.6986208  40.0511312  76.8886995  50.0989294  39.1692686
  78.9117527  50.1524830  39.8207998  79.2647266  49.5369768  39.1020060
  79.0778971  51.0752487  39.4452953  79.4484043  50.0016499  40.6630325
  74.3589163  53.0935049  41.7260218  75.0700426  54.0820312  41.4172506
  73.2701397  52.6791096  41.0667944  72.7520895  51.9299650  41.5032721
  72.7092505  53.4516716  39.9640799  73.4497118  53.7993002  39.2436838
  71.8793917  52.3691940  39.1780758  71.1737537  51.8769026  39.8472762
  71.2638283  52.9276037  38.4728360  72.7886534  51.3238239  38.4413195
  72.2577238  50.2103806  38.1142855  73.9077187  51.7019463  38.1623173
  71.8359756  54.6821880  40.3743410  71.4923573  55.5411386  39.5385718
  71.2777328  54.7260952  41.5919781  71.6008139  54.0167332  42.2342587
  70.1762295  55.5257082  42.0556116  69.7761917  56.1385822  41.2478638
  68.9746571  54.6276140  42.2538900  69.0573072  54.0348721  43.1648922
  68.1522560  55.3006029  42.4964666  68.5076714  53.7367296  41.1105537
  68.4555912  52.3482323  41.1804438  68.7181664  51.8132496  42.0811367
  67.9983473  51.5856504  40.0752401  68.0426645  50.5080986  40.1328278
  67.5979519  52.2561216  38.8893485  67.1477795  51.5311670  37.8182530
  67.2450638  52.0573997  37.0212483  67.6833725  53.6297512  38.8017344
  67.4004745  54.0134859  37.8326488  68.1114197  54.3893719  39.9035168
  68.1006193  55.4691887  39.9203372  70.3932047  56.4340162  43.3060789
  71.0665941  56.1568165  44.2944765  70.0959826  57.7134609  43.1200790
  69.6056890  57.9188728  42.2612858  69.6236610  58.4723663  44.3324995
  70.4376459  58.3699369  45.0501585  69.3802643  59.9330521  43.9780521
  68.5122490  60.0050259  43.3227110  69.2471743  60.5490208  44.8674154
  70.4500484  60.5648661  43.1558704  71.4891672  60.7174015  43.7715292
  70.3270626  60.9951162  41.9162941  71.1488438  61.3153839  41.4241505
  69.4953775  60.8773184  41.3554764  68.3624029  57.8343439  44.8656321
  67.4983215  57.4567604  44.1112041  68.0980110  57.8171301  46.1642694
  68.6819983  58.3792734  46.7668104  66.9876337  57.0935774  46.8059635
  66.1444902  56.9929552  46.1225271  67.3519611  55.6150198  47.1883297
  68.0700684  55.6166124  48.0083418  66.1080122  54.8232269  47.4445343
  65.4448891  55.2505636  48.1966972  65.5758953  54.5224333  46.5420532
  66.4185905  53.8805103  47.8950167  68.1885242  54.8710203  46.1387396
  67.6155853  54.9042606  45.2120543  69.1171122  55.4237080  45.9960556
  68.4143448  53.8339281  46.3868523  66.4329529  57.6819515  48.1172991
  67.2732258  57.8792953  49.0085077  65.1045942  57.9354763  48.1281662
  64.5695400  57.7261305  47.2975063  64.4069004  58.6711216  49.1788673
  65.1705170  58.9159584  49.9171400  63.8511610  59.9192381  48.5018969
  64.6861839  60.4027748  47.9949188  63.1652641  59.6197081  47.7094793
  63.1594992  60.8682156  49.5127106  62.3292732  60.3924227  50.0346804
  63.9564514  61.3585186  50.7156229  64.1840792  60.5518198  51.4124155
  64.8413515  61.7740488  50.2335548  63.4421158  62.1737194  51.2245655
  62.5330114  62.0783997  48.7825298  63.2445049  62.5170612  48.0829191
  61.6636229  61.7594814  48.2075882  62.1662569  62.8894663  49.4116211
  63.3241463  57.8293467  49.8325348  62.5639296  57.2100163  49.0839720
  63.3018017  57.6695728  51.1399269  64.0339088  58.0980349  51.6881514
  62.4136066  56.8075609  51.8570375  61.8384457  56.2415838  51.1242628
  63.2947731  55.7975292  52.6586294  63.8197565  56.3967180  53.4025812
  62.3495388  54.6967316  53.1689835  61.6637802  55.0393629  53.9438629
  61.8335342  54.2907619  52.2989082  62.7907753  53.8381672  53.6752176
  64.3757629  55.1090765  51.8127775  64.9983311  55.8721304  51.3455963
  64.9702024  54.4279480  52.4217081  63.8884258  54.6525049  50.9512997
  61.5327930  57.5758696  52.8102398  62.0641136  58.4211016  53.5169935
  60.1946259  57.4295807  52.7246141  59.8894405  56.8362045  51.9664049
  59.0392208  58.1481981  53.3318567  59.4703197  58.6196613  54.2150211
  58.6201191  59.1489983  52.2330618  58.2671785  60.0903797  52.6541615
  59.5077848  59.5128918  51.7156267  57.5340748  58.7838125  51.1133146
  57.7798367  57.8506422  50.6064606  56.6409874  58.7221909  51.7351675
  57.3071623  60.1588535  50.0040007  58.8165188  60.5225372  49.0763426
  59.6596813  60.6845522  49.7478533  59.0547228  59.6711016  48.4388304
  58.6884117  61.3428497  48.3700991  57.9259920  57.2098064  53.7325191
  57.8947210  56.0496330  53.3082151  56.8931532  57.8186989  54.3590498
  57.1223640  58.7710857  54.6050596  55.5289507  57.3392057  54.4916487
  55.4942799  56.5701437  55.2633047  54.4444847  58.4014273  55.0086069
  54.4859838  59.1936827  54.2611361  53.4639406  57.9328108  55.0924253
  54.7728872  58.9535713  56.4252663  54.8988914  58.1069994  57.3475933
  54.7314072  60.1884270  56.6621113  54.9594784  56.6235971  53.2418394
  54.9182367  57.1989536  52.1197748  54.4300747  55.4028463  53.4637833
  54.4952440  55.0492954  54.4076347  53.6329508  54.6922970  52.5302887
  54.0733624  54.7994709  51.5389967  53.4943533  53.2010794  52.8175068
  54.4906616  52.7737999  52.7039099  53.2302666  53.0676746  53.8665867
  52.6060867  52.3723698  51.8603802  51.5894032  52.7279425  51.6929960
  53.1468487  52.1839046  50.4542875  52.4386120  51.7656565  49.7390509
  53.4627151  53.1074905  49.9691868  53.9891958  51.4922237  50.4424620
  52.5080442  50.9940815  52.6075029  53.2913208  50.7629871  53.3294392
  51.6174173  51.0360003  53.2345009  52.3581219  50.2051640  51.8704605
  52.2255468  55.3248835  52.3901081  51.5730095  55.5100250  53.4506702
  51.7856550  55.5958986  51.1499596  52.4402571  55.4336739  50.3981113
  50.5174589  56.1078453  50.7961750  49.9303198  56.3188648  51.6899538
  50.8344984  57.3553753  49.9702978  51.2951517  57.0831490  49.0206671
  49.9324369  57.8906250  49.6738338  51.7707157  58.3737659  50.5970430
  52.8143835  58.0667400  50.5292416  51.7244959  59.6353769  49.7054958
  52.3939800  60.3693151  50.1540756  52.0244169  59.4253016  48.6788368
  50.7813549  60.1804066  49.7445965  51.3854933  58.8412046  51.9820929
  52.1016026  59.5640755  52.3729086  50.3632116  59.2142487  51.9198751
  51.3793993  57.9809809  52.6514912  49.7419548  55.2362251  49.7954941
  50.2596712  54.3502045  49.1272402  48.3683491  55.4470539  49.7861767
  47.9075766  56.1602879  50.3330612  47.5600338  54.7829580  48.8267374
  47.5871325  53.6976862  48.9244699  46.5191936  55.0590515  48.9956427
  47.7680492  55.2410984  47.3692656  48.7265825  55.9295082  46.9814682
  46.7933846  54.8465633  46.4766645  45.7227564  53.9421511  46.6969633
  44.9107170  54.4514418  47.2159195  45.9959126  53.0956984  47.3270607
  45.2965355  53.5101318  45.2938652  44.2282009  53.2950306  45.3161764
  45.9397602  52.7012014  44.9474669  45.5496883  54.6740913  44.3668604
  44.6168661  55.2307510  44.2769766  45.9730816  54.4027662  43.3997917
  46.6136408  55.4548454  45.1733732  47.6242542  55.4124546  44.7672176
  46.2541676  56.9189930  45.2152348  45.8708858  57.3311806  46.2964487
  46.4564848  57.7540112  44.1857815  46.7416048  57.2815847  43.3398342
  46.0291195  59.1802835  44.2057180  46.1278772  59.6134233  45.2010775
  46.7214680  59.9764252  43.1331635  46.5330744  61.0492706  43.0929661
  47.7973557  59.8529863  43.2569742  46.3723183  59.4623375  41.8291664
  46.9315767  58.7146091  41.6061449  44.4730949  59.2939758  43.9602661
  43.8826323  58.3320999  43.6270332  43.9340830  60.5555248  43.9972162
  44.5874691  61.2928009  44.2199469  42.5383806  60.8550310  43.7277365
  42.0024300  60.0889063  44.2880154  41.9823170  62.2342873  44.1854572
  42.7355576  62.9808521  43.9337206  41.0060358  62.4691153  43.7614012
  41.9361210  62.4109411  45.6889296  42.9185009  62.1697855  46.0949755
  41.4886904  63.8626719  45.9616423  42.2658205  64.5578337  45.6439638
  40.5579567  64.0008783  45.4114199  41.3504934  64.0211439  47.0311689
  40.7834816  61.5550709  46.1670351  40.9332371  60.5150700  45.8770847
  40.9124613  61.6687441  47.2433901  39.8192000  61.8546247  45.7565069
  42.0937681  60.5971622  42.3496675  40.9182310  60.4533339  42.0598269
  43.0358028  60.6864738  41.3684607  43.9824629  60.9408998  41.6117907
  42.8898811  60.1759100  39.9697638  42.0403528  60.7208395  39.5581174
  44.1129303  60.4563618  39.2019200  44.2711306  61.5337849  39.1546774
  44.9496174  60.0024128  39.7329521  44.2268610  60.0153828  37.7604079
  45.2206993  60.2894115  37.4064398  44.2681265  58.9288855  37.8374076
  43.1551075  60.4103613  36.7789435  42.7356100  59.5902252  35.8865738
  42.5477743  61.4991999  36.9165206  42.5451899  58.6210060  39.9537992
  41.4553785  58.1779289  39.6155977  43.4950161  57.8315496  40.4826212
  44.2422915  58.2753468  40.9971333  43.3314085  56.3814354  40.5717373
  42.9431820  56.0204601  39.6193290  44.6718454  55.7249355  40.9639454
  45.0807762  56.2705803  41.8143272  44.5478582  54.7154331  41.3559103
  45.7684898  55.8281374  39.8521399  46.9302750  55.4774714  40.2066898
  45.5904388  56.3130808  38.7162018  42.1993017  55.9379816  41.4682484
  41.3946915  55.0873613  41.0320282  41.8505383  56.6250515  42.5447702
  42.4946594  57.3041391  42.9243040  40.6304026  56.2169886  43.2773924
  40.6134892  55.1271343  43.2825804  40.6681633  56.8873596  44.7147799
  40.8997107  57.9499912  44.6419621  39.6900463  56.7892456  45.1856947
  41.7603159  56.1904478  45.5343819  42.5848007  55.8491898  44.9083900
  42.2945642  57.1632910  46.6582394  42.8680992  57.9691839  46.2003088
  41.4312363  57.5308132  47.2129440  42.9670048  56.6903639  47.3739672
  41.0903311  54.9950838  46.2427664  40.9745026  54.1984701  45.5078602
  41.7584610  54.6590185  47.0357084  40.1145363  55.1956272  46.6851473
  39.3120742  56.6457129  42.5404739  38.2749772  55.9744883  42.6550579
  39.4010496  57.7523327  41.7557430  40.2598810  58.2801628  41.6932440
  38.3007812  58.1858826  40.8394909  37.3220205  58.2947779  41.3066864
  38.5791659  59.6022272  40.3226376  38.5794330  60.2744627  41.1806536
  39.5498610  59.7064066  39.8378706  37.5874901  60.2080774  39.3268943
  36.3603759  60.5922461  39.8721910  36.0731912  60.4617357  40.9050941
  35.4820824  61.3500261  39.0691590  34.6073985  61.7298746  39.5761514
  35.8815336  61.6243792  37.7164245  35.2001214  62.1739674  37.0839477
  37.1428013  61.2426662  37.1978951  37.3856974  61.4252329  36.1615157
  38.0124187  60.5086756  37.9931259  38.9490342  60.1606894  37.5831771
  38.0356002  57.1724272  39.7360373  36.8995905  56.9304848  39.3088293
  39.1326332  56.5305805  39.2978811  40.0079584  56.7225695  39.7637677
  39.0370464  55.3537512  38.4400105  38.3006310  55.4852819  37.6472330
  40.3625345  55.0360489  37.7252746  41.1957169  54.8577404  38.4050655
  40.2454233  54.0969801  37.1844149  40.8485222  56.0550833  36.6969824
  40.8690357  55.7153654  35.5290389  41.2368107  57.2291994  37.0904160
  41.5997696  57.8870678  36.4154553  41.2972116  57.4151659  38.0813098
  38.4879112  54.1121149  39.1194844  37.6959300  53.4248161  38.4704280
  38.8759732  53.8710117  40.3272343  39.4839191  54.5181227  40.8086395
  38.2830334  52.7574253  41.1429644  38.3009315  51.8972731  40.4736996
  39.1833019  52.4961805  42.3519564  40.1983786  52.2264147  42.0604992
  39.3797827  53.4353638  42.8690958  38.5310960  51.5251446  43.3055067
  38.6885834  50.1583481  42.9820633  39.2075276  49.8219156  42.0966721
  38.1042862  49.1792822  43.7953758  38.1903195  48.1563282  43.4598780
  37.2928643  49.6021652  44.8774576  36.7620254  48.8079309  45.3812504
  37.2763276  50.9144688  45.2912092  36.7753220  51.2667608  46.1807489
  37.8661895  51.9316673  44.4514894  37.7269435  52.9884338  44.6254444
  36.8343115  52.9450703  41.3974667  36.0391688  51.9871473  41.2813854
  36.3117695  54.2069674  41.5589237  36.9421673  54.9958181  41.5793848
  34.9278498  54.5092773  41.5459347  34.3167710  53.7983608  42.1020699
  34.7355843  55.6728697  42.5261259  35.1022077  56.6214561  42.1338511
  33.6558819  55.7349682  42.6620674  35.4427981  55.3040600  44.1092157
  36.6325903  55.9077406  44.0394592  34.3023610  54.7822571  40.1891518
  33.3539534  55.4789782  40.1185465  34.8545074  54.4103813  39.0556860
  35.7220483  53.8969660  39.1179872  34.1723299  54.4679260  37.7224493
  35.0289512  54.1368484  37.1353483  32.9538035  53.4992361  37.6615763
  32.1374679  53.7647629  38.3332825  32.6166606  53.5976744  36.6297126
  33.4505606  52.1572113  37.7916074  33.3066368  51.9429731  38.7162638
  33.7665296  55.9279060  37.2325659  32.6928043  56.1991119  36.7146659
  34.7573256  56.8073416  37.4763799  35.4830194  56.6008043  38.1478047
  34.8510647  58.1718779  36.9401073  35.7356405  58.5512590  37.4516678
  35.0577426  58.0046082  35.4744363  34.4752836  57.1992636  35.0269294
  34.8792219  58.8895082  34.8635507  36.5658236  57.6429749  35.2768588
  37.1430731  58.4976959  35.6294823  36.7588258  56.6927052  35.7746768
  37.0099306  57.5845194  33.8491082  36.4417577  56.7757940  33.3895016
  36.6286206  58.4560156  33.3169436  38.5083032  57.4774122  33.7626839
  38.8517451  56.6556025  33.2864785  39.3707967  58.4457207  34.0890646
  38.9850545  59.6072435  34.4519186  38.0253029  59.8651934  34.2718172
  39.5704889  60.3632402  34.7772312  40.6225920  58.2542467  34.0410590
  40.9100628  57.3205948  33.7846327  41.3129663  58.9316559  34.3318963
  33.6477447  59.0004730  37.2601581  33.1191254  59.7107172  36.4303970
  33.2366133  58.8834572  38.5576129  33.6716700  58.1567478  39.1078162
  32.1595716  59.6016693  39.2454576  32.2822523  60.6829596  39.1832590
  30.8901286  59.0974665  38.6391664  31.0141206  59.1222954  37.5565267
  30.7974100  58.0662441  38.9798808  29.6460462  59.9702120  38.9630294
  29.5379567  60.1228905  40.0368595  29.6863651  60.8731079  38.3537221
  28.3600926  59.1831827  38.5612416  27.6199555  59.9457741  38.3188415
  28.4983253  58.5583115  37.6788998  27.7472472  58.4165764  39.6566868
  28.2958651  58.0771255  40.4337883  26.4061165  58.1523895  39.8053980
  25.4720879  58.4834290  38.9846396  25.6398463  59.0138006  38.1416297
  24.6108532  57.9567385  39.0158200  25.9687614  57.4605846  40.7797432
  26.5137696  57.3404741  41.6215515  24.9783635  57.4402952  40.9767294
  32.2939467  59.4657803  40.7288361  32.5676513  58.3948326  41.2419510
  32.0668340  60.5891848  41.4711523  31.9335151  61.4370108  40.9386921
  31.9825673  60.6072998  42.9662514  31.9570613  59.6415949  43.4710932
  33.1352520  61.4924765  43.5407925  33.1690431  62.4556732  43.0316639
  32.9585171  61.6605043  44.6031618  34.6271014  60.9833765  43.4725666
  34.9072886  59.6244097  43.6008310  34.0928388  58.9159489  43.5666847
  36.2872624  59.1917372  43.6135054  36.4960885  58.1328726  43.5734034
  37.3356318  60.0913143  43.6328506  38.3634496  59.7633171  43.6819792
  37.0021629  61.4668608  43.5516834  37.7514172  62.2399664  43.4660864
  35.6816530  61.8741465  43.5225296  35.4783130  62.9330587  43.4612608
  30.7286811  61.2565660  43.4725904  30.2721477  62.2820044  42.9735184
  30.1885629  60.8859158  44.5847988  30.7949972  60.3129339  45.1540422
  29.0415120  61.5105820  45.2874470  28.1273246  61.4860153  44.6943521
  28.6581492  60.7187986  46.4943266  27.8680468  61.1013031  47.1404934
  28.0917859  59.3110275  46.2246180  27.2270846  59.6407318  45.6486940
  28.8168764  58.7357473  45.6489468  27.7990460  58.9118052  47.1957159
  29.6878934  60.5393028  47.3306704  30.3335977  60.0111055  46.8556213
  29.3959785  62.9908180  45.6758118  30.5518746  63.2535267  46.0706902
  28.4324551  63.8774824  45.8294535  27.4755001  63.5545111  45.8348227
  28.6584449  65.2714872  46.2783337  29.3545151  65.7824230  45.6130981
  27.2648740  65.9331417  46.3115168  26.7311335  65.7508802  45.3787756
  26.6042590  65.4702139  47.0445824  27.3295236  67.4584341  46.6358328
  26.3161325  67.8406858  46.5132666  27.7084589  67.4590731  47.6578426
  28.4122825  68.4795380  45.6986141  28.0065894  68.0983591  44.0153980
  28.1737232  67.0241594  43.9362144  26.9906187  68.4469318  43.8299179
  28.7254095  68.5407019  43.3256626  29.2814994  65.3489304  47.6979446
  30.2713442  66.0821724  47.9152822  28.7896228  64.5337725  48.6300325
  27.9669404  64.0478849  48.3026028  29.4260049  64.3339396  49.9803257
  29.1388464  65.2178478  50.5498362  28.6690450  63.2236624  50.8251762
  27.6124382  63.4804440  50.9009695  28.6230087  62.3497629  50.1753426
  29.2533731  62.7897310  52.2650433  30.2874398  62.4458408  52.2415686
  29.3027806  63.7170601  52.8357553  28.3381271  61.7680597  53.0536604
  27.3477030  62.1800041  53.2472181  28.2372499  60.9059715  52.3943233
  29.0767813  61.2539482  54.2236996  29.9140286  60.6201792  53.9313745
  29.4594526  62.1376562  54.7343159  28.2169938  60.4173326  55.0688553
  27.4685860  61.0380173  55.3422403  27.8572273  59.6496534  54.5199108
  28.7032628  60.0105858  55.8551121  30.8976603  64.1632843  49.9171495
  31.6050506  64.8028851  50.6548738  31.3604617  63.2739019  49.0515041
  30.7737184  62.8567839  48.3430958  32.7556586  62.9395342  48.8467455
  33.2321906  62.6595974  49.7862387  32.8877687  61.7343187  47.8579617
  32.1329737  61.7394924  47.0716047  34.4059467  61.5985012  47.2617245
  35.1153755  61.7729282  48.0706644  34.5106697  60.5558348  46.9617510
  34.6449637  62.1449566  46.3493872  32.6952863  60.5364466  48.5446405
  32.2045898  60.0226021  47.8990555  33.5233092  64.0849257  48.3758831
  34.5751953  64.3306589  48.9097357  33.0790305  64.8615742  47.4339104
  32.1349525  64.7792196  47.0845795  33.8454056  66.0488272  46.9029617
  34.8576498  65.7731152  46.6072464  33.0860806  66.5483522  45.6570625
  32.0506954  66.7203760  45.9511518  33.6677623  67.8476334  44.9928570
  33.1981373  68.0317211  44.0265942  33.5658169  68.7101603  45.6514597
  34.7155023  67.5906706  44.8369360  33.0598330  65.4621077  44.5729494
  34.0455079  64.9971437  44.5920134  32.3915052  64.6408129  44.8316288
  32.8355026  65.8796644  43.5914087  33.9870811  67.1806049  47.9129314
  35.0617456  67.7875233  48.1764030  32.8644133  67.4421024  48.5487652
  32.1086621  66.7879963  48.4035540  32.8427696  68.4926844  49.5494270
  33.3065009  69.3822432  49.1231298  31.3598013  68.7592077  49.8423958
  30.9428549  67.8358650  50.2445078  31.2553453  69.5506048  50.5846119
  30.4091978  69.1429138  48.6521435  30.5785751  68.4263468  47.8484392
  28.9741278  69.1817284  49.2201996  28.2545185  69.4984150  48.4652424
  28.7121916  68.1990433  49.6124029  29.0463853  69.9263573  50.0129175
  30.7401705  70.4992342  48.0469894  30.1003790  70.5974627  47.1700001
  30.5856800  71.2862206  48.7851572  31.7678738  70.4704905  47.6849270
  33.6165094  68.0693436  50.7943344  34.3565893  68.9052629  51.2794256
  33.5790205  66.7614222  51.2276220  32.7321291  66.2895823  50.9443426
  34.3844604  66.2098646  52.3690605  34.3461943  66.8708038  53.2349730
  33.7800217  64.8573160  52.7466536  32.7201748  64.9557495  52.9814720
  33.8708735  64.3279076  51.7981958  34.4353342  63.9546442  53.8472795
  35.3487682  63.5082197  53.4542847  34.5985532  64.5896292  54.7180557
  33.4814501  62.4281693  54.2237854  32.8920841  61.9267511  52.5792170
  32.1881533  61.1167002  52.7699947  32.5191760  62.7641487  51.9894648
  33.7228727  61.3777065  52.1360016  35.8560777  66.0599709  51.9578886
  36.6924596  66.1625195  52.8748417  36.2138247  65.7044458  50.7325125
  35.5771375  65.5529594  49.9632406  37.6110983  65.9934998  50.3082752
  38.2684755  65.5995703  51.0833740  38.0017734  65.3038979  49.0104580
  37.2933078  65.6029415  48.2379627  38.9814258  65.6397629  48.6704922
  37.9808617  63.7559652  48.9415550  37.0966935  63.4166479  49.4811964
  37.9021811  63.3052444  47.5361252  37.5625181  62.2780418  47.4034548
  37.0879889  63.8145638  47.0205784  38.8641286  63.4860277  47.0564651
  39.1070986  63.0708456  49.6878815  40.0342941  62.9660845  49.1244650
  39.3479466  63.6952591  50.5482244  38.8333416  62.0829487  50.0583220
  38.0071592  67.4781799  50.2254152  39.1434455  67.7635288  50.7091093
  37.1975136  68.4555864  49.7629070  36.3402843  68.1365585  49.3345642
  37.5382996  69.8917961  49.5562840  38.3464360  69.9781942  48.8299561
  36.3861275  70.6202173  48.8605642  36.0887694  70.3049278  47.8604269
  35.4674816  70.5583525  49.4439697  36.6834402  71.6633749  48.7531805
  38.0412531  70.5304670  50.8523417  39.0665197  71.2750959  50.8692694
  37.4028134  70.3104401  52.0278406  36.6914105  69.5948076  51.9845343
  37.9356527  70.6441593  53.3626556  37.8645730  71.7207146  53.5178328
  37.0174718  69.8712683  54.3152905  36.0114050  70.1431084  53.9958620
  37.0614409  68.7906218  54.1797113  37.2092748  70.1446152  55.7858324
  38.1575274  69.6243906  56.4502144  36.5896344  71.0182238  56.4222240
  39.3581843  70.2100897  53.6499310  40.1699829  71.0734510  53.7214136
  39.7110224  68.9250565  53.5862541  38.9734864  68.2483244  53.4514189
  41.1069965  68.4630299  53.6275339  41.6518927  68.7521076  54.5262146
  41.1656427  66.9405365  53.4420490  40.7829046  66.7181826  52.4459696
  42.2217369  66.6941643  53.5518837  40.4064846  66.1909103  54.5235872
  40.6013632  66.6555929  55.4901266  39.3432546  66.1492538  54.2871380
  40.9311819  64.7597742  54.6376657  42.1016598  64.5271111  54.5629835
  40.1025915  63.8182592  54.9487209  40.5426359  62.9092550  54.9356747
  39.1083074  63.9821196  55.0169277  41.9832325  69.0887499  52.4630451
  43.0077791  69.6174049  52.7987146  41.6742086  69.0405893  51.1756611
  40.8468294  68.4785604  51.0354233  42.4765253  69.5183277  50.0387907
  43.4055185  68.9485216  50.0585699  41.8168211  69.1973114  48.6581564
  40.8822012  69.7578859  48.6397028  42.4211979  69.6719170  47.8851271
  41.5057087  67.7211142  48.2779837  42.4174261  67.1564245  48.0830288
  40.9184551  67.1629000  49.0071154  40.4520941  67.5170183  46.7343569
  41.8491077  67.6548243  45.5137730  42.6967287  67.0199013  45.7716608
  41.4385223  67.5253439  44.5123959  42.1590519  68.6936617  45.6271935
  42.9128933  70.9702682  50.1227808  44.1070223  71.2699556  50.0033426
  41.9549036  71.7898417  50.5307531  41.0872841  71.4227819  50.8948994
  42.1576929  73.1772852  50.8619404  42.6447439  73.6827517  50.0280428
  40.9993649  74.0600777  51.0085583  40.4078722  73.6503553  51.8273211
  41.4403915  75.4510546  51.4993763  41.5482855  75.4327822  52.5838757
  42.3208952  75.8711433  51.0132313  40.6704473  76.2090969  51.3556337
  40.2006197  74.1740417  49.6991062  40.9505987  74.4542122  48.9594221
  39.9125385  73.1346941  49.5414162  38.9368463  74.9878597  49.8176813
  38.1320190  74.5310736  49.2417479  38.5711932  74.9695730  50.8443594
  39.0395212  76.0293198  49.5128584  43.0579472  73.2678223  52.0704317
  44.1450405  73.8614225  51.9124079  42.7519989  72.6232958  53.1900930
  41.8061972  72.2970486  53.3284092  43.5643053  72.6145029  54.3703270
  43.7681961  73.6241341  54.7269344  42.8614616  71.8042755  55.4670382
  42.9237843  70.7346869  55.2665615  43.4066486  71.9629812  56.3974619
  41.5806723  72.2759199  55.6576443  40.9132671  71.6871595  55.2977419
  45.0136566  71.9703436  54.1493654  45.9057522  72.3509884  54.9099922
  45.2637482  71.1393690  53.0915642  44.4826698  70.9214973  52.4894476
  46.6423559  70.7705116  52.6646423  47.2542191  70.5220461  53.5318184
  46.7044830  69.6234655  51.7353058  46.2325239  69.8903704  50.7897282
  47.7570820  69.5561934  51.4603138  46.2272787  68.1729269  52.0329523
  45.1616478  68.0473089  51.8412256  46.7434549  67.5021172  51.3461637
  46.4996290  67.7306795  53.4892368  46.7382336  66.6671371  53.4960270
  47.3771238  68.2229042  53.9085484  45.3671360  68.0799532  54.4432259
  45.0669193  69.0375519  54.5571470  44.6570730  67.2771072  55.1717854
  44.7994184  65.9877396  55.2024269  45.5264902  65.6167746  54.6075726
  44.2698908  65.4040623  55.8341026  43.9616776  67.6562023  56.2319613
  44.1892815  68.5496902  56.6442442  43.5154772  66.9370890  56.7832136
  47.4015141  71.9340324  52.0433712  48.5799360  72.1540880  52.4249601
  46.7981768  72.6628160  51.1042643  45.8153582  72.4752808  50.9664345
  47.3649120  73.8733768  50.3556538  48.3755445  73.7283468  49.9739742
  46.4953566  74.2549801  49.0342426  45.4519510  74.5296717  49.1889715
  47.1124697  75.5274582  48.4726667  46.5991735  75.8398342  47.5632477
  46.9940090  76.3578939  49.1686869  48.1644487  75.4648924  48.1942272
  46.6592836  73.0895710  48.0484867  47.6992655  73.0107546  47.7317476
  46.3340044  72.1542501  48.5039854  45.7484055  73.2449961  46.7713642
  44.6744204  73.2649469  46.9564486  45.9066582  74.2132282  46.2964106
  45.9847641  72.5348139  45.9789801  47.6015520  75.0592089  51.3747787
  48.6547518  75.7974768  51.3183498  46.6323137  75.2734566  52.2787952
  45.8011293  74.7022867  52.2240591  46.7415285  76.2349749  53.3618593
  46.7875957  77.2829533  53.0656862  45.5708599  76.0583830  54.3625212
  44.5900726  76.1199903  53.8909626  45.6776667  75.0058699  54.6250343
  45.5120325  76.9746399  55.5500269  46.3790512  76.7442942  56.1691523
  45.4978657  77.9946518  55.1660013  44.3502665  76.7156458  56.4919662
  44.1553974  75.5536222  56.9588947  43.4820557  77.5823402  56.6932774
  48.0102015  76.0273218  54.1337872  48.6986780  76.9756079  54.3757486
  48.4750509  74.8197746  54.6143770  47.8612185  74.0189552  54.5696974
  49.8170948  74.5983171  55.3197336  49.7100210  75.2656889  56.1748648
  49.8182440  73.1713533  55.8624744  48.9976501  72.9548311  56.5464640
  49.6905565  72.4423361  55.0622654  51.0970688  72.8875732  56.6121817
  51.1591578  73.1127548  58.0014658  50.2664328  73.4103870  58.5314226
  52.3449373  72.8614902  58.6959457  52.4345064  73.0527639  59.7550917
  53.4583759  72.2386074  58.0284929  54.5986128  71.7616463  58.6954641
  55.1090860  71.1397076  58.1718159  53.3858156  72.0332766  56.7026615
  54.2536020  71.5670156  56.2599993  52.2451782  72.3941469  55.9725475
  52.2107887  72.2072983  54.9093866  50.9750557  75.0346565  54.5012522
  51.6304779  75.9913635  54.8901892  51.1204290  74.4886255  53.2933903
  50.4611778  73.7532473  53.0819464  52.1635056  74.7818041  52.2967386
  53.1280565  74.5067549  52.7234554  51.9044828  73.9141417  51.0332632
  50.9036732  73.8740349  50.6032896  52.7477789  74.4773197  49.8471498
  53.6784506  74.9604130  50.1447725  53.0570889  73.6386204  49.2234325
  52.1828461  75.1679087  49.2210197  52.2681046  72.4472475  51.3575792
  51.9059753  72.0215368  52.2933912  51.9697857  71.7493820  50.5752182
  53.3476305  72.4008894  51.5010357  52.2519636  76.2843370  52.0453978
  53.3294916  76.8453646  52.1635246  51.1768007  76.9792509  51.7355633
  50.2943802  76.4878893  51.7369032  51.0806465  78.3991766  51.4189005
  51.9107056  78.6767244  50.7692337  49.6257210  78.7260056  50.9279776
  48.8731241  78.2417774  51.5502501  49.4267082  79.7961998  50.9844160
  49.2525434  78.3004141  49.5774126  48.1177044  78.7277508  48.8288212
  48.1983948  78.1501675  47.6185989  47.4976730  78.0490208  46.8030214
  49.3910456  77.5770283  47.5609541  49.7216558  77.1441221  46.7104292
  50.0162458  77.6086569  48.7691975  50.9870911  77.1810341  48.9716768
  51.3904476  79.2065716  52.7100325  52.1298933  80.2073860  52.6737261
  50.9186459  78.8680410  53.9144039  50.4704237  77.9644203  53.9660168
  51.1487913  79.6657944  55.1337242  50.9422588  80.7123280  54.9096441
  50.1394701  79.2608261  56.1877108  50.4126453  79.6296406  57.1763706
  48.7929726  79.8779726  55.7983828  48.7611818  80.9487057  55.9999323
  48.5751486  79.4760656  54.8088789  48.0132961  79.4523335  56.4300728
  50.0771141  77.8517342  56.3944149  49.4004965  77.5902891  55.7655811
  52.5979137  79.4671822  55.6339216  53.2231712  80.3110886  56.3491821
  53.2477283  78.3259296  55.3215599  52.6738501  77.6213551  54.8807096
  54.6687460  77.9071331  55.5637836  55.1138830  78.4669304  56.3863325
  54.7471428  76.4149809  55.7641506  54.1838551  76.1274195  54.8763943
  55.7484913  76.0259151  55.5796671  54.0261507  75.8601189  57.0617723
  52.9974222  76.2168646  57.1123409  54.0837669  74.7732019  57.0035219
  54.6189499  76.2823629  58.4584045  55.6506634  75.9545088  58.5856438
  54.4256210  77.3454523  58.6018038  53.6704588  75.6392622  59.5074892
  52.6434278  75.9638071  59.3402052  53.7558699  74.5536852  59.4592714
  54.0958118  75.9947824  60.8543205  54.1443729  76.9940567  60.9928751
  53.4818840  75.7391596  61.6144896  54.9504614  75.4934549  61.0501194
  55.5418444  78.2438946  54.3090343  56.6804981  77.9248953  54.2576361
  54.9872303  79.0826511  53.4388065  53.9966393  78.9841080  53.6094570
  55.6572485  79.9904537  52.4726486  54.8625088  80.6836414  52.1969795
  56.7518854  80.7888031  53.1242466  57.6813269  80.2299976  53.2336712
  57.1276331  81.5906429  52.4886608  56.3034821  81.3163948  54.4606256
  55.2555752  81.9134998  54.5188427  57.0527029  81.1486721  55.5421638
  56.7073679  81.5047550  56.4219666  57.9862070  80.7656384  55.4978800
  56.1028957  79.4066620  51.0785818  56.8352413  80.1042080  50.3686237
  55.6387854  78.1826305  50.7131433  54.9438667  77.7463055  51.3020515
  55.8508110  77.4774265  49.5000505  56.6453028  77.9928398  48.9603949
  56.4214468  76.0349131  49.7691917  55.8723736  75.6904793  50.6455374
  56.2534285  75.4231882  48.8828135  57.8482628  76.0814762  50.2526236
  58.2325649  76.6349602  51.4667320  57.4916744  77.0690060  52.1217775
  59.5812941  76.6656923  51.8470335  59.7716999  77.0693493  52.8305054
  60.5972862  76.0892582  50.9894133  61.6175938  76.0834217  51.3434505
  60.1827049  75.5245256  49.7915697  61.0074234  75.1461554  49.2058372
  58.8342619  75.4813576  49.4471073  58.5453129  75.0297070  48.5095978
  54.5343208  77.4870586  48.7298918  53.4295034  77.6804209  49.2536354
  54.6611881  77.2585249  47.4459600  55.6173515  77.2608328  47.1206188
  53.6369324  77.0967293  46.4288568  52.6967049  76.7822838  46.8818474
  53.4972525  78.4242535  45.6545591  52.8667688  78.2051802  44.7928143
  52.6098204  79.3958378  46.4232302  51.5813923  79.0391731  46.4799738
  53.0849600  79.5947742  47.3838377  52.5189686  80.3647327  45.9322214
  54.8009253  79.1420078  45.1916790  55.5689287  79.4081831  45.9179163
  55.2493954  78.4135199  44.5161867  54.6714926  80.3505135  44.3271112
  54.3100214  81.2077808  44.8950434  55.6395245  80.6544495  43.9288187
  54.0157700  80.0431347  43.5124683  53.9571714  75.9393072  45.4800558
  55.0438738  75.5225039  45.2348375  52.8752041  75.2956486  44.9191809
  51.9426107  75.6297302  45.1160574  53.0499172  74.0092039  44.2643118
  53.8753891  73.4863806  44.7473717  51.8769836  73.1316710  44.4752264
  51.6952896  73.0011606  45.5420160  50.9415293  73.5942841  44.1605711
  51.8638468  71.7730141  43.8673306  51.5154219  71.4207220  42.5553846
  51.8409824  70.1221657  42.4399042  51.6230488  69.4933844  41.5892935
  52.3276901  69.6515989  43.6210489  52.7314949  68.7375116  43.7676477
  52.4683523  70.7106876  44.4800663  52.8950310  70.6617641  45.4710007
  53.3696890  74.1474533  42.8115702  54.2979097  73.4492874  42.3289728
  52.5964212  74.9474335  42.0354366  51.7615557  75.2685118  42.5044870
  52.7754259  75.3875828  40.6175518  52.1470404  76.2570763  40.4246378
  54.1543961  76.0604525  40.5151033  54.8371124  75.2116299  40.5538511
  54.1931725  76.5349483  39.5345664  54.4844198  77.0569897  41.5914011
  53.7416363  77.8536558  41.5501738  54.2701864  76.7113876  42.6027250
  55.8697271  77.5025940  41.8222857  55.9548187  78.2557964  42.6055765
  56.4647055  76.6015387  41.9712830  56.5492964  78.0895662  40.6770039
  56.9389248  77.3833609  40.0690889  56.8446493  79.3481922  40.4887390
  56.3242149  80.3480530  41.2095881  55.4611301  80.2178764  41.7177629
  56.7554808  81.2537289  41.0918665  57.7871561  79.7506666  39.7075534
  58.3793449  79.0317059  39.3170333  57.8661394  80.7561684  39.7607279
  52.4461699  74.3939018  39.5216012  52.4575758  74.7322273  38.3339524
  51.8965101  73.2633305  39.8956943  51.7781782  73.0977678  40.8849859
  51.5737152  72.1332598  38.9893150  51.0958385  72.5879669  38.1215739
  52.8649330  71.3394690  38.6975503  53.6377287  72.0953512  38.5577965
  53.1290483  70.7139540  39.5502353  52.7912045  70.5379486  37.3928857
  52.1926594  71.0121107  36.4179063  53.3914614  69.4725800  37.3870444
  50.4206562  71.2505436  39.4966173  50.4861403  70.0456524  39.3683910
  49.4314194  71.7657900  40.2439547  49.4100094  72.7749491  40.2791786
  48.3688450  70.9995747  40.8832502  48.8019466  70.3686905  41.6594648
  47.4670124  71.9967079  41.6151762  47.3699284  72.8528881  40.9476137
  46.0169554  71.5837479  41.8611574  45.4217339  71.4953089  40.9523201
  45.8587933  70.6559277  42.4109125  45.5153370  72.3513269  42.4504805
  48.0047178  72.5785398  42.9511499  49.0122604  72.9944277  42.9509354
  47.4460697  73.4759760  43.2168961  47.8812933  71.5658426  44.1183376
  48.2889223  70.5904675  43.8526440  48.5036707  71.9112253  44.9438381
  46.8266010  71.4960384  44.3845272  47.5249243  70.1204014  39.8805237
  46.8958569  70.5709076  38.8741302  47.3782682  68.8500977  40.3249454
  47.9513216  68.6218405  41.1247015  46.6918278  67.6314306  39.6786809
  46.0453320  68.0244493  38.8940287  47.7144146  66.5755367  39.1086388
  48.4650517  66.4527702  39.8893881  47.1313477  65.6553030  39.1447496
  48.2735538  66.8949556  37.7703643  47.4805307  66.7024374  37.0477605
  48.5979414  67.9330397  37.6978731  49.5253229  66.0699844  37.3782635
  49.2554283  65.0151968  37.4301219  49.8643589  66.4078665  36.3989830
  50.7062483  66.2229061  38.2889938  50.4308939  65.8074999  39.2583847
  51.3593245  65.4125547  37.9650664  51.3746452  67.5455427  38.2569957
  51.7782354  67.6688528  37.3393846  50.7815123  68.3010340  38.5692930
  52.0820522  67.5483751  38.9778733  45.7915545  66.9273233  40.6606627
  45.9245062  67.0847559  41.8787622  44.8965311  65.9688854  40.2159166
  44.2751408  65.8591700  38.8576031  44.9872875  66.0299110  38.0502653
  43.4598446  66.5345192  38.5981846  43.6594582  64.5379639  38.8046288
  44.3384838  63.7843037  38.4058571  42.8068399  64.6006584  38.1284523
  43.1994247  64.2460442  40.2611256  43.0689192  63.2049942  40.5565643
  42.3764706  64.9105072  40.5244541  44.3769312  64.9470520  41.0348749
  44.0386057  65.4090071  41.9623661  45.4861832  63.9728928  41.3941956
  45.4593277  63.5325670  42.5490999  46.4753008  63.8112688  40.5710506
  46.2560415  64.0650654  39.6183634  47.6753426  63.0004978  40.8364439
  47.3296356  62.0087910  41.1281776  48.6290359  62.9996729  39.6535516
  49.1130686  63.9645720  39.5026112  49.4962168  62.3730803  39.8620701
  47.8096724  62.5214577  38.4675622  47.8928137  61.3464832  38.0365014
  47.1478796  63.3678627  37.8325534  48.4328556  63.5150433  42.0969009
  49.1451216  62.7651119  42.7613640  48.3690739  64.7977257  42.4678898
  47.8523636  65.4795885  41.9310713  49.1152430  65.2898121  43.6451530
  50.0273228  64.6950006  43.6942911  49.4722939  66.7404604  43.5260916
  48.6100721  67.4069929  43.5058069  50.1433420  66.9626141  44.3558264
  50.3125668  67.0501566  42.2897768  49.7723627  67.7049255  41.3833618
  51.5136528  66.5491581  42.2071838  51.9291210  66.4849997  41.2888336
  51.9107676  66.0298061  42.9770374  48.4956312  64.9319172  44.9574089
  49.2569828  64.9947357  45.9581614  47.2206783  64.4150352  45.0017643
  46.7569351  64.4971752  44.1082907  46.4152670  64.1047144  46.1995459
  46.9357729  64.5565939  47.0439291  45.0746870  64.8657703  46.1566305
  44.4172573  64.6156502  45.3239727  44.5139837  64.6811771  47.0729494
  45.3356791  66.3760996  46.1512566  45.6797504  67.0411539  47.3411274
  45.9045172  66.5960455  48.2991314  45.7186365  68.4039068  47.3478317
  46.0201979  68.9829588  48.2081652  45.5986929  69.1230011  46.1869669
  45.6831121  70.1985645  46.2363911  45.3124714  68.4259081  44.9283123
  45.1256418  68.9700174  44.0142822  45.1639175  67.0509291  44.9518919
  44.9962091  66.4899397  44.0443897  46.2517166  62.5894690  46.4479208
  45.4882097  62.0066023  45.6351137  47.0040321  62.0017624  47.3612070
  47.6431322  62.5764561  47.8916597  46.9370413  60.5730343  47.7501488
  46.1100578  60.0921535  47.2276878  48.3047485  59.9170160  47.5786495
  49.0805769  60.4891300  48.0874491  48.3513737  58.9761257  48.1269646
  48.9004278  59.6269035  46.2155628  48.2205057  58.9512491  45.6966209
  49.1753244  60.8980608  45.5131578  49.5304918  61.6827011  46.1812115
  49.8799324  60.7849741  44.6892405  48.2126045  61.1698961  45.0802898
  50.1971912  58.9101934  46.3312721  50.1150036  57.8690910  46.6434526
  50.6782818  58.8758993  45.3537893  50.8570910  59.5382166  46.9297934
  46.4493704  60.2951813  49.1800308  46.7784834  60.9144783  50.1670694
  45.5959177  59.2450142  49.2480564  45.2336645  58.8704109  48.3828640
  44.9904823  58.8825846  50.5184650  44.6372080  59.7726440  51.0391331
  43.7384796  58.1028080  50.2704191  43.9647245  57.2603130  49.6168756
  43.2911587  57.7447653  51.1976767  42.6228428  58.9266920  49.5643663
  43.0403614  59.3953180  48.6732054  41.8961048  58.1777334  49.2496824
  41.9019175  60.2160263  50.6273556  41.3300800  59.4227457  52.0690489
  40.5653811  60.0051069  52.5830460  40.8919716  58.4666586  51.7825842
  42.2027397  59.1132832  52.6442003  46.0830975  58.1884193  51.4624310
  46.8238831  57.3404121  50.8566761  46.1087608  58.4880257  52.7749538
  45.5298185  59.1905022  53.2125092  47.0947647  57.8074026  53.6429930
  48.0816269  57.8010893  53.1802177  47.0038795  58.4132624  54.5445347
  46.7011833  56.3282251  53.9503717  45.9041595  55.6717634  53.2661438
  47.2966814  55.8026600  55.0560951  47.8742456  56.4138746  55.6155014
  47.4718142  54.3543148  55.3483009  46.6504717  53.7728119  54.9295473
  48.8705873  53.9648676  54.7585344  49.5271349  54.8021269  54.9952745
  49.3458271  52.7086639  55.4748583  48.6757040  51.8747377  55.2660322
  50.3520679  52.5315905  55.0950909  49.4299126  52.9771852  56.5279150
  48.9232445  53.7620926  53.2293558  48.6965275  54.6587896  52.6526117
  49.9341869  53.4507179  52.9664135  47.9540920  52.6627970  52.7485991
  46.8906975  52.8243351  52.9252768  48.0743790  52.5321627  51.6731644
  48.1868219  51.6534996  53.0881023  47.4281597  54.1640759  56.8551064
  48.0376625  55.0057697  57.6532793  46.8550205  53.0259132  57.3153591
  46.3627481  52.4420261  56.6544199  46.6758633  52.5313282  58.7093163
  45.9048986  51.7650366  58.6285782  47.5625753  52.1100855  59.1830206
  46.1105442  53.6210585  59.5446587  44.9795675  54.1306686  59.2354679
  46.8008566  54.0789270  60.5751133  47.6808596  53.6099577  60.7356119
  46.3940430  55.2765465  61.4274073  45.5462313  55.0082874  62.0577717
  47.4687815  55.5636787  62.4424601  47.0206451  56.4528799  62.8858519
  47.5537062  54.7532034  63.1663513  48.7834835  56.0161161  61.8061113
  49.2669630  55.1106691  61.4393616  48.6460209  56.6293287  60.9155083
  49.7337341  56.7158604  62.7967024  49.1188192  57.4366570  63.3356285
  50.0500202  56.0418272  63.5927820  50.9451294  57.2562885  62.1161938
  51.4455986  56.5217590  61.6365051  51.7714167  58.1993818  62.5546837
  51.4532948  58.9788675  63.5430717  50.5451250  58.8000298  63.9472294
  51.9345808  59.7677422  63.9506769  52.9419947  58.4597111  62.1274614
  53.2937431  58.0387259  61.2794304  53.4628010  59.1824532  62.6033831
  45.9536266  56.5073490  60.6186962  45.1916265  57.3105574  61.1399651
  46.4090729  56.6304731  59.3517351  47.1482658  55.9992313  59.0774441
  46.1421633  57.8242493  58.5755348  45.4439402  58.4530830  59.1279411
  47.3179579  58.6374187  58.2372856  48.0115986  57.9926825  57.6975822
  46.9908524  59.5212698  57.6896477  48.0521488  59.0600109  59.4604063
  47.5192785  59.7031260  60.5996180  48.5152006  60.1557255  61.3886595
  48.3768320  60.5415106  62.3878717  49.7003746  59.8307323  60.7441616
  50.6173372  60.0784349  61.0875607  49.4598818  59.2020226  59.5361185
  50.2094746  59.0391541  58.7758636  45.4117775  57.4025869  57.3001432
  45.3364420  58.1481886  56.3299370  44.6302366  56.3232136  57.3063326
  44.7397470  55.7414103  58.1246328  43.7349558  55.8384228  56.2226009
  44.4071436  55.4409790  55.4621363  42.9955816  54.6420479  56.7240095
  43.7852097  53.9324427  56.9711018  42.4279547  54.9135542  57.6140594
  41.7840338  54.0069866  55.5914831  41.0469007  55.1205873  55.5537415
  42.7470160  56.8732405  55.5625010  42.3552799  56.6801119  54.4313860
  42.3778486  57.8717709  56.2878656  42.8344965  58.0257654  57.1754789
  41.4306021  58.8982868  55.8616781  41.0608578  58.6136818  54.8765945
  40.3265905  58.9478207  56.9786215  40.8519602  59.0960741  57.9220772
  39.6662879  59.8092842  56.8787146  39.5704842  57.6583672  57.0585299
  39.7016311  56.8873119  56.1385250  38.8892293  57.3517036  58.1545401
  38.4058690  56.4657164  58.1161404  38.8937163  57.8944969  59.0062809
  41.9673109  60.2911806  55.6446505  41.2435007  61.1070251  55.0815296
  43.1888247  60.5533648  55.9941864  43.7727737  59.7715759  56.2547874
  43.8911963  61.7805529  55.6535912  43.2489538  62.6489639  55.8001852
  45.0874329  61.9409657  56.5453959  45.8686590  61.1904240  56.4251137
  45.6337833  62.8389072  56.2567663  44.6815634  62.2708321  58.0206203
  43.9678717  63.0857658  58.1416416  44.1780853  61.4009476  58.4424162
  45.8882618  62.6272535  58.9101410  46.5431833  61.7575216  58.8577700
  46.3343954  63.5404491  58.5162592  45.5919313  62.7807331  60.4057980
  46.4849281  63.0775023  60.9558725  44.9649000  63.6467314  60.6178856
  45.0050640  61.5258121  60.9706402  44.5436001  61.6372013  61.8621254
  44.3582678  61.1252022  60.3063631  45.7241011  60.8165550  60.9762526
  44.4152355  61.8843746  54.1772652  45.1654148  60.9961843  53.7461424
  44.1066599  62.9593182  53.5220480  43.5387373  63.6449766  53.9989567
  44.8168898  63.3362865  52.3504257  44.7462320  62.4181747  51.7671680
  44.0890408  64.5233536  51.5977049  43.7033892  65.2467346  52.3160982
  44.7999382  65.0922585  50.9984779  42.9978943  64.0315962  50.5819798
  42.1380091  63.5839844  51.0803175  42.3173761  65.2357912  49.9191570
  41.7656660  65.8478498  50.6326675  43.0355406  65.9786797  49.5720720
  41.5961599  64.9586630  49.1502905  43.6064434  63.1216860  49.4593287
  42.8248739  63.0049706  48.7085772  44.4453955  63.6722422  49.0337133
  43.8833237  62.1368647  49.8355865  46.2671852  63.6265850  52.6030874
  46.6067457  64.4150591  53.5627222  47.0722961  63.1935167  51.5954208
  46.7480373  62.5792837  50.8621597  48.5523081  63.4895849  51.4924097
  48.7878847  64.1578960  52.3206377  49.4389963  62.2376633  51.7511320
  48.9069510  61.3958836  51.3079262  50.4116488  62.3593330  51.2744188
  49.6769905  61.7033768  53.1222773  48.6559582  60.9512568  53.8325357
  47.7024364  60.8073759  53.3462334  48.8919306  60.5172348  55.1641703
  48.1547308  59.8784351  55.6277132  50.0267076  60.9808064  55.8919954
  50.2056360  60.7427883  56.9301367  51.0311317  61.6623449  55.2199745
  51.9410133  61.9986629  55.6947517  50.8916092  61.9757318  53.8442945
  51.6784239  62.5438643  53.3704281  48.8613272  64.1987658  50.1732826
  48.2177353  63.7872505  49.1813135  49.7334766  65.2180147  50.1749372
  50.0602055  65.4679298  51.0973740  50.0847292  66.1325121  49.0847301
  49.4498539  65.8098412  48.2595539  49.6566057  67.6083469  49.3345594
  48.5713530  67.6000214  49.4358730  50.1185131  67.8451347  50.2930355
  49.9560785  68.8142872  48.3730268  51.0028410  69.1083574  48.4499979
  49.7081947  68.3582067  46.9286871  50.5964756  67.8779602  46.5182877
  48.8072681  67.7537727  46.8233824  49.6952248  69.2929697  46.3682032
  49.0925312  70.0239182  48.6475563  49.0719557  70.7925177  47.8749466
  48.0764532  69.6645117  48.8103724  49.4628811  70.5247641  49.5420265
  51.6208553  65.9049892  48.6495590  52.5424623  66.0216522  49.4367313
  51.9080734  65.4747438  47.3642206  51.2074852  65.5941391  46.6465712
  53.2240582  65.0046158  46.8466520  53.9392614  65.5545521  47.4583340
  53.5243511  63.4421253  47.0241737  54.4722986  63.2079411  46.5397596
  53.7580204  63.1862020  48.4875870  52.8405237  63.2729578  49.0696287
  54.1012716  62.1589184  48.6099195  54.5704222  63.8020897  48.8733196
  52.4281454  62.5564814  46.4775324  52.3244238  61.7234802  47.1728373
  51.4176083  62.9539442  46.3829851  52.7525997  61.9290257  45.1326990
  53.6504793  61.3163805  45.2137470  52.0386505  61.1750937  44.8010826
  52.8416157  62.7436829  44.4140100  53.5824919  65.4751158  45.4715967
  52.8209925  66.2431288  44.8316193  54.7767735  65.0425386  44.9766159
  55.3639650  64.4257641  45.5196667  55.2495193  65.3590107  43.5957718
  56.3134480  65.1356363  43.5165977  54.5575762  64.5012903  42.5797319
  54.7188473  63.5417986  43.0711222  53.4907532  64.7126150  42.5067329
  55.3551388  64.4860411  41.2535572  54.9132204  63.8487625  40.2940178
  56.4526653  65.1679707  41.0747099  55.1711845  66.9314098  43.3437252
  54.4069433  67.5241947  42.5160456  56.1905956  67.5971222  43.9910603
  56.7914963  67.0167065  44.5586348  56.4360428  69.0392256  43.9071989
  55.4716873  69.5221996  43.7495518  56.8619013  69.4000006  45.2959919
  57.5720930  68.6752081  45.6939888  57.3956108  70.3503275  45.2844858
  55.7414484  69.5139074  46.3269424  55.2276182  70.7782030  46.6894770
  55.5040598  71.6367579  46.0954523  54.3730164  70.9583282  47.8161430
  54.2427349  71.9888735  48.1117916  53.9187670  69.8975706  48.4441185
  53.4257698  70.0769091  49.3881512  54.3878031  68.6361694  48.0446100
  54.0993977  67.8141165  48.6829329  55.2603722  68.4457827  46.9954586
  55.5595112  67.4231339  46.8190908  57.4031305  69.4737053  42.8134584
  58.2548189  70.3182364  43.0408764  57.2614670  68.7621212  41.6209459
  56.4115572  68.2192564  41.5656757  58.0628204  68.8773727  40.3884649
  59.0455484  68.4549713  40.5980444  57.7191257  68.1794643  39.6249890
  58.2716656  70.3224945  39.8184061  59.2124796  70.5111504  39.0393567
  57.5155926  71.3196993  40.1987839  56.6179562  71.0610342  40.5827761
  57.7106333  72.7576923  39.7707009  58.6707163  72.9429483  39.2890120
  56.6143131  72.9955673  38.7685704  56.3725615  72.0751762  38.2370257
  55.6583309  73.1411886  39.2715645  56.8106842  74.1166687  37.7033329
  57.0274115  75.1130772  38.0884385  57.9742146  73.8445950  36.7322826
  58.8819838  73.6084843  37.2875285  57.7708197  72.9643822  36.1223960
  58.1881142  74.7469759  36.1595225  55.5667830  74.2026281  36.8418694
  54.7137499  74.0758038  37.5084758  55.5701208  75.0973034  36.2192559
  55.4903173  73.3149767  36.2139106  57.5545549  73.8483047  40.8685303
  57.4879599  75.0443316  40.5835390  57.5622082  73.3829117  42.0827913
  57.6553631  72.3882675  42.2314644  57.3632908  74.2991352  43.2434320
  56.4109087  74.8231936  43.1632280  57.3739004  73.4774208  44.5247507
  58.1735373  72.7378750  44.5666122  57.4467993  74.1367340  45.3896666
  56.4137125  72.9747772  44.6409607  58.4865522  75.3257656  43.4498692
  59.5332336  75.2109957  42.8411341  58.1815195  76.3162041  44.2671728
  57.2059631  76.3828325  44.5200682  59.1437483  77.3440409  44.7702503
  60.1113510  76.8824720  44.9672318  59.3083096  78.4965086  43.8127899
  59.1478539  78.1892204  42.7793837  58.6076307  79.2889643  44.0757895
  60.7408619  79.1547155  43.8986683  60.5693865  80.2126884  43.7001753
  61.0979462  79.0069008  44.9178553  61.7446995  78.4458637  42.8700018
  61.2827492  78.4370756  41.8827724  62.6582050  79.0354156  42.7923012
  62.0874596  77.0380259  43.2840157  62.6100254  77.0524883  44.2404747
  61.1420774  76.4955044  43.2803535  63.0553961  76.3848782  42.2862196
  63.1496191  75.3933001  42.4535751  62.6563883  76.4845324  41.3637447
  63.9672232  76.8025541  42.4054480  58.6445141  77.8594065  46.1423492
  57.4783087  77.8108025  46.4407015  59.5396614  78.3304644  47.0223856
  60.4932785  78.2696342  46.6952515  59.2935276  79.4173479  48.0557966
  58.4341097  79.0895462  48.6406469  60.5922461  79.6381521  48.8913393
  60.9251308  78.6467648  49.1986513  61.3101244  80.1299477  48.2349205
  60.3507853  80.4985809  50.1578856  59.9336624  81.4510345  49.8308563
  59.6928120  80.0853634  50.9223604  61.6345263  80.9909725  50.8811617
  62.2361708  81.5990162  50.2055788  61.3525343  81.6114521  51.7318010
  62.4451971  79.8511839  51.5007734  61.8154001  79.3021870  52.2008181
  62.8935528  79.3011189  50.6734228  63.5058212  80.4496098  52.3347330
  64.0569067  81.0351562  51.7235518  63.2075024  80.9852219  53.1373739
  64.1720104  79.7741652  52.6812363  58.8647556  80.7280159  47.4296427
  59.3525410  80.9512615  46.3358879  58.0313396  81.5435600  48.1316376
  57.6124811  81.1721420  48.9722967  57.4628353  82.8245640  47.6429319
  58.1846333  83.0872059  46.8695354  56.0432339  82.6939487  47.0819855
  55.7702827  83.4394836  46.3351345  55.8839035  81.7389488  46.5813017
  55.0363731  82.7054501  48.1966209  54.4905186  83.8877296  48.7433434
  54.7669411  84.8603439  48.3638573  53.4643745  83.6679268  49.7245359
  52.9737663  84.5705891  50.0575829  52.9851818  82.3964596  50.0812197
  51.8711805  82.2873497  50.8979702  51.9607830  81.5850925  51.5463591
  53.5631084  81.3037682  49.5299625  53.1604147  80.3327751  49.7777843
  54.6458578  81.4336872  48.6024094  54.9473095  80.5092335  48.1324053
  57.5091887  83.9101028  48.7472820  57.3202610  85.0527668  48.4576178
  57.8871393  83.5567951  50.0055981  58.2550192  82.6196384  50.0862885
  57.8377581  84.5270443  51.1316442  58.0855227  85.5219078  50.7615614
  56.4218903  84.4506741  51.7486668  55.7280922  84.6650887  50.9357834
  56.1300468  83.4172916  51.9358826  56.1286211  85.3874683  52.8473043
  56.6106462  85.0073242  53.7479925  56.6353273  86.3440514  52.7195597
  54.6961689  85.6271076  53.1938601  54.7959471  86.4045238  53.9513350
  54.2171669  85.9634781  52.2743368  53.9956141  84.4546318  53.7455797
  54.6486759  83.7977600  54.1482353  52.6551914  84.2094231  53.7897301
  51.8240118  85.0160027  53.2403612  52.1287394  85.9603024  53.0518198
  50.8438301  84.8266792  53.3936787  52.2703457  83.0754566  54.2313862
  52.9409695  82.4640274  54.6746969  51.2758684  82.9114532  54.1664124
  58.8774681  84.0933704  52.0880365  59.0450096  82.9330635  52.4370909
  59.5565367  85.0868797  52.6991463  59.4088411  86.0542393  52.4491262
  60.5675554  84.8388004  53.7459373  60.2923870  84.0058041  54.3928528
  61.9254971  84.4556522  53.1703615  61.6893435  83.6893272  52.4320650
  62.3781395  85.2663898  52.5994587  62.9823208  83.8993168  54.1884756
  63.3336258  82.7162266  54.1262102  63.5964775  84.6824646  54.9625444
  60.7611561  85.9870720  54.7363520  60.8530474  87.1726799  54.3825626
  60.9918737  85.6596947  56.0358953  61.0347748  84.6840477  56.2935066
  61.0910273  86.6775608  57.0836592  60.1763773  87.2663689  57.1530390
  61.3173628  85.9470081  58.3874273  60.6239462  85.1060486  58.3952141
  62.3635864  85.6411934  58.3866644  61.0097885  86.8881989  59.6008015
  59.9129200  87.4126530  59.6993542  61.9887829  87.2671413  60.3619528
  61.7448092  87.9995155  61.0132599  62.9216862  86.8904114  60.2732372
  62.1335220  87.8285217  56.8991423  61.8640137  89.0179157  57.2579098
  63.2172298  87.4370480  56.2213612  63.2841825  86.4577675  55.9833908
  64.3365717  88.3448029  55.8260059  64.5564222  88.9517212  56.7043114
  65.5480719  87.4500370  55.5118942  65.1904297  86.7574120  54.7500134
  66.3203907  88.0809498  55.0719070  66.0895634  86.7243862  56.8124962
  66.5906143  87.4548912  57.4476433  65.2377319  86.2759495  57.3237610
  67.0421743  85.5227852  56.3990927  67.7679586  85.8578110  55.6580782
  67.6185131  85.1366425  57.2398233  66.3671303  84.4065094  55.7048178
  65.4071712  84.5122910  55.4092073  66.8709135  83.1818199  55.5197191
  68.0575228  82.8338146  55.9110689  68.5435438  83.5022068  56.4917088
  68.3163834  81.8628788  55.8091640  66.2387466  82.2517109  54.8581886
  65.2772617  82.4354649  54.6094275  66.8080807  81.4644623  54.5821381
  64.0619183  89.3402386  54.6623611  64.7871494  90.3273106  54.5741129
  62.9872465  89.1310310  53.8832378  62.3524380  88.3638287  54.0521336
  62.4927139  90.1027107  52.9147100  62.9234362  91.0689163  53.1774378
  62.9741716  89.7858238  51.5318727  62.4231148  90.4638100  50.8801222
  64.5034266  89.9273968  51.3382769  64.8061228  89.5876789  50.3477907
  64.7537708  90.9765339  51.4955711  64.9857378  89.3308067  52.1125841
  62.6312113  88.4802723  51.0620356  61.6855431  88.3254623  51.1199522
  61.0517788  90.4040527  52.9359722  60.6299973  91.5457153  52.7826834
  60.1766253  89.4119072  52.9909515  60.5675364  88.4808922  53.0133915
  58.6791897  89.4235897  53.1279469  58.3464813  88.4355354  53.4460020
  58.2055569  90.5607796  54.1158628  58.5045576  91.5667629  53.8213968
  57.1232700  90.4739952  54.0198231  58.5298634  90.3198433  55.6165314
  58.1030750  89.3890762  55.9901810  59.6113920  90.1965523  55.6729937
  57.9387093  91.4568710  56.5011501  56.8603086  91.5395164  56.3657808
  58.1782866  91.2343979  57.5409603  58.5983562  92.8051949  56.3164186
  59.6031666  92.7088642  56.2820482  58.0621481  93.9614391  56.1464167
  56.7853117  94.1933346  56.5112638  56.4879704  93.6481094  57.3077679
  56.3529015  95.1005936  56.4112139  58.6941385  94.9040508  55.5400610
  59.6805573  94.7147369  55.4340649  58.2084703  95.7363796  55.2376461
  57.9465103  89.6475410  51.7425394  56.8955135  88.9679146  51.4638901
  58.5401249  90.5434418  50.9429789  59.2977238  91.0730457  51.3499975
  58.0233669  90.9215832  49.5700073  57.0096111  91.2955666  49.7133398
  58.8822126  91.9939327  49.0028238  59.2374039  92.6343727  49.8101568
  59.7450638  91.5624237  48.4954882  58.0503559  92.6998806  47.9384708
  58.1307936  92.1233368  47.0169306  57.0217800  92.9222965  48.2224798
  58.7292910  94.0157604  47.5245285  59.8626709  94.0412140  46.9881678
  58.1801939  95.1799393  47.8031588  58.7064791  96.0108376  47.5735378
  57.2986078  95.1762104  48.2960081  57.8566217  89.6467018  48.6684608
  58.7706089  88.7856865  48.5003805  56.7116213  89.5526981  47.9736805
  56.0948277  90.3467178  48.0696058  56.4596605  88.5100937  46.9786930
  56.6347218  87.5715446  47.5046062  54.9712133  88.5209465  46.5387058
  54.3500233  88.4667683  47.4327374  54.6852636  89.4618416  46.0685349
  54.5183277  87.5225067  45.4804945  54.5791101  86.1453056  45.5739307
  54.1365290  85.7041740  44.3357754  54.0695000  84.6623135  44.0593338
  53.8631535  86.7613506  43.5000610  53.4227037  86.6132545  42.6033068
  54.1572332  87.8769016  44.1970682  53.9825535  88.8341045  43.7283945
  57.4509525  88.4669590  45.7833958  58.3023596  89.3070412  45.6093264
  57.3326540  87.3815155  44.9548864  56.6351509  86.7278004  45.2808523
  58.1637764  87.0194149  43.7599945  59.1688156  86.9305420  44.1724205
  57.6126719  85.6169224  43.1718206  56.6004801  85.6804371  42.7724028
  58.5519171  85.2478409  42.0183516  58.6114979  86.0377216  41.2695885
  59.5325756  85.1282024  42.4788904  58.2335138  84.2697906  41.6576099
  57.6128340  84.5955944  44.3602753  58.6674070  84.5799255  44.6354771
  56.9982195  84.8540592  45.2225685  57.1022701  83.2071018  43.9421511
  57.6049471  82.8317833  43.0507755  57.2358894  82.5592136  44.8084593
  56.0267353  83.2966995  43.7895060  58.1327581  88.1676960  42.7794743
  57.0500851  88.5790348  42.4278164  59.2490482  88.5773563  42.2291088
  60.6357622  88.3100414  42.6088095  61.0268450  87.3632812  42.2362375
  60.7270908  88.3409023  43.6945391  61.4325142  89.3594170  41.8411732
  62.4745417  89.0600681  41.7285967  61.4119196  90.3265953  42.3434162
  60.6685257  89.5458317  40.5484056  60.9713268  88.6725903  39.9705958
  60.9478712  90.4861832  40.0732183  59.2142439  89.4866943  41.0277462
  58.9295912  90.5026245  41.3015270  58.2247448  88.9987278  39.9724984
  58.2711220  87.8037739  39.5478177  57.3473072  89.8353386  39.3197680
  57.0497799  90.6377792  39.8561144  56.6858768  89.5740032  37.9990768
  56.0460997  88.7284374  38.2516885  55.9001637  90.8236504  37.5872016
  55.3951359  91.2057781  38.4743452  56.6630554  91.5379810  37.2776341
  54.9626780  90.3933239  36.4853930  53.9298391  89.4745064  36.8334723
  53.6813641  89.2855072  37.8673697  53.1314659  88.9609528  35.7934546
  52.2863054  88.3355904  36.0404944  53.4989691  89.1865444  34.4418859
  52.7435780  88.6151409  33.4769034  53.0726480  88.8897419  32.6178885
  54.5752954  90.0611782  34.1095114  54.8707533  90.2218819  33.0832195
  55.3497887  90.5992603  35.1530361  56.2080479  91.2273502  34.9651551
  57.6741123  88.9948750  36.9692945  58.7877846  89.4745350  36.7889524
  57.0890141  88.0322552  36.2236953  56.0900927  87.8953838  36.2830949
  57.8028679  87.3041058  35.0137019  58.3863688  88.0057526  34.4176197
  58.7533236  86.3729477  35.7252145  59.5248079  86.9386292  36.2476301
  58.2077932  85.8076572  36.4808249  59.5293474  85.3804111  34.9253464
  58.8347864  84.6341991  34.5395374  60.1454926  85.8017635  34.1310358
  60.5772972  84.5418358  35.6690073  61.0017395  83.9455986  34.8612666
  61.4166451  85.1836967  35.9366226  60.0422955  83.7163639  36.8228173
  59.0435171  83.6037540  36.9220924  60.7895041  83.1524467  37.7044725
  62.0471430  83.2134724  37.7109575  62.6094866  83.5844326  36.9584537
  62.5133085  82.7500820  38.4778070  60.1785803  82.4510288  38.5891342
  59.1688824  82.4579906  38.5654640  60.7249975  82.0147038  39.3179369
  56.8145466  86.5656853  34.0698171  55.7274771  86.2481213  34.5627356
  57.2534323  86.4251709  32.8407407  58.1507492  86.7851925  32.5486636
  56.3773441  85.9526825  31.7008543  55.8538198  85.0343609  31.9667768
  55.2659512  86.9673157  31.3740015  54.5558834  86.5741062  30.6464791
  54.6272469  87.1859741  32.2297740  55.8987904  88.2832718  30.8712387
  56.2798595  88.7606621  31.7740035  56.7206049  88.0796909  30.1847434
  54.8530388  89.3021202  30.2865696  55.3417730  90.1133156  29.4637728
  53.7070322  89.3998051  30.7934070  57.3670864  85.5840397  30.5505252
  58.5809946  85.4346371  30.7745433  56.8451166  85.3554821  29.3424749
  55.8884335  85.6583691  29.2279410  57.3965979  84.5234776  28.2872605
  56.6352606  84.5653343  27.5083399  58.7527609  85.1196861  27.7601027
  59.4933224  84.9801254  28.5476232  58.9124203  84.5537376  26.8423319
  58.5421801  86.6210651  27.3480153  59.5400906  87.3448658  27.4450088
  57.4083042  86.9855785  26.8805122  57.5159693  83.0389118  28.7437868
  58.5694933  82.4231434  28.5001159  56.4937735  82.4866199  29.4001222
  55.6369829  83.0046082  29.5332050  56.4135981  81.0924816  29.9038315
  57.3510504  80.6511116  29.5654964  56.4048767  81.0178280  31.4617562
  55.3694344  81.0946846  31.7934966  56.4927387  79.9770784  31.7735696
  57.3234749  82.0150375  32.3056579  58.3632803  81.7487240  32.1159744
  57.1809864  83.0316448  31.9391942  57.1492529  82.0399857  33.8134766
  57.7463722  82.8787041  34.1713953  56.0836172  82.1164322  34.0295219
  57.6971912  80.6785011  34.4262433  57.0494938  79.8927879  34.0373421
  58.6893368  80.4905891  34.0158391  57.6580715  80.6651306  35.8791447
  57.9296017  81.5442371  36.2957358  56.6873646  80.5364037  36.1266613
  58.1270695  79.8815727  36.3106227  55.2634621  80.2179337  29.3550706
  54.9275064  79.1692686  29.8849511  54.5668030  80.6318951  28.3077288
  54.8106003  81.5062237  27.8647780  53.3796406  80.0197887  27.6883984
  52.5127220  80.1393795  28.3382106  52.8843594  80.6263065  26.3887405
  52.5096035  81.6184330  26.6404390  53.6850786  80.8014393  25.6702113
  51.8119049  79.9119949  25.6134200  50.6941128  79.8026323  26.0463810
  52.0567942  79.3553638  24.4556332  51.3932371  78.8341522  23.9005327
  52.9882336  79.5322657  24.1074610  53.7320518  78.4804440  27.3301959
  54.8192883  78.0870342  26.9033480  52.7238464  77.6371574  27.5922298
  51.8149853  78.0476856  27.7520275  52.5807047  76.1831141  27.7521467
  51.5391445  75.9537888  27.9772544  52.9561758  75.4215813  26.4385819
  54.0264750  75.4886484  26.2434912  52.6107693  74.4005013  26.6003871
  52.3162985  75.8343458  25.0763774  52.5299168  76.8808222  24.8587608
  52.7635717  74.8913670  23.9532471  52.6237106  73.8395977  24.2029214
  52.3261166  75.2279568  23.0133319  53.8259411  75.0908899  23.8130355
  50.8404398  75.7066107  25.1320076  50.2481604  75.8889914  24.2353225
  50.4977894  74.8136139  25.6547403  50.6051207  76.5453148  25.7872200
  53.2942724  75.6412315  28.9808035  53.3823347  74.4169712  29.1879344
  53.6733913  76.4591789  29.9411821  53.5872269  77.4615669  29.8523164
  53.9957047  75.9971046  31.3556170  54.7917223  75.2692986  31.1982727
  54.6019220  77.0251083  32.2532368  53.9018869  77.8568268  32.1738887
  54.9811363  76.6522169  33.6842966  55.6106997  77.4476147  34.0831709
  54.0135384  76.5788555  34.1807556  55.5932951  75.7503605  33.6892009
  55.7924223  77.5095797  31.6971898  55.4810429  78.0756807  30.9871340
  52.8286314  75.2262688  32.0516157  51.6588020  75.5458546  31.9152951
  53.1455469  74.3316746  33.0086255  54.1304922  74.1870260  33.1790829
  52.0887804  73.6800194  33.9508629  52.6903296  73.3647346  34.8034072
  51.2761497  74.3276739  34.2799163  51.4565516  72.4625635  33.2658482
  51.6020203  72.2930765  32.0261288  50.7083797  71.6465759  33.9887786
  50.7878113  71.7633724  34.9888563  49.9213314  70.5710793  33.5056162
  50.4706573  70.0185823  32.7433228  49.4733143  69.6900797  34.6624374
  48.9320612  70.3641367  35.3263569  48.6008835  68.5528469  34.1991353
  49.1225863  67.9342985  33.4688449  48.3575583  67.8262854  34.9743772
  47.6721478  68.9264441  33.7678790  50.4090261  69.0988922  35.4736471
  50.9217358  69.7888041  35.9011436  48.6776972  71.1408281  32.7938628
  47.7414989  71.5905523  33.4396052  48.6742926  71.1124945  31.4519668
  49.4568920  70.7382107  30.9347010  47.8206396  71.8438005  30.6282210
  47.9934692  72.9181480  30.6915450  48.0250072  71.4302921  29.1529608
  47.1122599  71.6823959  28.6131072  48.9101124  71.8844032  28.7074566
  48.1273603  70.3517532  29.0330482  46.3037348  71.6550112  31.0714936
  45.5741501  72.6711226  31.0698056  45.8096886  70.4749441  31.3747573
  46.4528084  69.7009134  31.2889028  44.4293976  70.1783609  31.6936803
  43.7469339  70.6715775  31.0015202  44.2571497  68.6947107  31.9120383
  45.2083874  68.2222605  32.1570611  43.5035372  68.5929441  32.6929450
  43.7369204  67.9668427  30.5759239  42.6562595  68.0975771  30.5194974
  44.1885710  68.4751606  29.7240305  43.9924717  66.4221573  30.6518197
  43.6139822  65.9406567  29.7501516  45.0476551  66.1755037  30.5341387
  43.3457422  65.7594204  31.7860031  43.6286688  66.1074257  32.6909614
  42.7457190  64.6259451  31.9287300  42.5199318  63.8528442  30.9475899
  43.1086016  63.8960886  30.1280165  41.9438648  63.0472851  31.1458874
  42.2859383  64.2942572  33.1584668  42.5206232  64.9074030  33.9259791
  41.7240238  63.4596348  33.2465839  43.9937496  70.9438515  32.9735041
  42.8221846  71.3528919  33.0803156  44.9031734  71.1994267  33.9372492
  45.8519268  70.9681892  33.6793852  44.6763182  71.7928934  35.2697277
  43.6353970  72.0449972  35.4722786  45.1258469  70.7822943  36.2949324
  46.1969805  70.6161261  36.1802197  44.9419022  71.2480259  37.2631049
  44.3995428  69.4591045  36.2110806  43.0002213  69.4648886  36.3539505
  42.4866915  70.3736973  36.6309905  42.3044777  68.2921553  36.1156106
  41.2271070  68.2947016  36.0402870  43.0088472  67.1553516  35.7078123
  42.4010849  65.9768963  35.5828953  41.5212917  65.9007883  35.9594274
  44.3845797  67.1806908  35.5659676  44.8708010  66.2696409  35.2497721
  45.1058197  68.3176804  35.7880235  46.1850786  68.2821608  35.8063483
  45.4584408  73.1106329  35.6174994  45.1536465  73.8143730  36.6174221
  46.4228821  73.5934210  34.8275900  46.6692924  73.1502342  33.9541078
  47.0080042  74.9553871  34.9861455  47.4444246  75.0939560  35.9753013
  48.0845642  75.0881481  33.9337373  48.6919212  75.9573126  34.1862655
  48.7259245  74.2226744  33.7672615  47.6215219  75.1835680  32.9516053
  45.9165096  76.0779953  34.8368859  45.1434469  76.1660099  33.8837528
  46.0133648  77.0499039  35.7516909  46.8552113  76.9935894  36.3068724
  45.3014803  78.3620501  35.7311440  44.2528200  78.1261063  35.9121060
  45.8168173  79.2637539  36.8825960  45.4670572  80.2943230  36.8218803
  45.5503082  78.8873911  37.8702331  47.2504997  79.2459631  36.7802882
  47.6305676  79.9938107  37.2470570  45.4961777  79.0773869  34.3898678
  46.6238356  78.9557123  33.9256310  44.4701815  79.7838545  33.8491130
  43.6015081  79.7462702  34.3630195  44.5388937  80.4372120  32.5429368
  44.5098782  79.6792698  31.7601252  43.3673143  81.4661217  32.2764039
  43.3895016  82.2790146  33.0022216  43.2702446  82.1508408  30.9002924
  43.5667849  81.4783955  30.0953174  42.3084736  82.6438713  30.7588124
  44.0081215  82.9501915  30.8319545  41.9746256  80.7817841  32.4442077
  41.9392872  80.1609707  33.3394432  41.2083054  81.5445709  32.5820827
  41.5556049  79.7385883  31.4024758  40.6247759  79.3339729  31.7999196
  41.4083767  80.2987671  30.4790974  42.2206116  78.8751602  31.4213228
  45.8980703  81.2610054  32.4834061  46.5783024  81.2402153  31.4818096
  46.1966562  82.0274067  33.5046172  45.5198145  82.0487976  34.2539692
  47.3652315  82.8496075  33.7461376  47.3964119  83.7137985  33.0825901
  47.3194218  83.5088348  35.1229024  47.9038429  82.8462696  35.7613063
  47.8209400  84.4746399  35.0612974  45.8342791  83.6725521  35.7207012
  44.9709702  84.3105698  35.1183367  45.6757879  82.9625034  36.8361449
  44.9094152  83.2705021  37.4174452  46.4677095  82.4601460  37.2111082
  48.6510277  81.9920063  33.4894300  49.4410467  82.2649193  32.6289845
  48.8125610  80.9204578  34.2084098  48.0103064  80.5657673  34.7090960
  49.9271679  80.0294685  34.0246797  50.7997274  80.6367493  34.2654133
  49.9285221  79.0620899  35.1634192  49.0329313  78.4422016  35.1215005
  50.8027458  78.4136868  35.1050210  49.9677515  79.6271133  36.0947132
  50.0687790  79.4072914  32.6125431  51.2264681  79.3479443  32.1071792
  48.9838886  79.1182089  31.9956827  48.1271315  79.1561508  32.5291944
  48.9935207  78.6375618  30.5644512  49.6065426  77.7362967  30.5593348
  47.5740433  78.2272625  30.0972390  47.0498800  77.9544067  31.0131550
  47.1401310  79.0492439  29.5278788  47.5297689  77.0097113  29.1768003
  46.7457771  75.8730841  29.3173814  47.0072317  75.0986290  28.2393432
  46.7020416  74.0667486  28.1472969  47.8464079  75.7102203  27.3984265
  48.2411194  75.2293634  26.6027594  48.2010794  76.9265032  27.9580855
  48.8292837  77.7106476  27.5620055  49.6223879  79.6943045  29.6313739
  50.4232931  79.2896461  28.7749004  49.2217684  80.9702682  29.6604061
  48.4982729  81.1826229  30.3323889  49.7751999  82.0801640  28.8772988
  49.7125387  81.8720341  27.8091908  48.7781191  83.2702446  28.9972019
  48.8437843  83.5546494  30.0473905  49.1710520  84.1384220  28.4680843
  47.3177958  83.0575943  28.5459757  46.9024467  82.1617222  29.0074944
  46.5686560  84.2894268  28.9480495  45.4883862  84.1859722  28.8459373
  46.7258978  84.5439243  29.9961925  46.8253136  85.1656342  28.3526587
  47.1365547  83.0519009  27.0244598  47.5150871  82.1456814  26.5516114
  46.0878134  83.1115723  26.7334628  47.6051521  83.9093781  26.5415072
  51.1992311  82.4230289  29.2722321  51.9102859  83.0859184  28.4918404
  51.6804171  82.0287228  30.4960370  51.0378170  81.5400028  31.1029291
  53.0092907  82.0157337  31.0065317  53.2871771  81.0002422  31.2887526
  53.7453794  82.2137260  30.2273726  53.2533026  82.9190254  32.1680403
  54.3965626  83.2258320  32.4574137  52.2265577  83.5579395  32.7524137
  51.2572241  83.3094311  32.6155353  52.3703527  84.3497562  33.9914513
  53.0215406  85.2012634  33.7940001  50.9193897  84.8001862  34.4047308
  50.3140306  83.9048004  34.2635751  50.9524822  85.2820969  35.8941913
  50.0710535  85.9138393  36.0041189  50.6961632  84.4285870  36.5218282
  51.9552898  85.6578732  36.0973215  50.3968906  85.9201431  33.4770417
  49.4911814  86.3182640  33.9345336  51.1923170  86.6564655  33.3620596
  49.9541950  85.5605030  32.0675659  50.7197666  85.6035995  31.2928772
  49.3320799  84.6709061  31.9691157  49.1858339  86.2981319  31.8359876
  52.9496050  83.5314751  35.1104188  52.5354099  82.4059105  35.3464317
  53.9508438  84.0833473  35.8011770  54.3760109  84.9372005  35.4691219
  54.4955349  83.6540318  37.0490479  55.2269316  82.8601170  36.8978572
  55.4087687  84.7520542  37.6388931  56.0966682  85.0753880  36.8576431
  54.8808813  85.6918049  37.8011250  56.1960697  84.3702030  38.9259076
  56.7813540  85.1774406  39.3662572  55.4454327  84.0130520  39.6309519
  57.0761442  83.1791019  38.7912440  57.5010586  82.5709057  39.8070979
  57.5434113  82.9092598  37.6827312  53.4168816  83.0368233  37.9785848
  52.4802732  83.7411594  38.3145833  53.5113478  81.7302418  38.2925844
  54.1810274  81.1796951  37.7743816  52.6988459  80.8398533  39.1512108
  51.6653824  80.9254169  38.8154459  53.0108023  79.3935537  38.9611626
  53.9890528  79.2568684  39.4220757  52.2119284  78.8647795  39.4810724
  53.0068445  78.9235640  37.4797988  52.4196768  78.0062389  37.4367929
  52.4736691  79.6244049  36.8374276  54.4730234  78.7814236  36.9960833
  55.1837587  79.8131895  36.9402313  55.0178623  77.6030254  36.7979097
  55.9864712  77.6037407  36.5117383  54.4094229  76.7968750  36.7927408
  52.7796745  81.2571335  40.6563234  53.8483906  81.3941288  41.2173128
  51.6071272  81.5303230  41.2297487  50.8230591  81.2528610  40.6567287
  51.3915110  82.1025944  42.5535536  52.3822021  82.2900486  42.9676771
  50.7465839  83.4600925  42.3321676  51.3682032  84.1878891  41.8106270
  49.9469852  83.2705498  41.6160536  50.1077175  84.1354275  43.4364176
  49.9136543  85.0221539  43.1239271  50.4945374  81.2519741  43.4714508
  49.7829914  80.3169918  43.0233526  50.3986597  81.5902901  44.7255087
  50.9594727  82.3569012  45.0688791  49.4261599  81.0583305  45.7464170
  49.5659113  79.9844456  45.8702660  49.6402836  81.7337036  47.0781898
  49.0987206  81.2216663  47.8735685  50.6685114  81.4858246  47.3416519
  49.3702221  83.2342625  47.0960283  50.0809193  83.7188339  46.4265442
  48.3803177  83.3386326  46.6518497  49.5778036  83.8288212  48.5286093
  48.7014771  83.4811306  49.0756559  50.4540157  83.3101940  48.9176798
  49.5666504  85.2962303  48.6569118  49.7506142  85.9073544  47.8741026
  49.4113636  85.9862232  49.7837210  49.2308235  85.3993320  50.9179688
  49.1898727  84.3945503  50.8239365  49.2833042  85.7741451  51.8543720
  49.3274641  87.2774315  49.7996140  49.4778299  87.7721786  48.9320278
  49.3735981  87.8155899  50.6530476  48.0005884  81.1662769  45.3185415
  47.2814226  80.2846050  45.7713413  47.6225138  81.9516277  44.3035889
  48.3156013  82.6130676  43.9838552  46.3305378  81.9372082  43.6071348
  45.5362320  81.5339756  44.2353010  45.9516191  83.4183407  43.2285213
  44.9551392  83.3177280  42.7983952  45.8915997  84.0672207  44.1022730
  46.9065905  84.0428257  42.1852779  47.0088482  85.0867271  42.4817944
  47.8384399  83.4778214  42.2080183  46.2648916  84.0679455  40.8097982
  45.7833481  83.1067657  40.6299686  45.5070829  84.8502350  40.7665968
  47.3447895  84.2049313  39.8526669  47.6975346  83.2824421  39.6412301
  47.7894211  85.2051640  39.1165447  47.2755384  86.4260578  39.1660404
  46.3797617  86.5259552  39.6217871  47.3733139  86.9692802  38.3202004
  48.7666655  84.9693871  38.3106613  49.3374300  84.1652203  38.5289121
  49.1169167  85.6846046  37.6894569  46.3059473  80.9666634  42.3540163
  45.1723433  80.5634975  42.0366573  47.3689032  80.7839966  41.5936136
  48.2679462  81.0074711  41.9959593  47.3589087  79.8878622  40.4592133
  46.5338278  80.2294445  39.8341846  48.5994339  79.9600410  39.6035624
  49.4922113  79.8503351  40.2192068  48.6006260  79.2079401  38.8146114
  48.7079620  81.3590431  38.9895701  47.7927113  81.6409779  38.1550813
  49.4980621  82.2229671  39.4157410  47.0640850  78.3514690  40.8281136
  46.2330580  77.6257801  40.2188635  47.6982641  77.9241753  41.9318295
  48.5754490  78.3976746  42.0944643  47.3267317  76.7710352  42.8306818
  47.6723337  75.8433199  42.3746014  48.1030607  76.8461037  44.1048336
  48.0188656  77.7966022  44.6316719  47.7000856  76.1815357  44.8690796
  49.5607185  76.3968182  43.9591169  50.1501083  76.2430573  45.1106691
  50.1506281  76.0696459  42.8552628  45.8353901  76.7060614  43.0450964
  45.1989889  75.7206154  42.8372097  45.2893066  77.8583288  43.5178185
  45.7871962  78.7370777  43.5203505  43.8837719  77.8683138  44.0258646
  43.8339901  76.9181681  44.5577049  43.5576725  79.0690422  45.0317287
  44.4164610  79.2835903  45.6677771  43.4056950  79.9764061  44.4471788
  42.3291969  78.8612700  45.9710884  41.9017315  79.8619938  46.0337257
  41.6338491  78.3018541  45.3452682  42.6285124  78.1001854  47.5973082
  43.8952971  76.8701553  47.2540331  44.7905540  77.3951960  46.9209480
  44.1207981  76.3292265  48.1730843  43.6378622  76.1940956  46.4386988
  42.8194666  77.7092314  42.8860044  41.9227743  76.8173933  42.9721498
  43.0044985  78.3662987  41.7437887  43.8325262  78.9441824  41.7208767
  42.2829247  78.1283712  40.5084229  41.2205601  78.2719135  40.7056093
  42.5756931  79.2701292  39.4843817  42.4890232  80.2733135  39.9017715
  43.5822392  79.0812540  39.1111660  41.6908646  79.1435432  38.2125354
  41.6484594  78.0849886  37.9560852  40.6928778  79.4545460  38.5213971
  42.2539091  80.0245285  37.1200991  42.6690626  81.1979580  37.3764539
  42.1484184  79.6630478  35.9315419  42.4939394  76.7085409  39.9614596
  41.5459490  76.0871553  39.4711661  43.7170506  76.1803532  40.0675821
  44.4961691  76.7291498  40.4020929  43.9946747  74.8088217  39.5669127
  43.6342287  74.6967411  38.5443592  45.5061817  74.6559381  39.5554161
  45.7465553  75.2626657  38.6823750  45.9966660  74.9764919  40.4745340
  46.0332203  73.3864641  39.1955805  45.8321333  73.1687784  38.2824659
  43.2101345  73.7846994  40.4275465  42.5297308  72.9465246  39.8615408
  43.2733345  73.8116121  41.7409611  43.8318443  74.5461559  42.1515846
  42.4830723  72.9924536  42.6840973  42.8279448  71.9618225  42.6006460
  42.6706409  73.5372829  44.1327190  43.6816406  73.5372496  44.5401335
  42.4423981  74.6001482  44.0531778  41.7057323  72.8482389  45.0489044
  40.6677771  73.0012465  44.7533703  41.9290924  71.3718939  45.2911377
  41.2636328  71.0059500  46.0730267  41.8166876  70.8203030  44.3577433
  42.9076910  71.1412477  45.7121420  41.7877913  73.5250044  46.4539051
  41.7886019  74.6043682  46.3020229  40.8926821  73.3341932  47.0459127
  42.6366901  73.1509352  47.0262241  40.9596014  73.0009604  42.2601604
  40.2880573  71.9630480  42.1932220  40.3345346  74.1596985  41.9457579
  40.8200645  74.9970055  42.2343445  39.0471435  74.3499088  41.3525057
  38.3442235  74.1126490  42.1510744  38.9188075  75.3855181  41.0376358
  38.6815596  73.5077047  40.1209021  37.6549101  72.8215504  40.0314856
  39.6118855  73.4195089  39.1841102  40.3993273  74.0519810  39.1877508
  39.5006108  72.6622534  37.9632163  38.5554790  72.9326534  37.4923539
  40.4532337  72.9748726  36.8006372  41.4733553  72.7197313  37.0876193
  40.2250767  72.3367548  35.9469104  40.4057884  74.3600559  36.2590957
  39.2412329  74.9214172  35.7325912  38.3937502  74.2563438  35.8090615
  39.1923118  76.1971331  35.1376081  38.3404207  76.5195513  34.5573211
  40.4052448  76.9697618  35.1746583  40.3689623  78.1878328  34.5629692
  41.0420036  78.6892653  35.0289941  41.5693760  76.4159203  35.7567000
  42.5267220  76.9156551  35.7692814  41.5314817  75.1513624  36.3244796
  42.4029350  74.7203207  36.7947698  39.5930719  71.1299419  38.2293963
  38.9039612  70.3092289  37.6045465  40.3978777  70.7785177  39.2268515
  40.9193039  71.5590620  39.5996404  40.4378700  69.4430685  39.7207546
  40.5388880  68.7973642  38.8484216  41.6619253  69.1125107  40.6491947
  41.7021704  69.7533607  41.5299845  41.7338085  67.6270771  40.9633780
  42.5355339  67.4930668  41.6895914  40.8373404  67.2637320  41.4657974
  41.8910170  67.0512342  40.0513506  43.0134583  69.3356180  39.9899125
  43.8283253  68.8917446  40.5618143  43.1648540  68.8161325  39.0437007
  43.1945705  70.3830290  39.7485995  39.1417384  68.9938974  40.4647779
  38.6839056  67.8159809  40.3363132  38.5143685  69.8874521  41.2603235
  39.0273476  70.7518101  41.3594723  37.2745299  69.7236919  41.8247652
  37.3076606  68.7756586  42.3616409  36.8547797  70.8347607  42.8253317
  36.9564962  71.8024254  42.3340321  35.8421397  70.6345940  43.1754684
  37.6857448  70.8787060  44.1653490  38.7463450  70.8690548  43.9140797
  37.3134089  72.2436380  44.8196507  36.4083195  72.0912933  45.4076242
  38.0821180  72.5062132  45.5464506  37.2177291  73.0717802  44.1174221
  37.4226546  69.6869755  45.1133633  36.3739657  69.5229053  45.3612375
  37.8364301  68.7520075  44.7355747  37.8921342  69.8555565  46.0825253
  36.1425400  69.5633650  40.7348156  35.2956629  68.7099695  40.8133698
  36.2494469  70.4126596  39.6653557  36.9335914  71.1532164  39.7255635
  35.3263497  70.2266788  38.6152554  34.2911530  70.2348375  38.9564395
  35.3579211  71.4125681  37.7052259  36.4041710  71.6738129  37.5464392
  34.9915934  71.0397387  36.7487216  34.5153475  72.6091242  38.1271386
  35.0711441  72.9709291  38.9921784  34.6543741  73.3231592  37.3153949
  32.8154993  72.4059057  38.7506223  31.9590688  71.5984201  37.3669720
  30.9079885  71.3728523  37.5471067  32.0274353  72.2149611  36.4706969
  32.4391842  70.6452560  37.1454644  35.5125761  68.9889002  37.8140497
  34.5675993  68.4461641  37.2176337  36.7186069  68.4708977  37.7115917
  37.5455499  68.9596701  38.0236268  37.0343328  67.1496153  37.1698737
  36.6698027  67.1077204  36.1434913  38.5615826  66.9411564  37.0768332
  38.9983392  67.6788282  36.4036417  38.9293218  67.1537447  38.0806637
  38.9702249  65.5292225  36.6451144  38.9211798  65.1999664  35.2836990
  38.5011792  65.8674240  34.5457935  39.4802880  63.9553785  34.8703194
  39.3840075  63.6925745  33.8272142  39.8688364  63.0449390  35.8755159
  40.3452015  61.8309021  35.4749584  41.1292839  61.7153597  36.0166812
  39.9433136  63.3578920  37.2475123  40.2120352  62.6089239  37.9777455
  39.4625330  64.6422672  37.6250362  39.4618726  65.0110960  38.6401057
  36.3033319  65.9556675  37.8593135  35.8311701  65.1162481  37.1710706
  36.3194728  65.9805059  39.1998720  36.9760203  66.5603971  39.7026324
  35.4644895  65.0141859  39.9547172  35.7405043  64.0134478  39.6223855
  35.7323384  65.2507353  41.4571762  35.4585838  66.2567377  41.7751598
  35.0844574  64.5682287  42.0072126  37.1570444  64.9953365  41.8659449
  37.9632735  64.0472937  41.2089109  37.5950408  63.4695673  40.3740263
  39.2838836  63.8042450  41.5972090  39.9051571  63.1740570  40.9781122
  39.8056459  64.5713997  42.6354313  40.8673859  64.5056438  42.8219604
  38.9540911  65.4506445  43.4084558  39.3245029  65.9556150  44.2883492
  37.6472330  65.6340170  42.9663610  36.9868970  66.2868500  43.5178757
  33.9584517  65.0827980  39.6677446  33.3433437  64.0352917  39.4622874
  33.4140706  66.3004398  39.6084356  33.9950728  67.0816565  39.8772120
  32.0679617  66.5973902  39.0687132  31.3634324  66.1614466  39.7770143
  31.7463589  68.1423998  39.1403508  32.5651073  68.7140608  38.7033629
  30.8047652  68.3880234  38.6492562  31.5069604  68.6672878  40.5547714
  31.1978269  67.8983974  41.4594841  31.5352774  69.9408007  40.8301878
  31.4160252  70.1515007  41.8107414  31.6190577  70.6428814  40.1089668
  31.9218016  66.0139990  37.6920390  31.0545254  65.1973391  37.5216246
  32.7609181  66.3922691  36.6904020  33.4456491  67.1060133  36.8948913
  32.8051591  65.8432961  35.2763319  32.0704412  65.0507784  35.1341510
  32.4099922  67.0465136  34.3533778  32.4839377  66.7765665  33.2999229
  31.3538170  67.1853018  34.5843101  32.9893017  68.4853029  34.5640421
  32.5154138  68.9480019  35.4297471  34.0695763  68.4370375  34.7010732
  32.6698589  69.5238972  33.4271741  31.6096973  69.7193813  33.5882497
  33.1836486  70.4594326  33.6483121  32.8981280  69.1036272  32.0297956
  33.6124682  68.4081793  31.8679905  32.2832990  69.5589638  30.9470105
  31.3189030  70.4326487  31.0286593  30.8711791  70.7284737  31.8843055
  30.8869720  70.7159472  30.1607442  32.7502346  69.2886591  29.7622538
  33.3131266  68.4500694  29.7661376  32.1918726  69.5331860  28.9569354
  34.1772175  65.3429365  34.6743298  35.1310921  66.1179590  34.5257354
  34.2727709  64.0279722  34.3429470  33.5728645  63.3697701  34.6543932
  35.5685925  63.3739042  34.0419102  36.2656999  63.7747145  34.7777724
  35.4100108  61.8267870  34.0335464  35.1008296  61.6143322  35.0569558
  34.3872976  61.2223864  32.9581451  34.3661022  60.1333904  32.9999447
  33.3532310  61.5290451  33.1155229  34.6447468  61.5543938  31.9523668
  36.5377259  61.0426140  33.9005852  36.8875575  61.1571932  33.0139661
  36.2016320  63.6724329  32.6749229  37.3360777  63.3304691  32.3946953
  35.3608036  64.3002701  31.8743348  34.4132447  64.4021988  32.2087622
  35.7606959  65.0549698  30.7163763  36.8254185  64.9624443  30.5020928
  35.0420094  64.4738340  29.4566369  35.3629541  63.4322405  29.4431281
  33.9551830  64.4807959  29.5394635  35.4734015  65.1277113  28.3092380
  34.9908853  65.9553480  28.2475734  35.4244494  66.5215588  30.9060717
  34.2619872  66.9661951  30.8224392  36.4874816  67.3185015  31.1583328
  37.3057675  66.8255997  31.4862871  36.4760685  68.7433577  31.1037803
  35.6007504  69.0957975  31.6494060  37.7961087  69.3672943  31.7666698
  38.6529398  68.9234877  31.2597394  37.9676747  70.4283810  31.5856576
  37.8354716  69.1206980  33.2908535  37.4791479  68.1303310  33.5742307
  39.2914915  69.2875242  33.7952256  39.4057035  69.2382145  34.8781013
  39.9039960  68.4813023  33.3915591  39.6866155  70.2447319  33.4550381
  36.9176841  70.1697254  33.9706421  36.8714595  70.1086521  35.0579476
  37.2145915  71.1601019  33.6255240  35.8958292  70.0789738  33.6022997
  36.3234711  69.2026901  29.6572638  36.6720533  68.4858799  28.7084746
  35.8260798  70.4779673  29.4892430  35.4633117  71.3962412  30.5618310
  36.3960552  71.8996191  30.8161974  35.0242805  70.8786917  31.4147639
  34.4582224  72.2900581  29.8857856  34.2566872  73.1272554  30.5540538
  33.5379744  71.7186451  29.7644114  35.0768399  72.4381781  28.5256433
  35.9228420  73.1248999  28.4974813  34.2750716  72.7008724  27.8355265
  35.6017637  71.0465240  28.1917000  34.7351050  70.5110645  27.8040242
  36.7437506  71.0953045  27.2141290  36.5460730  71.2911558  26.0073161
  37.9981327  70.9581804  27.7347255  38.0898046  71.1062908  28.7295938
  39.1788745  70.8250284  26.8927574  38.9167404  71.0400629  25.8568287
  40.1971626  71.9643211  27.2321534  41.1401844  71.7208576  26.7427254
  39.9203610  72.9320669  26.8138933  40.4524279  72.2178125  28.7640142
  41.3048124  71.5871859  29.6231437  42.0504236  70.8791924  29.2926621
  41.0108614  71.9372034  30.8995152  41.4375544  71.5224218  31.7156029
  39.8368382  72.6989412  31.0088968  39.1313481  73.3797073  32.0064425
  39.4853020  73.3576441  33.0265594  38.1149387  74.2640924  31.6313767
  37.5895858  74.8677635  32.3566222  37.7701950  74.4547415  30.2970767
  37.0441675  75.2056503  30.0224400  38.5091376  73.8463736  29.2694020
  38.2508206  74.1734648  28.2730675  39.5513082  72.9869556  29.5923853
  39.8032188  69.3944168  26.7606163  40.9070635  69.3605375  26.2069392
  39.2608094  68.2555008  27.2864890  38.3236814  68.3558130  27.6495767
  39.8337293  66.9414473  27.0199156  40.9042406  67.1453667  27.0428157
  39.4583011  66.0375261  28.1830525  38.3968878  65.9580612  28.4179831
  39.6467090  65.0157356  27.8535843  40.1604509  66.4085436  29.4704509
  41.2040997  66.1489487  29.2929506  40.0653458  67.4813128  29.6384335
  39.5203686  65.6883764  30.6767035  39.0686703  66.3124275  31.6149378
  39.2852831  64.3489265  30.5404878  38.7028408  63.8774157  31.2176418
  39.6007967  63.8707876  29.7086596  39.4200253  66.3124037  25.7045126
  38.2427716  66.4661503  25.3145242  40.3621101  65.6797123  25.0369215
  41.2008667  65.4471350  25.5492616  40.0983429  65.1385546  23.6883736
  40.6005764  64.1756821  23.5948873  39.0652800  64.8182726  23.5530949
  40.4739141  65.8443213  22.4252677  40.1888418  65.4387808  21.3049650
  41.1458015  67.0278597  22.4827814  41.4101505  67.4459505  23.3633614
  41.3127851  67.9496861  21.2969112  40.3485918  68.1206608  20.8181596
  41.9258404  69.2817688  21.8333673  42.9141140  69.0874481  22.2500873
  41.9289684  69.9917269  21.0062957  40.9715128  69.8922968  22.8775263
  41.0175800  69.3197346  23.8038921  41.4033031  71.2989712  23.0817652
  40.9621382  71.7019176  23.9934182  42.4661589  71.3255644  23.3220363
  41.1974907  71.9893837  22.2637987  39.5111632  70.0082111  22.4041843
  39.0793085  69.0074396  22.3957205  38.9825106  70.5329895  23.1999421
  39.4696951  70.5143881  21.4397335  42.1908951  67.3714972  20.1766157
  43.3059692  66.8994570  20.3823042  41.6838074  67.3760748  18.9308286
  40.7541037  67.7173853  18.7326968  42.4199390  66.8971777  17.7255213
  42.9564047  65.9994602  18.0327690  41.4181280  66.3597345  16.6462052
  40.6101561  67.0164537  16.3237000  41.9534445  66.2002516  15.7101989
  40.7350636  65.0260353  17.0646632  41.5451956  64.3192053  17.2440720
  40.2091885  65.1884317  18.0055034  39.7858763  64.4231749  15.9775782
  39.1406608  65.2023983  15.5718601  40.3417683  64.1035795  15.0961339
  38.8819456  63.2837200  16.4563847  38.3887100  62.8595114  15.5818200
  39.5727754  62.5249529  16.8239820  37.8653622  63.5540867  17.5146127
  38.3464646  63.7552023  18.3795941  37.2379684  64.3010235  17.2527719
  37.4620819  62.6387644  17.6547933  43.2716179  68.0486345  17.1966863
  42.8945303  69.2044830  17.0666730  44.4977140  67.7675295  16.8274069
  44.8580456  66.8286657  16.9211924  45.4820919  68.7755489  16.3942170
  44.9983072  69.3577337  15.6099248  45.9971285  69.6145868  17.4841976
  46.1537027  68.9034843  18.2953203  46.9231749  70.1495934  17.2737038
  45.1997566  70.3086472  17.7498627  46.6879988  68.1948185  15.7033515
  47.2032309  67.1847153  16.1657715  47.1897936  68.8345528  14.6941173
  46.7722940  69.7282839  14.4772291  48.3007097  68.3768082  13.8623929
  48.1367159  67.5358438  13.1886089  48.6545753  69.4789934  12.9105127
  49.0859222  70.3143644  13.4620452  49.4227409  69.0325975  12.2790384
  47.8160763  69.7979784  12.2914255  49.5826435  67.9959965  14.5985258
  50.2629375  67.0429134  14.2188656  49.9457359  68.7811422  15.6567502
  49.4672871  69.6454668  15.8668244  51.1629772  68.6222506  16.4405024
  51.4003754  67.5593567  16.3958299  52.3436403  69.4490051  15.9293103
  53.2296181  69.1582680  16.4937687  52.7665091  69.1548395  14.4577646
  53.1724358  68.1449270  14.3995059  51.9129705  69.2048550  13.7816870
  53.5145950  69.9010754  14.1901851  52.1067095  70.8293533  16.0020840
  52.9778385  71.1538649  15.7624388  50.9489727  68.8466024  17.9482341
  50.0916624  69.5910215  18.4020841  51.8521929  68.3359146  18.7213469
  52.5942755  67.8614140  18.2271159  51.9732475  68.5886478  20.1964903
  51.0528898  68.1752777  20.6089973  53.2558203  67.9115772  20.7971621
  54.1539240  68.0921745  20.2064848  53.4807110  68.2357311  21.8132567
  52.9630661  66.4347458  20.9581780  52.0225573  66.2971926  21.4916754
  52.8518200  65.9920025  19.9683809  54.0082788  65.6628323  21.7051053
  54.9823189  65.5767822  21.2234974  54.2744541  66.1490059  22.6436615
  53.3408689  64.2418385  21.8159890  52.2610760  64.2393637  21.9648170
  53.5251713  63.7531424  20.8592701  54.1413450  63.4952736  22.6969743
  53.9702511  62.5026751  22.6222849  55.1216507  63.5701895  22.4656868
  54.0655947  63.8210726  23.6499763  51.8417501  70.1566553  20.5057073
  51.0159063  70.3779697  21.3888407  52.5927019  71.0504723  19.8204911
  53.2734013  70.6757259  19.1752625  52.4263954  72.4666071  20.1034427
  52.4491644  72.5939226  21.1857414  53.6558390  73.3176184  19.4866776
  54.5755434  72.8142023  19.7846997  53.7002277  73.3458090  18.3979464
  53.5220146  74.7889328  20.0615811  52.5205517  75.2048779  19.9512804
  53.6481237  74.6821308  21.1389804  54.5620680  75.7179308  19.3594325
  54.3396473  76.0991478  18.3627868  54.5463657  76.6089725  19.9870503
  56.0028648  75.2121973  19.4240117  56.3138676  74.9373770  20.4319072
  56.1791182  74.4474173  18.6676097  56.8459177  76.4186668  19.0669477
  56.7369270  76.6464520  18.0890203  56.5929174  77.2134447  19.6365237
  57.8330135  76.2328863  19.1729319  51.0748625  73.0746794  19.8156083
  50.4881191  73.9203644  20.4726648  50.4777813  72.7301121  18.6551607
  51.0820723  72.2155476  18.0305350  49.1308546  73.1443357  18.1155920
  49.1240597  74.2278004  18.2345998  48.8142586  72.7436352  16.7083204
  48.8807249  71.6600132  16.6111493  47.8086519  73.0577517  16.4287019
  49.8317862  73.2678604  15.7059300  49.8127270  74.3550014  15.7824969
  50.7970285  72.8417063  15.9794462  49.4342804  72.9821253  14.3045092
  48.2545853  72.8511763  13.8705182  50.4534769  72.7400827  13.5247052
  50.3739071  72.4362040  12.5647938  51.3542128  72.8279066  13.9731026
  47.9843092  72.6748133  19.0825880  46.9867086  73.3681345  19.3305397
  48.2127142  71.5035057  19.6944273  49.0962505  71.0574961  19.4930696
  47.2415972  70.7739115  20.6197381  46.2650251  70.7073975  20.1401734
  47.7008200  69.2946339  20.7148695  48.0622387  68.8982630  19.7659934
  48.6456680  69.2438698  21.2559676  46.6604233  68.3934402  21.3450956
  46.5069389  68.5335016  22.4151063  45.7713461  68.5381174  20.7313299
  47.0551920  66.9489765  21.2459660  46.9786835  66.5729427  20.2257466
  48.0752707  66.8146086  21.6058207  46.0717058  66.1561441  22.0533776
  46.0144567  66.5197325  23.0793548  45.0685978  66.3297129  21.6638255
  46.3240290  64.7742462  21.9286561  45.9624577  64.4367647  21.0480428
  47.3097038  64.5555639  21.9017100  45.8179855  64.2497492  22.6278830
  47.1103001  71.4216375  22.0293713  46.0479498  71.6198683  22.6137924
  48.2991600  71.7215443  22.5594354  49.1593742  71.3942385  22.1435046
  48.4454203  72.3484135  23.8743830  47.5941944  71.9676447  24.4387650
  49.7489119  72.0313120  24.6733832  50.5213308  72.6454735  24.2104864
  49.6466589  72.3475170  25.7114863  50.2678156  70.5339718  24.6274519
  49.4267559  69.3567705  24.6881890  48.3661127  69.5125103  24.8192644
  49.9036551  68.0371189  24.6000361  49.2433977  67.1844578  24.5414591
  51.2780952  67.8585815  24.5013642  51.8680668  66.6142178  24.4384766
  51.1850691  65.9494829  24.5535445  52.1004152  68.9891434  24.4224930
  53.1466627  68.7255430  24.3747735  51.6281366  70.3136969  24.3942881
  52.2697592  71.1755705  24.2852497  48.0438185  73.9080143  23.7593508
  47.5939608  74.4615984  24.7568440  48.1962252  74.5275211  22.6005483
  48.7291002  74.0157557  21.9119000  47.7083063  75.8838987  22.2858644
  47.8867292  76.5027428  23.1652355  48.5452509  76.4438581  21.1626887
  49.6023321  76.3580370  21.4143181  48.3386564  75.7722712  20.3293920
  48.5264874  77.8972435  20.6675124  49.3336439  77.9748535  19.9391019
  47.5723696  78.0465508  20.1620793  48.7093210  78.8987684  21.7849016
  49.7490168  78.9377165  22.4542618  47.7106428  79.6510077  22.0415521
  46.2330055  75.8483887  22.0681524  45.5303860  76.7243290  22.6208806
  45.5872440  74.8498344  21.4314747  46.1914682  74.1619539  21.0050535
  44.1386652  74.6539259  21.2824512  43.6831188  75.5534410  20.8683872
  43.7306356  73.5196447  20.2460742  44.3356562  73.6922264  19.3559825
  44.0569782  72.5309944  20.5688262  42.2602272  73.5380077  19.7568858
  41.5888309  73.6564207  20.6073570  42.1940136  74.4643593  19.1862845
  42.1046638  72.2666502  18.8612294  43.0001402  72.0862293  18.2665336
  42.0415497  71.3545370  19.4546652  41.0033846  72.4442101  17.8450572
  40.1446152  72.6253080  18.4914458  41.2234163  73.3688784  17.3115051
  40.7487440  71.2862110  16.9050121  39.9258471  71.4549065  16.3442230
  41.5763664  71.1502790  16.3422835  40.6421518  70.3927851  17.3638499
  43.3878994  74.3561363  22.5851846  42.2424555  74.8519039  22.7526140
  44.0424013  73.6757135  23.5042763  44.8056507  73.1133175  23.1560588
  43.6833048  73.6474180  24.9530053  42.6446247  73.3212090  25.0062895
  44.6401453  72.6741409  25.8125520  45.6919956  72.8627062  25.5976987
  44.4427824  72.8776646  27.3673844  43.4281349  72.6727629  27.7088666
  45.1264000  72.2124481  27.8948808  44.7084999  73.8865900  27.6829267
  44.2459011  71.1824179  25.5821180  43.2318974  70.9459257  25.9045482
  44.2366219  71.0378885  24.5017815  45.2208042  70.1318884  26.1016011
  45.1387882  70.0761843  27.1870828  44.8942757  69.2001343  25.6397390
  46.2481642  70.3245401  25.7925344  43.4863949  75.0875902  25.4390526
  42.5119829  75.3181458  26.1222482  44.5132732  76.0033798  25.1461887
  45.2264214  75.7709551  24.4697976  44.5409489  77.3992538  25.6686044
  44.4052982  77.2817039  26.7437243  45.8179426  78.1368065  25.3202105
  46.5935755  77.3770809  25.2237248  45.7602978  78.5248423  24.3032503
  46.1272860  79.2058992  26.2168097  46.9234800  79.5606613  25.8145452
  43.3040905  78.1854677  25.2018952  42.5336170  78.6561251  26.0457444
  43.0288887  78.1493664  23.9155698  43.5208797  77.3846292  23.4759879
  41.8653965  78.6502981  23.2749510  41.9542742  79.7357178  23.2295227
  41.8953800  78.2742023  21.7792082  42.7004099  78.8042831  21.2702465
  42.1666145  77.2188902  21.8083453  40.6056070  78.2479191  20.9569502
  40.8525229  78.1367254  19.9011254  39.9482846  77.4478626  21.2974453
  39.8227930  79.5794296  20.9958887  40.5735731  80.5868244  21.1094356
  38.5709882  79.7097301  20.9895611  40.5778503  78.1387329  23.9468336
  39.7458386  78.9183426  24.3876290  40.4158401  76.7779446  23.9607143
  41.0959482  76.2568474  23.4259129  39.2014003  76.1076880  24.5294952
  38.3925080  76.4687729  23.8943458  39.3669415  74.6128225  24.2739344
  39.7412825  74.4205523  23.2684493  40.1967049  74.2714834  24.8928809
  38.0690885  73.8724232  24.4916153  38.1722116  72.8472948  24.1358352
  37.8503799  73.8110447  25.5576825  36.7838812  74.3059158  23.7820458
  36.3743520  75.2544832  24.1293359  37.0739722  74.3299007  22.7316332
  35.5555582  73.3004761  23.7911320  35.8292103  72.4125624  23.2211924
  35.2472496  73.0883932  24.8148823  34.3630052  73.9751530  23.2041597
  33.9940476  74.6649742  23.8430023  34.5433283  74.3376398  22.2788548
  33.6118412  73.3023310  23.1478214  38.9752293  76.3830042  26.0560060
  37.8087664  76.4192104  26.4528918  40.0691319  76.4544535  26.8535614
  40.9568071  76.2573767  26.4139056  40.0213814  77.0208931  28.2093430
  39.4215536  76.4469194  28.9156461  41.4472437  76.9469070  28.8307428
  42.2231913  77.2798491  28.1414318  41.3989353  77.6166248  29.6893740
  41.8175507  75.4522085  29.1302919  41.1997414  75.1148224  29.9625063
  41.5893602  74.7740316  28.3080339  43.2521677  75.3013468  29.5277357
  43.5341597  74.2555285  29.6495676  43.8626575  75.8104229  28.7819099
  43.5649824  76.0102701  30.8292270  43.5532951  77.0922041  30.6973720
  42.8251553  75.9838390  31.6292667  44.8152876  75.4794741  31.3879991
  45.5870152  75.6076622  30.7491708  44.9009848  75.9936333  32.2530985
  44.7902775  74.4997692  31.6322446  39.4311285  78.4589672  28.2516623
  38.3697319  78.7069893  28.8037539  40.1053238  79.3572044  27.6226878
  41.0158253  79.0421772  27.3196292  39.6887851  80.8006573  27.5618982
  39.7888875  81.2391949  28.5547566  40.6487751  81.5617943  26.6253090
  40.8961296  80.8963776  25.7981825  40.2336121  82.5181484  26.3073134
  42.0026541  81.7032623  27.2439051  41.8084240  82.1132851  28.2349944
  42.5088358  80.7384109  27.2743654  43.1418419  82.8917027  26.4640379
  43.5143614  81.8829250  25.0485516  44.0241337  80.9749699  25.3707910
  42.6128435  81.5094948  24.5628452  44.1194439  82.3908043  24.2975283
  38.3362818  81.0583305  26.9609118  37.5296330  81.8597698  27.4932885
  37.8876948  80.2315521  26.0234880  38.5228181  79.5901632  25.5703354
  36.6218209  80.3666496  25.3886247  36.2710285  81.3949871  25.4756355
  36.8148565  80.0691032  23.9155436  37.0517325  79.0282440  23.6951137
  35.8413792  80.2871895  23.4763455  37.8390431  80.9175873  23.3470392
  38.1213140  80.4910183  22.5346613  35.5278873  79.4342709  25.8886528
  34.3488574  79.4916534  25.4610682  35.7785702  78.6972284  26.9947219
  36.7085409  78.7074089  27.3886156  34.8317099  78.0911779  27.9114580
  33.9224362  78.0815983  27.3104310  35.0450993  76.6162348  28.3484173
  35.8504248  76.5051794  29.0745139  33.8011003  75.9029484  28.9505458
  33.7798858  74.8341894  28.7374449  33.7053370  76.0544157  30.0257134
  32.9572010  76.4695692  28.5570049  35.3895974  75.9971380  27.1237588
  36.3209939  76.1987019  27.0076799  34.5001435  78.9126873  29.2279863
  35.2918601  78.8994980  30.1806235  33.3660412  79.6913528  29.3373442
  32.5077081  80.1450062  28.2570434  31.7508054  79.4032049  28.0022168
  33.1584644  80.2997971  27.3964310  31.8357205  81.4023399  28.7358308
  30.8059621  81.4955902  28.3908653  32.4912214  82.2656727  28.6213923
  31.7527270  81.1684799  30.2356267  30.8462453  80.5878448  30.4066730
  31.6226745  82.1343803  30.7236958  33.0308580  80.3463173  30.6131458
  33.8106585  81.0645199  30.8665419  32.8263092  79.3187904  31.7749119
  32.4358463  78.1327105  31.6043687  33.1424356  79.7990894  32.9597402
  33.5246372  80.7317638  33.0241156  32.8667712  79.2301416  34.3243814
  33.5094237  78.3535385  34.4060445  33.2034230  80.2120399  35.4466939
  32.7249932  81.1895657  35.3863716  32.6021695  79.6654129  36.8005848
  32.6959896  78.5806799  36.8521404  33.2106376  80.0386047  37.6243567
  31.6124916  80.1060867  36.9207764  34.7730017  80.4039192  35.5355477
  35.0998569  80.9504509  34.6509194  35.0181437  81.0315990  36.3923049
  35.4085302  79.5185328  35.5525088  31.3878298  78.8143921  34.4171071
  31.1845160  77.6024294  34.7619343  30.4401112  79.7033215  33.9938188
  30.6370354  80.6775093  33.8141441  29.0060616  79.3259287  33.7667131
  28.6075902  79.0869665  34.7527242  28.2974672  80.4666615  33.0068517
  28.6081481  81.4145851  33.4462070  28.6088395  80.4848289  31.9624305
  26.7939377  80.3180981  32.9083276  26.3710999  81.2881470  32.6469469
  26.5169668  79.7172880  32.0420599  26.0747886  79.8494244  34.1595984
  26.5108371  80.0514698  35.3429174  25.0561142  79.1298199  33.9771318
  28.7557006  77.9790831  33.0376792  27.8809047  77.1568012  33.3009863
  29.3947148  77.7863741  31.9264746  30.2097797  78.3605337  31.7648768
  29.1444588  76.6276073  31.0231996  28.0645537  76.5553093  30.8940244
  29.8168111  76.9046307  29.6456671  30.8862972  77.0424032  29.8047853
  29.5712519  75.6820059  28.6517549  30.1682043  74.8394489  29.0008187
  28.5376191  75.4013824  28.4493804  30.0166607  75.8634472  27.6735997
  29.2221999  78.1648302  29.0027356  28.1403589  78.0317593  28.9986229
  29.5108461  78.9858389  29.6590352  29.6455264  78.2987213  28.0072546
  29.7073364  75.3339720  31.7200708  29.0315676  74.3482733  31.8676472
  30.9336495  75.4718924  32.2433925  31.3676238  76.3699722  32.0845842
  31.6904926  74.4087982  32.9411459  31.9246769  73.5944605  32.2555017
  33.0609822  75.0302076  33.2447314  33.5251689  75.2535677  32.2841358
  32.8837109  75.9551811  33.7934589  34.0634012  74.2079496  34.0946054
  33.4651637  73.8575745  34.9357057  34.7288728  73.0410957  33.3613324
  35.3764606  73.5039520  32.6166892  35.2553034  72.3627520  34.0327668
  33.9804673  72.4022865  32.8923821  35.0584197  75.1204205  34.8363566
  34.5574999  76.0486507  35.1112700  35.4971957  74.6269417  35.7035685
  35.8822083  75.3766489  34.1701579  31.0583305  73.8777065  34.1479802
  31.1801910  72.7205610  34.4195914  30.4374480  74.7160864  34.9566817
  30.3774357  75.7033205  34.7520638  29.6725678  74.2905092  36.1303306
  30.1228452  73.3957863  36.5602350  29.8364067  75.5028772  37.1752810
  29.4160604  76.3989162  36.7186332  29.3452191  75.1608276  38.0862355
  31.6066146  75.7949495  37.6689124  31.9828916  76.5095091  36.6046143
  28.2085037  73.8699913  35.9081316  27.5998378  73.4906626  36.8529177
  27.6384950  73.8848305  34.6685100  28.2416582  74.0537691  33.8761997
  26.3024616  73.3645153  34.3697619  25.6219769  74.0275812  34.9039769
  26.0667276  73.6642075  32.8977633  26.4382172  74.6728373  32.7167559
  26.7779112  73.0384779  32.3585153  24.5946455  73.3864737  32.5117731
  24.2002749  72.4426317  32.8882480  24.0741658  74.2998695  32.7997184
  24.4128966  73.3701992  30.9688592  25.0539255  74.1106272  30.4903769
  24.6991944  72.3935080  30.5787039  23.0153203  73.6649466  30.5304074
  22.3060393  73.1862211  31.2055683  22.8851199  74.7468090  30.5034757
  22.8647208  73.2842970  29.0663409  22.8884959  72.2833633  28.9334345
  22.0293856  73.6976242  28.6771441  23.6770272  73.6249256  28.5721421
  26.1431050  71.8729830  34.7586274  27.0334458  71.0664749  34.5872045
  24.9901533  71.5787888  35.3831577  24.3297982  72.3419857  35.4226255
  24.5974827  70.2716541  36.0603714  23.5121369  70.2343225  35.9669328
  24.9140573  69.3879366  35.5063653  25.0423217  70.1701403  37.5523067
  24.6932483  69.2316961  38.2055783  25.7695580  71.1597586  38.0335212
  25.9395504  71.9833469  37.4741435  26.5279222  71.1495495  39.2959237
  26.2063813  70.2681589  39.8507786  28.0412149  70.8969116  39.0610933
  28.3688927  71.6704988  38.3666205  28.6118078  70.9102297  39.9897194
  28.3518219  69.5434046  38.4455991  28.7005115  69.6441221  37.0350909
  28.6259246  70.6006193  36.5391588  28.7986898  68.4561920  36.3938618
  28.8933492  68.5540819  35.3224802  28.6983585  67.2318029  37.1275759
  28.7069368  66.2892199  36.6004443  28.4752321  67.1937275  38.5122275
  28.3510184  66.2893248  39.0893102  28.1756568  68.4310532  39.1635776
  27.8111124  68.3447599  40.1765251  26.2354541  72.3454142  40.2350712
  25.8683324  73.3822203  39.7035766  26.3456416  72.2213125  41.5821409
  26.9439054  71.0680580  42.3046970  28.0183005  71.2218714  42.4052811
  26.5738297  70.1334524  41.8831968  26.5726066  71.1925840  43.7941694
  27.3421931  70.6926680  44.3823195  25.5731702  70.7879591  43.9538670
  26.4320946  72.6847315  44.0158367  27.3981929  73.0285740  44.3853426
  25.6014442  72.7728510  44.7160912  26.0114217  73.2334137  42.5894070
  24.9328184  73.3769274  42.5251865  26.6580176  74.5956993  42.3656940
  27.8228760  74.7092485  41.9997263  25.9197402  75.6369066  42.6889992
  24.9909973  75.4378557  43.0323839  26.4437866  77.0549250  42.5168085
  26.4168429  77.1618652  41.4323997  25.4023242  78.0552197  43.0472851
  24.4580841  77.8410149  42.5466585  25.2036572  77.9773951  44.1161966
  25.7254624  79.0640545  42.7904940  27.7862501  77.3422098  43.1049490
  28.5163283  78.1579733  42.5818968  28.0871248  76.8444395  44.3194866
  27.4573827  76.1859465  44.7552776  29.3495274  76.9878721  45.0120974
  29.4475055  77.9990339  45.4071283  29.3571305  75.9076738  46.0536814
  29.1015697  74.8885059  45.7636976  30.4222369  75.9345531  46.2837315
  28.4705615  76.2136126  47.3037291  28.7649727  75.5303144  48.1003046
  28.7730098  77.1837521  47.6980066  26.9243121  76.0805893  47.1194601
  26.1942625  76.7402554  47.8984356  26.4688611  75.3772593  46.2029600
  30.5700445  76.8973351  44.0857506  31.3744330  77.8124142  44.0741396
  30.6820512  75.7924938  43.2967091  29.9455738  75.1139116  43.1654596
  31.8070245  75.5741262  42.3014164  32.7498746  75.6426764  42.8440428
  31.7243052  74.0986443  41.7102957  30.8517361  74.1258955  41.0576296
  32.5296283  73.9520502  40.9905195  31.6235280  72.9371786  42.6901627
  32.7730680  72.1246290  42.7662992  33.6230397  72.4118090  42.1650648
  32.7885246  71.0238695  43.6581230  33.6414933  70.3723621  43.7780619
  31.7420602  70.7526922  44.5295095  31.7699242  69.9043465  45.1972961
  30.6293249  71.6054773  44.5014143  29.8099494  71.4590836  45.1896000
  30.5574083  72.6276064  43.5414982  29.6385479  73.1926870  43.5942316
  31.9799590  76.5979528  41.2145710  33.0369425  77.0797682  40.9077549
  30.8523417  77.1343374  40.7799196  30.0329471  76.9443893  41.3390398
  30.7616138  78.3670044  39.9369669  31.3432622  78.1968069  39.0309763
  29.3676138  78.5162258  39.4228792  29.1297126  77.8258896  38.6135936
  28.5856414  78.4285688  40.1771545  29.2608881  79.5279360  39.0315294
  31.2571883  79.6535921  40.6221056  32.0907235  80.4076481  40.1557016
  30.7796025  79.9230766  41.9061995  30.1964092  79.2111826  42.3223686
  31.1691689  80.9669685  42.7565289  30.9898663  81.9174671  42.2540236
  30.2565193  81.0313034  44.0458345  30.3568506  80.0399208  44.4876289
  30.6165051  81.7730808  44.7587729  28.7607527  81.2264442  43.8482761
  28.5831261  82.3014259  43.8794041  28.6016846  80.9151173  42.8158665
  27.5274038  80.4582500  44.8007059  27.4876666  81.5274525  46.2470198
  27.4809361  82.5935650  46.0201597  26.5596867  81.2948322  46.7693710
  28.2981896  81.4875603  46.9747305  32.6627016  80.9409237  43.1869841
  33.3217621  82.0075893  43.3532047  33.2356501  79.7599983  43.2419348
  32.5894833  78.9982510  43.0925703  34.6063089  79.4290018  43.5457182
  34.9799800  80.0329876  44.3725586  34.6786451  77.9605293  43.9587593
  34.0775776  77.7917480  44.8522520  34.1982770  77.3118544  43.2262468
  36.1513948  77.4704409  44.2233944  37.0764637  77.2869873  43.1389570
  36.8333817  77.5070524  42.1099377  38.3995414  76.8034029  43.3606434
  39.1387057  76.7718410  42.5738525  38.8461185  76.5129280  44.6803856
  40.0788593  76.0687160  44.9052143  40.7425833  76.2749529  44.2429924
  37.8878903  76.6611958  45.7301903  38.1933904  76.4521027  46.7447615
  36.5666127  77.1170664  45.4795265  35.9439945  77.2051096  46.3575935
  35.4591966  79.7267485  42.3099089  36.4298534  80.4201603  42.4447298
  35.0923634  79.2491388  41.1443472  34.2323279  78.7228441  41.0855865
  35.9131217  79.5945358  39.9006844  36.9564915  79.4274187  40.1681805
  35.5869532  78.7032223  38.7233806  34.5130229  78.6381483  38.5486221
  36.0957098  79.2073727  37.9017377  36.2115312  77.3530293  38.9470315
  35.7958865  76.9729424  39.8802376  35.7500172  76.4007759  37.8285861
  36.1009026  75.3821993  37.9943776  34.6636367  76.3690042  37.7457166
  36.0497189  76.7820454  36.8524146  37.7117181  77.2454786  38.8120008
  37.9338670  77.4848127  37.7720642  38.0664849  77.9930305  39.5215154
  37.9805589  76.2026978  38.9806390  35.7544923  81.1219978  39.5232105
  36.7152405  81.8592358  39.2070436  34.5600843  81.7151928  39.6558690
  33.7521577  81.1091328  39.6620584  34.4463634  83.1405449  39.5875454
  34.7490311  83.3774662  38.5675669  32.9476976  83.4463787  39.5586729
  32.4585748  82.8608418  38.7802029  32.4555206  83.1224060  40.4756832
  32.6491833  84.9001503  39.2523789  33.4376931  85.7671070  38.8791895
  31.4193678  85.2648830  39.2566252  31.1969781  86.2499237  39.2748523
  30.7677245  84.5489311  39.5445108  35.3554916  83.9741993  40.4801416
  35.9356689  85.0186443  40.0757360  35.5915999  83.5874939  41.7676401
  35.0946140  82.7203369  41.9130278  36.5573335  84.0836048  42.7886868
  36.5252113  85.1730442  42.7743769  36.1680961  83.5471725  44.1750240
  35.2676344  84.0333462  44.5504141  35.8309603  82.5106621  44.1849041
  37.2638941  83.6950779  45.2252579  37.3192835  84.8693085  45.9364080
  36.4912200  85.5570984  45.8489466  38.2947516  85.0551224  46.8901157
  38.3455276  85.9473896  47.4964905  39.1930151  84.0435791  47.1200562
  40.1313448  84.2214775  48.1145334  40.3828859  85.1024437  48.4012842
  39.2197204  82.8593063  46.3965464  39.9549961  82.0892334  46.5775299
  38.1590152  82.6725197  45.5068350  38.2302356  81.7737103  44.9122858
  38.0465889  83.8163948  42.3530293  38.8406181  84.7185040  42.2296429
  38.3467293  82.5919628  41.9664669  37.5556707  81.9671917  41.9032621
  39.7524858  82.2755623  41.6577482  40.3391790  82.4945354  42.5499010
  39.8486948  80.7362843  41.5146923  38.9724708  80.3460598  40.9969473
  40.7710743  80.4059601  41.0369682  39.8463917  80.0666142  43.1717253
  38.5965729  80.4239845  43.4801674  40.1944447  83.0700874  40.3513861
  41.3467550  83.4323120  40.1736450  39.2500567  83.2143021  39.3668270
  38.3756614  82.7106571  39.4101810  39.4552732  84.0123653  38.1490040
  40.3993845  83.7587357  37.6668906  38.3312845  83.6145592  37.1339917
  37.3792076  83.8111591  37.6269436  38.4285092  84.3392372  36.3256049
  38.1946349  82.1436214  36.5341330  38.3935428  81.4767551  37.3730803
  37.1529245  81.9983196  36.2480783  39.1111517  81.7770290  35.3405809
  39.1507649  80.6881714  35.3099418  38.6637545  82.2206116  34.4511032
  40.4531956  82.2276688  35.4570341  41.0795307  81.5559006  35.8771801
  41.0995817  83.3557415  35.2343345  40.6608915  84.3873596  34.5699787
  39.7944498  84.4855499  34.0603328  41.3224411  85.1440239  34.6695280
  42.3426056  83.3701992  35.6609559  42.7238750  82.5627422  36.1329126
  42.9306889  84.1828060  35.5428720  39.5766044  85.4726410  38.3943677
  40.1531982  86.1601543  37.5515819  39.2180800  85.9175014  39.5816207
  38.8286972  85.3041649  40.2832603  39.3656850  87.3299026  39.9529338
  39.4183254  87.9195786  39.0377188  38.5567689  87.6591110  40.6051493
  40.5109787  87.6837063  40.8900642  40.4396725  88.7060070  41.6101503
  41.5661621  86.8144131  40.9247255  41.5602493  86.0250378  40.2946758
  42.7477312  86.9552326  41.8294621  42.4656582  87.6112461  42.6529741
  43.1565475  85.5767632  42.4412394  43.0255556  84.8312092  41.6569662
  44.1531420  85.6535816  42.8759861  42.2640610  85.1603127  43.5897207
  41.2266636  85.4052162  43.3618355  42.4076653  83.6783791  43.9729261
  43.3214045  83.6168385  44.5640182  41.5988159  83.4018612  44.6492434
  42.4214983  82.9774189  43.1383181  42.6726151  85.9629345  44.7818375
  42.1669388  85.6285191  45.6876898  43.7533426  85.9512806  44.9232149
  42.2746754  86.9729137  44.6834230  43.9706945  87.5344753  41.1088371
  44.4794416  87.0450211  40.0953293  44.4521618  88.6464310  41.6216850
  43.8012075  89.0335751  42.2898769  45.7014799  89.4102192  41.3057756
  45.7059669  89.6695518  40.2470875  45.7347918  90.6933403  42.0582914
  44.7997665  91.2445831  41.9584894  46.0610342  90.5000305  43.0801964
  46.8965721  91.6386700  41.5908384  47.8892612  91.2548637  41.8261147
  46.8237305  91.7715645  40.5114222  46.8936205  93.0584431  42.2748566
  47.7105570  93.6899281  41.9256639  45.9886694  93.6335468  42.0788622
  47.0406628  93.0764294  43.6671877  47.6518488  92.3824310  44.0732956
  46.3118792  93.6989594  44.4876242  45.2787638  94.3450451  44.2248869
  45.0474977  94.6028423  43.2761192  44.8380232  94.7982407  45.0125837
  46.5445089  93.5629368  45.7242823  47.3957157  93.0865479  45.9861851
  45.8792877  93.8486767  46.4285088  46.9657326  88.5974789  41.6330910
  46.9133568  87.7026653  42.4847078  48.1150055  88.8849640  41.0016823
  47.9469156  89.4568062  40.1863050  49.3566132  88.1075096  40.9907770
  49.1676426  87.1879864  40.4368305  50.4627180  88.8599968  40.2808046
  50.1736736  89.0121651  39.2409039  50.4616833  89.9003887  40.6059074
  51.8673611  88.2413960  40.4271936  52.0958233  86.8980789  40.2726603
  51.2639618  86.2425995  40.0610971  53.3575392  86.4257717  40.3281164
  53.5402441  85.3667164  40.2212048  54.4380808  87.3517418  40.5043030
  55.4344749  86.9521999  40.3861046  54.2384624  88.7804317  40.6492662
  55.0274754  89.4905949  40.8480978  52.8981638  89.1478634  40.6428146
  52.7851868  90.2069569  40.8216047  49.7790337  87.6602173  42.4374294
  50.2775574  86.5841293  42.6309109  49.4824362  88.4457397  43.4763002
  49.2160416  89.3821335  43.2074165  49.9943876  88.1586933  44.8145676
  50.3276968  87.1217632  44.7722626  51.1784220  89.0909958  45.1147795
  51.7931366  88.5420036  45.8281040  51.6723919  89.2414093  44.1548443
  50.8358812  90.4560471  45.7379866  50.6070852  90.2892876  46.7905760
  51.6940165  91.1235428  45.6594658  49.6112728  91.1012363  45.1041746
  49.5221472  91.4182091  43.8985205  48.7001514  91.4703655  45.8265972
  48.8813448  88.1973267  45.8915281  49.2331696  88.1728077  47.0902872
  47.6072454  88.0928802  45.6098938  47.2974968  88.0826283  44.6486187
  46.5874529  88.2343388  46.6914701  46.9309998  89.0376568  47.3432064
  45.2148962  88.5801315  46.1017609  45.4155731  89.6001911  45.7741737
  45.0139475  87.8329849  45.3339767  43.9179373  88.5566044  46.9806862
  43.0987692  88.8180828  46.3108397  43.7103891  87.5497818  47.3430634
  43.9609289  89.5104694  48.1935596  43.4834385  89.1924000  49.2927122
  44.4569254  90.6166363  48.0505562  46.5496540  86.8509960  47.3962975
  46.7891073  85.7810211  46.8117523  46.1662483  86.8302631  48.7182236
  46.0305262  87.7455139  49.1231966  45.9792566  85.6558704  49.6150875
  46.7932367  84.9641991  49.3980122  45.9533596  86.1603737  51.0165644
  45.6919146  85.3745842  51.7252779  46.9025040  86.5913486  51.3351202
  45.2902937  87.0253658  51.0012484  44.6275091  84.9793243  49.2239857
  43.5465908  85.5884457  49.4406986  44.5504713  83.7266541  48.7394667
  45.6555891  82.8683472  48.2746887  46.5728283  82.8039265  48.8600302
  45.9847212  83.1943798  47.2880363  45.0703573  81.4233875  48.0982590
  45.2217484  80.8146286  48.9896631  45.5517387  80.9348297  47.2510958
  43.5587883  81.6830635  47.9380083  42.9198933  80.8608437  48.2603073
  43.3479309  81.6292953  46.8699455  43.2745409  83.0239868  48.6165524
  42.5531816  83.6250496  48.0629539  42.8485298  82.9369259  50.1182795
  43.6424303  82.5848961  50.9820795  41.5660524  83.1737232  50.4549646
  40.9010267  83.2978344  49.7050047  40.9992456  83.1181431  51.8284893
  41.8812132  83.2111931  52.4621916  40.0372839  84.2876911  52.1319389
  40.4818535  85.2281952  51.8065214  39.0448999  84.2014503  51.6893911
  39.7991657  84.3610764  53.6116457  38.7985373  84.8764324  54.0279388
  40.6766558  83.9231682  54.3729115  40.2939034  81.7878723  52.1933126
  39.1118765  81.5861607  51.9931889  41.0623455  80.9121132  52.7854681
  42.0507765  81.1146832  52.8309727  40.7806873  79.5012999  52.9679632
  40.6070232  79.0293169  52.0009184  41.9395542  78.8837910  53.6171484
  41.9043350  79.1046906  54.6839476  41.8668509  77.7963257  53.6326170
  43.3239698  79.0627956  52.9548693  43.5404921  78.5418606  51.6633844
  42.7799273  77.9574823  51.1669493  44.7767305  78.9235783  51.0368872
  44.8688745  78.7151432  49.9812031  45.7612610  79.7045326  51.6292858
  46.8336344  80.2793694  50.9318447  46.9003820  79.7635651  50.1249409
  45.5617046  80.0766563  52.9961586  46.2995243  80.6994343  53.4800720
  44.3328476  79.8027134  53.6277294  44.1250563  80.1451302  54.6307135
  39.5801997  79.4069767  53.9001942  38.7451625  78.5355330  53.6399174
  39.3772697  80.2825737  54.9182224  40.0804520  81.0018349  55.0093174
  38.1743836  80.2686310  55.8348227  38.1956983  79.3670607  56.4470434
  38.3408237  81.3774776  56.8751049  39.2703128  81.2526226  57.4305916
  38.4865403  82.2706509  56.2675619  37.0961475  81.5088749  57.8695011
  37.2323751  82.4404907  58.4187078  36.1778975  81.6597652  57.3019075
  36.8228173  80.1095676  58.9894438  38.3774948  80.3690910  59.9378729
  38.5141206  79.6667004  60.7601166  39.3412375  80.5072975  59.4477701
  38.2590866  81.3880539  60.3063631  36.9059396  80.4694080  54.9946928
  35.9831977  79.7399092  55.1249599  37.0091319  81.5010452  54.1269493
  37.8692603  82.0299339  54.1503191  35.9062576  81.8793106  53.2247972
  35.1072216  82.1074104  53.9302111  36.2762046  83.1918812  52.4724150
  35.9765315  84.0192986  53.1155872  37.3398876  83.1577873  52.2368002
  35.6015372  83.4554291  51.1091232  34.2181492  83.7085819  51.1367989
  33.6864519  83.8093567  52.0714331  33.5196733  83.9440536  49.8925829
  32.4724555  84.2081261  49.8898888  34.2273355  83.7359047  48.6558771
  33.5769892  83.7757206  47.4611616  32.8636694  84.4171524  47.4245787
  35.6287289  83.4191227  48.6816597  36.2680745  83.3246708  47.8163767
  36.2752938  83.2122517  49.9000597  37.2697091  82.7948570  49.9577141
  35.5006266  80.7432270  52.2757912  34.3502331  80.2834606  52.2388029
  36.4902759  80.0943184  51.6888618  37.4462938  80.4022217  51.7952824
  36.2586284  78.9022160  50.8354425  35.4227591  79.2091084  50.2067566
  37.5561285  78.5318661  50.1307440  38.3500576  78.3179474  50.8463001
  37.4303150  77.6804209  49.4619274  38.1316829  79.7545958  49.2825031
  38.4188294  80.5375099  49.9844360  39.4320893  79.3185377  48.7229252
  40.0016451  78.8111830  49.5015717  39.2950606  78.6057091  47.9097843
  39.9837756  80.1822186  48.3517170  37.1430326  80.2063274  48.1966162
  36.9287562  79.3384171  47.5729704  36.2018704  80.5916595  48.5888290
  37.6622248  81.0098934  47.6742887  35.6978345  77.7095127  51.6190290
  34.7171330  77.0729113  51.1693668  36.2529993  77.3532391  52.8153706
  36.8800783  77.9414368  53.3453655  35.6409335  76.2409639  53.5584211
  35.7254195  75.4036999  52.8656387  36.5582132  75.7212877  54.7372341
  36.8441653  76.4659643  55.4800606  36.1311150  74.8451662  55.2252007
  37.8754210  75.1306438  54.1864252  37.6759124  74.3918896  53.4101915
  38.4472585  75.8815145  53.6411810  38.7886810  74.4309473  55.2597141
  38.2512164  73.5609770  55.6370401  39.7015429  74.0002108  54.8483133
  39.1543603  75.3576660  56.3400888  38.4610891  75.9655619  56.7523289
  40.3866386  75.7617188  56.5200377  41.4712524  75.1058054  56.2162876
  41.4762020  74.1019249  56.1053848  42.3750401  75.5297136  56.3698530
  40.6626749  76.8881035  57.0358610  39.9428248  77.2827482  57.6242304
  41.5871239  77.2727013  57.1684170  34.2135453  76.5549421  53.8924694
  33.4172225  75.6359529  53.8523960  33.9340949  77.7970743  54.3114090
  34.7094345  78.4110117  54.5164204  32.6006246  78.1420708  54.6541882
  32.1973586  77.5053692  55.4416513  32.6218414  79.5168591  55.3870869
  33.2351971  79.4343042  56.2843466  33.1270480  80.2210426  54.7260189
  31.2734199  80.2152634  55.7038307  31.5180469  81.2297440  56.0186100
  30.7718873  80.2225018  54.7360945  30.3342509  79.5505571  56.7129040
  30.4819775  78.4077311  57.0426750  29.3164229  80.2367592  57.1486473
  28.6554098  79.8006392  57.7755165  29.1647291  81.1697102  56.7927170
  31.5805244  78.1182861  53.4947824  30.5749083  77.5070286  53.7438965
  31.9290328  78.6417866  52.3079443  32.7700973  79.1999102  52.2731590
  31.1774087  78.4114218  51.0598612  30.2662897  79.0095520  51.0740519
  32.1791220  78.8453484  49.9116230  32.5463033  79.8384094  50.1706648
  33.0953431  78.2575130  49.8559761  31.5720367  78.7997055  48.5254192
  30.6106710  78.2911539  48.5978985  31.2985730  80.2414989  47.8771019
  30.8933640  80.0803852  46.8781233  30.5233097  80.7135296  48.4806347
  32.2022438  80.8368874  47.7467632  32.5190234  78.0600500  47.6015234
  32.0682955  77.9690456  46.6132593  33.5067940  78.5108471  47.5056553
  32.6849961  77.0175552  47.8731155  30.7411003  76.9829321  50.9881926
  29.5262361  76.6812801  50.9161615  31.6321087  75.9644365  51.0298109
  32.6138616  76.1992216  51.0636663  31.1781740  74.5670366  50.9335995
  30.6158471  74.3158293  50.0342751  32.4666858  73.7680197  50.6873512
  33.0897188  74.0858793  51.5233517  32.3122931  72.6966524  50.8155298
  33.0786991  74.0261889  49.3624783  32.2958684  73.8173628  48.1959772
  31.2354541  73.6887598  48.3552933  32.8455329  73.6936331  46.9054413
  32.2273898  73.3328152  46.0966682  34.1914129  74.1107559  46.7399693
  34.6752286  74.2087936  45.7793903  34.9480748  74.4865179  47.8923178
  35.9289837  74.9049759  47.7216816  34.4174290  74.3475676  49.1956425
  34.9902177  74.6365356  50.0644493  30.4247904  74.0213823  52.1492624
  29.5914292  73.1705713  52.0092583  30.7353234  74.5217609  53.3390665
  31.2887216  75.3660059  53.3723736  30.1923299  74.1264820  54.6290970
  30.1397991  73.0584288  54.8402834  31.0199690  74.8538685  55.6679058
  32.0669913  74.5610142  55.5899096  30.9017777  75.9346676  55.5904484
  30.6698370  74.3158150  57.0789146  29.6944547  74.6471548  57.4352026
  30.5276227  73.2356453  57.1120739  31.7152953  74.7528315  58.1027269
  31.4735055  74.3422365  59.0830612  32.6812100  74.3847847  57.7568102
  31.7195964  76.1936235  58.2761097  31.0773516  76.6983652  57.6820898
  32.3465157  76.9342566  59.1554642  33.3062768  76.3938618  59.9537039
  33.5501194  75.4222727  59.8246574  33.8359666  76.9582748  60.6025267
  32.0204735  78.1703806  59.3122149  31.3258362  78.6006165  58.7185144
  32.5818920  78.6222887  60.0198078  28.7647104  74.5609093  54.7549582
  28.0472326  73.7906456  55.3873968  28.3451200  75.6180668  54.0317440
  29.0585876  76.1834526  53.5942507  26.9105673  75.9474659  53.8496161
  26.5057635  75.7913685  54.8495531  26.7888260  77.3925829  53.3247566
  27.3908901  77.4401999  52.4173641  25.3987956  77.7166748  52.7543449
  25.4309297  78.7483454  52.4040270  25.0754189  77.0561028  51.9498730
  24.5665097  77.7017164  53.4580374  27.2926688  78.4090900  54.3566084
  26.5114188  78.6108541  55.0894403  28.1946588  78.0295086  54.8366404
  27.7159047  79.7581339  53.7264729  28.3295870  80.2583408  54.4756651
  28.2571840  79.6730518  52.7841997  26.8158031  80.3341389  53.5116673
  26.1574936  74.9323368  52.8961849  24.9775434  74.5721865  53.2019520
  26.7279482  74.4592047  51.7506838  27.5453973  74.9451923  51.4105463
  26.1309004  73.3794594  51.0071278  25.1018810  73.6857319  50.8189154
  26.7994189  73.2641554  49.6064615  26.6434312  74.2076540  49.0834141
  27.8705049  73.1317663  49.7592592  26.4076924  72.0726490  48.6854410
  26.4825010  71.1098909  49.1910124  25.0323987  72.2701597  48.1903219
  25.0625682  73.2352591  47.6845837  24.7436380  71.4096260  47.5868320
  24.3079162  72.3007441  49.0041304  27.3363256  72.0700169  47.4451017
  27.4101353  72.9771423  46.8452930  28.3498502  71.8388700  47.7728844
  27.0815825  71.2646294  46.7562199  26.0159612  72.0644903  51.8093729
  24.9829841  71.4493704  51.9235611  27.0980072  71.7153358  52.4587631
  27.9223990  72.2847986  52.3315144  27.2919965  70.5050087  53.2514095
  27.2316456  69.7122049  52.5058079  28.7053442  70.5233812  53.9026833
  29.4128752  70.7825089  53.1150579  28.6925793  71.3179207  54.6487665
  29.3443847  69.3040562  54.3993616  29.9063993  68.3337355  53.5212088
  30.0458908  68.5597181  52.4743700  30.5175400  67.2149706  54.0580750
  31.0383654  66.5200233  53.4160519  30.4292655  66.9835854  55.4184675
  30.8704472  66.0709286  55.7910585  29.8137450  67.8874063  56.3169670
  29.8830295  67.7539873  57.3864508  29.2669582  69.0773726  55.7899380
  28.9078045  69.7916698  56.5160179  26.1319017  70.3291893  54.2502737
  25.3447556  69.3814611  54.2984581  25.8992600  71.3309860  55.0869608
  26.5266681  72.1190405  55.1606607  24.7847700  71.4214849  55.9941339
  24.8554611  70.5165720  56.5976572  24.8424339  72.6807261  56.8545389
  25.0235772  73.5877180  56.2777758  23.8477135  72.7935457  57.2857046
  25.9071016  72.3741245  57.9276752  25.6187391  71.5128326  58.5302734
  26.8055439  72.0094728  57.4297476  26.1977267  73.6665630  58.7457037
  26.4242554  74.5025349  58.0839348  25.3240037  73.9357519  59.3392086
  27.2733617  73.5122204  59.6835470  27.7043986  72.5988150  59.6820927
  27.8727126  74.5658302  60.1537132  27.6116037  75.8214331  59.9043894
  26.7208958  76.1619043  59.5714903  28.1096601  76.5539265  60.3896713
  28.8276577  74.4429779  61.0179853  29.3401146  73.5796738  61.1284018
  29.1878867  75.2668619  61.4779329  23.4843183  71.3439989  55.2422857
  22.6530623  70.5438566  55.7120371  23.3247828  71.9758844  54.1125298
  24.1065097  72.5500107  53.8307762  22.0658755  71.9482994  53.2369232
  21.2623882  72.2602320  53.9041567  22.1557212  73.0948400  52.1743011
  22.8942966  72.8676796  51.4055347  20.8924937  73.3485079  51.3727379
  20.1167965  73.1203508  52.1037292  20.9896064  74.3798018  51.0334730
  20.8916497  72.6644850  50.5240822  22.2927713  74.2728615  52.9196119
  23.2118082  74.3223667  53.1926012  21.6011095  70.6451416  52.5789785
  20.4295754  70.4483891  52.3323202  22.5852036  69.8185349  52.2230768
  23.5455179  70.1168823  52.3173380  22.3998642  68.4457684  51.7674685
  21.4175487  68.3989239  51.2973976  23.4807944  67.9956436  50.7104158
  24.4179630  67.9525185  51.2653542  23.3402491  66.9635391  50.3893185
  23.6329031  68.8813496  49.4716501  23.7208033  69.8625040  49.9382591
  24.8792267  68.5549545  48.6317396  24.8058844  67.4920225  48.4017467
  24.9652195  69.1302776  47.7099419  25.7489109  68.6563206  49.2809391
  22.4590278  68.7011099  48.4613848  22.6047421  67.9004812  47.7362108
  21.5294290  68.4853363  48.9880657  22.4120712  69.6230793  47.8818464
  22.2645187  67.4634743  52.9384661  21.8626499  66.3516331  52.7748489
  22.5312924  67.9938602  54.1184330  22.9581594  68.9091015  54.1333866
  22.5101590  67.3170328  55.4573488  22.8048229  68.0378485  56.2200499
  21.0579753  66.8524027  55.7346582  20.7361555  66.1524105  54.9635935
  21.1068702  66.3519144  56.7017269  20.0599122  67.9828691  55.8434486
  20.0764108  68.6949492  56.8617725  19.3527949  68.2520247  54.7451830
  18.6799061  69.0025473  54.8087978  19.2275047  67.5220203  54.0585279
  23.6394000  66.1901140  55.6726885  23.4856915  65.2797270  56.4615631
  24.8722625  66.5800238  55.1988220  24.9150276  67.5175953  54.8256874
  26.0193110  65.7249308  55.2682304  25.6257749  64.7085381  55.2815533
  26.9852471  65.9593296  54.1163588  27.3425913  66.9857502  54.1992569
  27.9344106  65.4238367  54.1372156  26.4646530  65.6883907  52.8076315
  26.9013333  66.2458467  51.5984440  26.0261726  65.7945776  50.6885099
  26.0492373  65.8992290  49.6138382  25.1174617  65.0250912  51.2595749
  24.3575096  64.5068979  50.8423901  25.3674936  64.8538017  52.5757504
  24.7938871  64.3207836  53.3195686  26.6623855  65.7375288  56.6477013
  26.2035894  66.4085150  57.5649405  27.8085852  65.0521374  56.8408012
  28.2016873  64.4353628  56.1442709  28.6353612  65.2305794  58.0859470
  28.7964964  66.2682486  58.3781433  27.9235339  64.4883060  59.2988014
  28.5545325  64.5455837  60.1857376  26.9994831  65.0392389  59.4740105
  27.5604796  63.0503082  59.0090132  26.8802357  63.0038357  58.1585932
  28.4153628  62.4522495  58.6934185  26.9178843  62.2459364  60.0332785
  26.2807178  62.7142096  60.9327173  27.0087337  60.9859514  59.9092150
  26.7210150  60.3923750  60.6740618  27.5720668  60.6328344  59.1489172
  30.0161409  64.7183561  57.7918243  30.1548815  63.7721157  57.0130396
  30.9703994  65.3168249  58.4468699  30.6432509  65.8992338  59.2044115
  32.3843861  64.8890495  58.4147787  32.6584220  64.6863222  57.3794460
  33.2904267  66.0208082  58.8084412  33.0089259  66.2897396  59.8265457
  34.3303394  65.7372141  58.6464024  33.0883622  67.3404503  58.0443478
  33.2903409  67.3151636  56.6548204  33.7471223  66.4318037  56.2336063
  33.0230188  68.4702778  55.8265114  33.1959319  68.5624266  54.7644329
  32.4700403  69.5550346  56.5431547  32.1388865  70.6832743  55.9046936
  31.8919635  70.4430389  55.0086355  32.1994877  69.5558643  57.9592991
  31.7643476  70.4482031  58.3844805  32.5228834  68.4178066  58.7016821
  32.2486758  68.3786440  59.7455597  32.5829601  63.5888624  59.1748190
  33.0375171  63.5816765  60.2958965  32.2091842  62.4412870  58.5638571
  31.7414212  62.6321936  57.6892996  32.2373939  61.0878372  59.0480423
  32.5640488  61.0814476  60.0879240  30.7911777  60.5257750  59.1814089
  30.8393860  59.6299601  59.8005152  30.1579833  61.2840414  59.6420527
  30.0054979  60.1914644  57.8563786  30.5607271  60.0235748  56.7787647
  28.7551117  60.1512957  57.8835011  33.1865954  60.1237869  58.2743979
  33.1102991  58.9623785  58.5967493  33.9704561  60.6493330  57.3752928
  33.9960432  61.6509390  57.2479010  34.9920654  59.9021006  56.5361309
  35.4835224  60.6909323  55.9666443  36.0260725  59.3214464  57.5380421
  35.5431080  58.6666918  58.2633972  36.8061924  58.8507032  56.9397831
  36.7091990  60.4601240  58.2559443  36.5549612  60.5581570  59.6598625
  35.9557462  59.8579741  60.2229738  37.4064183  61.5033340  60.2944136
  37.3780704  61.6243792  61.3672352  38.2335901  62.3891068  59.5514250
  38.9677501  63.3197355  60.2297020  38.6830235  63.6100435  61.0993290
  38.2060099  62.3479319  58.1406546  38.6763883  63.1703091  57.6221514
  37.4539137  61.3558578  57.4967861  37.3268700  61.2576818  56.4287806
  34.5612168  58.7828207  55.4892015  35.4440761  57.9861164  55.0082541
  33.2633066  58.6263561  55.2649975  32.6799870  59.2236423  55.8334064
  32.6071191  57.6731014  54.3851900  33.0273771  56.6674232  54.3949938
  31.1202121  57.4983835  54.8250103  30.4362321  58.1990623  54.3461323
  30.6791592  56.0385990  54.5467997  31.2821269  55.4931355  55.2727461
  29.6397042  55.8586884  54.8211670  31.1092734  55.6771231  53.6127567
  30.9684753  57.6065063  56.1781359  30.7428360  58.5223913  56.3566017
  32.7327204  58.1236410  52.8944492  31.7600608  58.6279821  52.3954439
  33.8938975  57.9315853  52.2702694  34.5542812  57.3416424  52.7560234
  34.0657449  58.1925106  50.7849407  33.5020781  59.0905619  50.5321884
  35.5396461  58.5053682  50.4620266  36.0153556  57.5255966  50.5050564
  35.8346963  58.8906908  49.4860315  36.2607837  59.3902731  51.5018988
  36.2848353  60.8025742  51.3082361  35.7043338  61.1453676  50.4644871
  36.9994926  61.6745710  52.1304035  36.9191957  62.7485895  52.0501900
  37.8140378  61.0724878  53.1652021  38.4422231  61.7003250  53.7797022
  37.7952647  59.7069550  53.3784151  38.3368039  59.2224741  54.1774273
  37.0587564  58.8567495  52.5552273  37.0548749  57.7777481  52.6014948
  33.4444904  57.0836353  49.9491024  33.1989741  55.9888649  50.3860569
  33.1954789  57.3687172  48.6773539  33.2549858  58.3249617  48.3577251
  32.9405451  56.2986183  47.6559496  31.9365358  55.9820843  47.9385757
  33.0225611  56.9017363  46.2320423  33.9346027  57.4517155  46.0000849
  33.1911469  56.0625696  45.5571461  31.8603659  57.8372717  45.7636452
  31.4916158  58.8409090  46.4665031  31.3213706  57.5869560  44.6680164
  33.7795162  54.9651003  47.7336168  33.1271267  53.9505577  47.8660345
  35.1232433  54.9429560  47.7171469  35.6792355  55.7390785  47.9949379
  35.9165430  53.7442780  47.7438164  35.4072595  52.9964066  47.1360254
  37.3849106  54.0360451  47.2715998  37.9601264  53.1104183  47.2925711
  37.3720193  54.4324255  46.2563086  38.0668712  55.0125217  48.1754494
  38.6748123  54.6834755  49.3512678  38.7413979  53.6605835  49.6913481
  39.1201901  55.8305979  49.9339390  39.6919250  55.8027363  50.7660675
  38.9129186  56.9893265  49.1301823  39.2486000  58.3265066  49.1533709
  39.7796082  58.6625004  50.0317478  38.7578821  59.2672968  48.2034969
  38.9771628  60.3214645  48.2874155  38.0076528  58.7159920  47.1086550
  37.7202296  59.3742752  46.3021421  37.7093768  57.3370695  47.0355225
  37.1961236  56.9739008  46.1574078  38.1501770  56.4472246  48.0459356
  35.8839488  53.0809832  49.1497040  36.0229373  51.8760061  49.2316246
  35.6228995  53.8084650  50.2535725  35.4794908  54.7984076  50.1137257
  35.3219604  53.2148552  51.5876293  36.1928487  52.7073145  52.0024252
  34.8440814  54.3657589  52.5466633  33.8235664  54.7292089  52.4260187
  34.7493911  54.0475416  54.0410185  34.0712357  53.2191038  54.2456818
  35.6541228  53.5857916  54.4364262  34.2142224  54.7928667  54.6293879
  35.7632661  55.4322624  52.4182940  36.6452289  55.2602482  52.7561569
  34.2291832  52.2021151  51.4996815  34.3552208  51.0538006  51.8441963
  33.0928898  52.5626087  50.8754015  32.9762411  53.5478401  50.6861544
  32.0102787  51.6234350  50.7282305  31.7217302  51.2959671  51.7270327
  30.6822944  52.3458052  50.3582716  30.9450197  53.0012369  49.5279217
  29.8428178  51.7004347  50.0996542  30.1010680  53.2668066  51.4589405
  29.7457814  52.6538849  52.2873116  30.8449864  53.9935637  51.7852974
  28.7708163  54.4287014  50.8113432  29.7950745  55.6471395  49.8472023
  29.3458271  56.5861225  49.5237732  30.5514169  56.0694361  50.5088043
  30.2134299  55.1472330  48.9736080  32.2678590  50.4121780  49.7855949
  31.9391418  49.2434788  50.1234102  33.0493045  50.6222582  48.6923361
  33.3880401  51.5636778  48.5541821  33.3619356  49.6544409  47.6860857
  32.3998690  49.2112875  47.4289036  33.9170814  50.2780771  46.3689566
  34.6603203  51.0064173  46.6933393  34.2818499  49.4539261  45.7559204
  32.9850674  51.1126900  45.5136204  32.2752976  51.6996241  46.0965681
  33.7842250  51.9756556  44.5581532  33.0563188  52.5544357  43.9895916
  34.4730997  52.6191950  45.1053333  34.3759274  51.3850021  43.8587856
  32.0676517  50.1901150  44.6490526  32.6309395  49.6472692  43.8900232
  31.4710450  49.4797564  45.2213764  31.3873625  50.8834505  44.1544914
  34.2402530  48.5998678  48.2154799  34.2769170  47.4910927  47.6224375
  34.9893284  48.7447834  49.2824030  34.8844767  49.6779871  49.6542072
  35.8818960  47.7751017  49.8704958  35.9381199  46.9416332  49.1703033
  37.3417187  48.3620453  49.8558044  37.4146247  49.3622828  50.2827835
  38.0837870  47.7846146  50.4071760  37.8297615  48.5311317  48.4117556
  37.8571939  47.5977945  47.8494167  37.2525692  49.3578100  47.9975653
  39.2951202  48.9932585  48.4981203  39.4942951  49.8693228  49.1153193
  39.8951292  48.1463385  48.8310099  39.7338438  49.4825649  47.1388769
  39.6904492  48.7023306  46.3789749  39.0490437  50.2846909  46.8636608
  41.1220503  50.0639343  47.1925116  41.8014574  49.4089699  47.5524092
  41.4537859  50.2080107  46.2494898  41.1274815  50.9039974  47.7532053
  35.4733157  47.3263025  51.2914610  36.2088299  46.5792084  51.9420099
  34.3430972  47.8658152  51.8512392  33.8905430  48.6367226  51.3811350
  33.8314509  47.5612688  53.1830835  34.6680164  47.5703955  53.8817835
  32.6547790  48.5345840  53.6058950  33.0862927  49.4986916  53.8749695
  31.9030666  48.5256767  52.8166199  31.7803264  48.1490135  54.8668528
  30.8571053  48.7258101  54.9222183  31.5914011  47.0755100  54.8670530
  32.5567722  48.4846640  56.1365557  33.6998081  48.0891562  56.3878918
  32.0039988  49.2426205  57.0282269  32.4944258  49.5846701  57.8422213
  31.0945344  49.6555758  56.8784285  33.4505343  46.0838366  53.1742382
  33.0931830  45.5680323  52.0533562  33.7493825  45.4323912  54.1959620
  41.5981007  62.4991417  27.4506044  65.7774925  78.3260155  42.9920197
  49.2014122  58.0394888  80.2642822  68.0843163  71.8575001  36.1869550
 110.7161999  10.5799508  92.8715324  44.4777775  55.0952148  73.6135626
   0.6983391  11.5077150  29.6321344   1.5322815  11.5410221  30.1008177
   0.9430316  11.3659918  28.7176561   2.4700479  70.9856606  19.4501030
   1.8062907  70.2972651  19.4922006   3.1824172  70.6006098  18.9397120
  28.6370087  11.1159098  46.0005093  29.3832755  10.6476188  45.6263113
  28.2630801  11.5986252  45.2633524  61.7085600  36.2999344  52.8535366
  62.1099901  36.9467092  53.4338522  61.3695335  35.6266260  53.4434080
  15.1724529  98.9640331   2.9613507  16.0797203  98.7201309   3.1446809
  14.7374582  98.1352711   2.7609408  78.6016035  47.4194479  91.9990730
  79.2632294  47.1529150  92.6373768  79.0516853  47.3763657  91.1553860
  54.3779135   5.1034027  64.2873812  55.0599909   4.6400312  63.8012838
  54.7472715   5.9713906  64.4498777  89.4065285  38.0457592   6.2608826
  89.3359661  38.8397837   5.7309937  89.8033619  37.4012494   5.6749165
  16.9825220 104.5149326  80.4642296  16.5877652 104.7875977  79.6359444
  17.5207102 105.2605629  80.7299709  22.6272678  35.9269428  43.0004883
  23.5434461  36.0375428  42.7462912  22.1375871  36.0371828  42.1854448
  82.6733780  47.4806976  86.2135983  82.9973221  48.0345917  85.5033302
  81.8264771  47.1619225  85.9015369  12.3429298  11.2447584  50.5096054
  12.8748953  10.4612041  50.6484795  11.5705526  10.9297562  50.0400925
  34.7709298  79.6630955   6.2401927  34.2626643  80.4662418   6.1268479
  34.2063522  79.0942049   6.7634988  20.2895069  88.7126637  15.4893601
  20.8652949  89.2589188  14.9542785  20.8602166  88.0225945  15.8274758
 113.3552837  30.3158474  90.5651379 113.6468601  30.6372666  91.4183140
 112.8488541  29.5288205  90.7660007  21.1153030 104.8590755   0.2082802
  21.4602685 104.6932316  -0.6690599  21.4868474 104.1610241   0.7476397
   5.0704026  99.9489594   8.8527745   5.8762747 100.1333332   9.3352789
   4.4603986  99.6304989   9.5181358  69.9987364  82.9333210  26.5635228
  70.5840540  82.8813839  25.8079195  70.5627346  82.7550220  27.3160839
  96.2039375  75.3497696  23.6264706  97.0764446  75.3600597  24.0199804
  96.0228634  76.2670374  23.4213686   6.4674574  85.6102562  18.6899495
   7.3843426  85.4736042  18.9284444   6.2914926  86.5208244  18.9268982
  32.6234126  99.2450905  30.5489492  32.4730659  99.3565369  31.4876771
  33.5310054  99.5193768  30.4175210  20.7718396 104.3225861  14.3361926
  21.3629270 103.9066982  13.7085915  19.9657619 103.8091755  14.2825294
  19.1788197  91.8335438  24.6306777  19.2198658  91.4267254  25.4961514
  18.4398353  91.4046288  24.1992116 106.5365601  92.1622944  56.7649984
 106.7719650  91.5523624  57.4641418 105.8906651  92.7456284  57.1634531
   7.8073061  97.7195263  27.9147816   7.7743125  96.8669128  28.3485961
   7.8060204  98.3534050  28.6320210 107.7391720  95.0344276  42.3590183
 107.3823738  94.3818569  42.9615736 107.4719810  94.7307873  41.4914703
 110.5156612 101.7557144  44.2991924 109.9767017 100.9986115  44.5284081
 110.3030682 101.9324207  43.3827782   7.8791261  77.5374746  27.7955294
   8.7997282  77.7996254  27.7956653   7.5183976  77.9301310  27.0005894
 108.9662552  59.7361088   2.8046209 108.5231113  60.4110479   2.2905114
 108.2855320  59.3882895   3.3807012 115.5652809  72.1163273  62.1784401
 115.3994656  72.8601646  62.7576160 114.9899101  71.4249468  62.5058079
   4.3365142  87.5355625  24.6527767   3.6078453  87.0087624  24.3245101
   4.8407915  86.9327545  25.1991820  38.2619643  12.5441313   8.8890719
  37.3640704  12.8434336   8.7461138  38.5701370  12.2875202   8.0199283
   7.2853464  73.9706802  20.8797789   7.5786591  74.3831730  21.6922140
   8.0917865  73.6791658  20.4544497  52.8713799  36.1385703  88.6531734
  52.6020813  37.0552135  88.5942364  52.7172518  35.9019852  89.5677757
 107.4070168  80.4381084  60.1950598 107.7244759  81.3100433  60.4299736
 107.3636055  80.4485893  59.2389011  22.4729228 107.0411396   1.3920178
  22.4715972 107.6609898   0.6626258  21.8288040 106.3779736   1.1439310
   3.6055130 100.2310181  22.3747349   4.5435378 100.2902222  22.5559402
   3.5553426  99.9198437  21.4709187  45.5819225   0.4450539  16.7931330
  45.9498835   0.3814701  17.6744902  45.8040905   1.3301173  16.5041065
  19.0048468  44.5932484  27.6083469  18.1417811  44.4773817  27.2109509
  18.8201416  44.8773050  28.5035729  11.9134593  80.7206154  21.2981367
  11.2375617  80.2004147  21.7326283  12.5346887  80.0741577  20.9628844
   7.5808549  78.9205408  25.4351425   8.4853292  78.8127708  25.1409554
   7.0995015  79.1653776  24.6448350  22.6832604  20.8249927  22.6109815
  23.1904888  20.0282097  22.4557781  22.9066896  21.3978529  21.8773961
 113.2609844  99.6043587   3.8722658 112.9515743 100.0776768   4.6445817
 113.4886646 100.2912235   3.2456851  19.2765975  93.7601471  29.8270369
  18.7255812  94.2099190  30.4675984  19.7484791  94.4635391  29.3811631
  38.6447954   3.0796376  14.8960650  38.0456257   2.3405607  15.0009215
  38.1713796   3.8258231  15.2639186 100.1798725  77.6679659  32.5539541
 100.5898952  77.5971222  33.4159875  99.2409229  77.6065922  32.7295589
   4.5463583   1.2904957  60.6545019   5.4166651   1.5828577  60.3837204
   4.5030972   1.4993627  61.5876341   8.4971434  81.8795109  45.7638168
   9.2613369  81.6316414  46.2842035   8.3315831  81.1203671  45.2047873
  24.1394711   7.5797939   5.2601844  24.5160055   8.3192331   5.7373464
  23.2337475   7.8396511   5.0917441  56.3163042  22.7738214  14.0503681
  55.6321096  23.2194519  14.5498908  56.3069391  23.2036328  13.1951439
  66.5078592  71.0662413  29.9009228  66.7963457  70.5566692  29.1437268
  67.2774839  71.5760994  30.1538014 114.1642475  94.4396496  32.1913862
 115.0941563  94.5988274  32.0296454 113.7279034  95.2330303  31.8809319
  32.7053404  11.0786796  28.9275098  33.5108447  10.7755685  28.5085607
  32.9944372  11.4532113  29.7596025  69.7841311  13.1186450  40.2967834
  68.8888836  13.4464967  40.3821087  69.7393656  12.4830151  39.5825005
   3.2773396  15.3239763  74.1327715   3.8695702  15.9405005  73.7021971
   3.1395021  15.6936061  75.0048971  75.8276224  39.7151637  94.1602898
  75.7153654  38.8772750  94.6092606  75.7173109  40.3719568  94.8478127
  95.9560966  14.5250261  91.0400581  96.8250656  14.7862160  90.7352543
  96.1038399  14.1860747  91.9229603  38.8783503  16.7050409  45.3738213
  38.6420059  17.2580099  44.6291065  39.2934680  17.3038590  45.9945679
  48.8540220  33.9428639  24.3385744  49.8014498  33.9681339  24.2044950
  48.6142969  33.0294323  24.1823554  81.6533375  87.5388813  38.5888076
  82.1249294  87.0215130  39.2416215  81.4735699  88.3708000  39.0267920
  17.5081468  14.5257401  10.0158846  17.4854231  13.7529469   9.4515193
  17.2072494  14.2092133  10.8676505   5.1259029  98.8377094   2.2179405
   4.4316265  99.4853401   2.3395509   4.6733528  98.0597687   1.8920025
  79.5079756   2.1518132  15.0669074  80.2682209   2.4462858  15.5684483
  79.8596621   1.9366130  14.2030561 116.0159069  71.4022779  47.4320269
 115.6572293  72.2895908  47.4479485 115.8940158  71.1108398  46.5284586
  65.2923822  92.2202492  21.0835552  64.7922993  91.4111614  21.1909509
  64.9579287  92.8010368  21.7669702  13.3640063  64.7940063  10.5656898
  13.2974768  64.6560669  11.5105593  14.3040109  64.8649883  10.3996027
  35.2984333 100.4321289  46.0614824  35.9914684  99.9918842  45.5694199
  34.8064232  99.7205257  46.4710951  86.9388199  20.5371642  78.9098358
  87.8474522  20.2729249  78.7656355  86.4348412  19.7305489  78.8020992
  84.4208241  14.9224615  94.1412640  85.3756905  14.8773098  94.1904640
  84.1306496  14.0219808  94.2867470  40.6717014 105.1996422  25.5015087
  40.4089928 105.3435898  26.4106274  40.9484100 106.0623646  25.1926875
  77.3885632 106.1563683  74.0170145  76.4952660 106.1406708  74.3605423
  77.8768015 105.5674171  74.5923281  99.7177792  98.0493355  39.6407962
  99.5060253  97.8846741  40.5596447  98.9588451  98.5237312  39.3014026
 101.2166691   0.8955697   8.3274752 102.1181870   0.7411221   8.0452508
 100.8010101   0.0344657   8.2832801 106.0401249  38.5183764  27.8853631
 106.7142487  38.9604187  27.3692369 105.4101849  39.2073464  28.0968499
   1.5948580   3.2484597  37.7963710   2.5292709   3.0940512  37.6575828
   1.2891617   2.4679229  38.2584786  23.2144618  74.0448999  35.7102776
  23.1333351  74.8565340  35.2093816  23.5795999  74.3182707  36.5518069
 115.2795887  76.9576597  50.3374243 115.8700943  77.1048260  49.5985889
 115.7953644  76.4418364  50.9572077 111.4579391  73.4875584  85.5833912
 110.8012295  73.7017679  84.9207687 112.1592712  74.1229486  85.4397106
  29.2299914  89.9239922   4.5377403  29.9442506  89.9774551   3.9027536
  28.6413980  89.2589092   4.1807213  18.6486316  80.6134796  50.2496004
  17.7726734  80.9311390  50.0304699  18.6708701  79.7188282  49.9099922
 107.7541542 101.3932514  56.1046410 107.1173382 100.7835674  56.4774704
 107.4868011 101.4895821  55.1906013  57.8010904  -0.2357010  26.3562679
  57.1924316  -0.2459339  27.0949578  57.7753579   0.6663891  26.0371995
   2.2714405 107.0867538  37.3158455   1.8450485 107.8883076  37.0126438
   1.5956777 106.6311455  37.8178382  15.0845826 102.2918129   9.3673140
  15.9567451 102.0063591   9.6394908  15.1144087 103.2464504   9.4306177
  87.7104664  99.0437984  40.3864288  88.0591202  99.1821194  39.5057821
  86.8227673  99.4001579  40.3512907  10.1636767 104.6674442  42.1247101
   9.7581667 105.3171253  42.6989126  10.1933920 103.8682461  42.6506758
  98.5534191 101.4958954  33.5714006  99.2540359 101.6400433  32.9353261
  98.6802483 100.5944443  33.8672423   8.8448459 101.7988300  19.2809808
   8.9092791 100.9429741  19.7047698   9.7504109 102.0358276  19.0809405
   6.9566685   4.9750516  55.8790541   6.6639858   5.8368623  56.1754513
   7.2637540   5.1210529  54.9842834  82.4594498  98.4395409  64.0265656
  82.1573544  99.3236923  64.2345190  83.1087780  98.2432556  64.7019053
   3.5038507  78.1212044  80.3793049   4.4311720  77.9302883  80.2383900
   3.0665812  77.7710199  79.6031618  25.1360822  99.3325043  25.6769490
  24.5374727 100.0699615  25.5584097  25.8660793  99.6948624  26.1789703
 110.2102375  20.1284623   8.0632752 110.1093197  21.0631895   8.2430822
 109.5670986  19.7044623   8.6314565  43.7643480   4.3162739   8.8397717
  44.7059059   4.2026269   8.9693010  43.3691406   3.5666984   9.2849463
  92.0523453  59.9034262  92.6347446  92.6116943  59.6264267  93.3604336
  92.3423004  60.7935381  92.4350929  26.4088082  97.3350334  48.8226652
  27.1109843  97.9785156  48.9180756  26.4035654  97.1228695  47.8892899
  58.2185650  20.2472639  36.8394208  58.8299942  20.8554864  36.4241433
  58.5834932  20.0991392  37.7118421  15.8744752  64.0920210  26.6748953
  16.5479958  63.6439133  26.1632299  16.3575172  64.7301960  27.1999002
  54.6060991   2.7140498  22.2169733  53.7739038   2.2478323  22.1374822
  54.3660498   3.5765323  22.5556946 114.2421627 100.7962418   9.7853351
 113.3845520 101.0251427  10.1436031 114.8553848 101.3665199  10.2489805
  27.9769182   9.3581629  52.3874712  28.1256533   8.4543312  52.6653147
  27.0398140   9.4990879  52.5224018   7.5128633 104.4108582  15.6919777
   8.1491679 103.7302017  15.4727495   7.2171140 104.7440720  14.8447871
 104.7383595  98.7398720  31.6351151 104.4316292  99.0945339  30.8006287
 105.3197098  99.4158459  31.9834471  31.8390083   0.7508449  25.9077382
  31.3769364   1.5202567  25.5749822  32.6246834   0.6897327  25.3644037
  42.8089428  60.2240467  91.3123894  42.4336672  60.9547615  90.8209991
  43.7143898  60.1697397  91.0066986  25.1400495 102.6109505  42.1683788
  24.7778964 101.8194962  41.7700386  25.5208540 103.0951214  41.4357138
  27.7078271  11.9146252  21.7055726  28.2153535  11.3050842  22.2413969
  27.8688192  12.7717006  22.1002054  86.8795776  92.6894283   9.8521352
  87.2501755  93.3358574   9.2512852  86.1570644  92.2949600   9.3636638
  43.6894894   7.0485389  11.3846540  44.5432806   6.8520576  10.9990811
  43.4781885   6.2740850  11.9060016  39.1249967  46.3467836  19.3600976
  38.9136720  45.5751705  19.8856342  40.0817490  46.3686514  19.3406844
  79.4163227   5.5769587  70.8766174  79.3451500   6.4953345  71.1369133
  78.6047602   5.3991663  70.4012394  15.2702558  99.1982937   8.7451911
  15.7787728  99.1882896   9.5560801  15.0296223 100.1168919   8.6247033
  39.2690563  25.9570837  32.4075842  39.3155932  25.1293993  31.9290352
  38.7700343  25.7492805  33.1975389  44.0148449   7.5350255  14.5900953
  43.3819199   7.4666697  15.3049147  43.4843349   7.7344340  13.8187122
  95.0891685 101.9956779   8.9583570  95.8036327 101.5950108   9.4535810
  95.3639698 101.9277191   8.0439734  12.5655544  88.5843468  31.1477423
  12.5126946  89.4517803  30.7464957  13.0609727  88.7235737  31.9548392
  29.5927358 109.0569592  10.3556430  29.3115616 108.2109737  10.7041931
  29.7387099 108.8954067   9.4235355  22.2242498  49.2696095  92.3265648
  22.1452093  50.2235317  92.3312283  22.5440383  49.0514851  93.2019997
 107.7555752 102.7405548  34.0372109 108.1928539 102.0687294  34.5603418
 107.9586792 102.5084209  33.1310701   1.0629005  28.3188033  86.6939545
   0.7136791  27.7778864  85.9856606   0.3156538  28.4657574  87.2738361
  96.3903236  87.6844788  15.2653837  96.0244179  86.8004417  15.2367246
  95.6525612  88.2411003  15.5146289  34.9843001  15.7222748  17.1914101
  35.9292912  15.8645785  17.1369100  34.6027422  16.5869558  17.0398462
  51.0725355  21.8631959  10.5494225  50.8314991  22.2679186   9.7161555
  51.3469601  22.5957847  11.1009979   2.5518742  80.4242992  30.6086373
   2.0267265  80.1690006  31.3671088   2.5446749  79.6530294  30.0417852
  60.2124310   9.4316071   5.6774300  60.4102182  10.2331865   6.1617672
  60.0356960   9.7285652   4.7847870  73.4439898   1.0131963   4.0820163
  73.1399393   0.1663340   4.4085237  74.3923473   0.9928539   4.2102319
  30.8707523  53.8945293  20.0071406  30.3319073  53.1482553  19.7445464
  31.6590333  53.8219070  19.4690192 113.1610203 102.6869106  59.8734188
 112.8139877 102.9126358  60.7364655 114.0113163 102.2863388  60.0544596
   4.1087919  90.5122471  10.5227637   4.0992025  89.6280766  10.1561797
   3.2032382  90.8129215  10.4466355 106.2286377  62.5177097  74.2899752
 106.2846851  61.6048193  74.0076208 106.6524410  63.0118990  73.5882616
 103.5997486  87.8913975  21.1437583 104.3468285  88.0870724  20.5782294
 103.9391708  87.9936314  22.0329022  13.4282482  94.9282169  16.5684938
  14.0007162  95.0618649  15.8130801  12.6056743  95.3520489  16.3236082
  54.8611975  10.7161808  30.1712036  54.7032022  10.5903625  31.1068511
  54.7548962   9.8441988  29.7909665 106.5008736  38.5397077  88.5120869
 106.2520313  38.7798762  89.4046211 106.2091446  37.6329279  88.4178829
 114.4053173 102.4120426  28.4517741 114.3839645 102.9495907  27.6600552
 113.6486435 102.7041340  28.9600706 100.0985718 100.4056931  42.3310566
  99.3370152 100.7763863  42.7769852 100.8450222 100.6797123  42.8639269
  93.7044239  88.5085678  19.0647459  94.2180061  89.2977619  18.8926089
  93.5478783  88.5258770  20.0089002  67.8884363  10.1892257  40.7115698
  68.3334398  10.6592751  40.0064039  67.5435209  10.8788633  41.2787247
  13.6456466  86.4708233  52.3223448  14.0327096  85.9028816  52.9885674
  13.0745292  87.0614243  52.8135109  48.6948872   9.1237491  39.8711538
  48.1103754   8.4854370  40.2799749  49.5442104   8.9702857  40.2850723
 113.5247612 106.7856789  27.8467989 112.6006985 106.5639973  27.9617429
 113.9330673 106.5497684  28.6797833 105.8869934  65.4939508  87.3544407
 105.1813126  65.6275177  87.9872227 106.6896057  65.6181812  87.8609943
 107.1895504  86.9670963  45.8403540 106.7260933  86.7675781  46.6537619
 107.8056526  86.2426090  45.7318258  61.4379025  69.0377426  86.6953945
  60.6103277  69.4853020  86.5191936  61.1796427  68.1674337  86.9988823
  21.9982028  95.4706192  36.0853362  22.8450942  95.7001209  36.4678764
  21.3673162  95.6293678  36.7874861  78.8452339  27.6570916  70.2920008
  78.5787487  27.5785160  71.2079954  79.7970581  27.5573993  70.3100729
  47.5999880   0.6826647  10.5846262  48.3842850   0.4350812  10.0949180
  46.8863773   0.2229277  10.1423228 112.2994709  82.1449852  26.5852046
 112.6438618  82.9698467  26.9275975 112.0944881  81.6289806  27.3649168
 107.2176838 102.3137093  42.2336817 106.4533138 101.7377090  42.2478390
 107.1745586 102.7893543  43.0632114  39.8974681   0.4181745  37.0279121
  40.5637741   0.8597627  36.5013504  39.9537706   0.8377454  37.8864098
  29.0428758   0.3889003  11.6610157  29.3996644  -0.4330319  11.3243258
  29.1643572   1.0134899  10.9459198 101.7742825  88.8817024  50.7759762
 101.3113880  89.1778374  49.9922180 101.5316677  87.9598999  50.8634806
  74.5516586  12.7988577  18.5979688  74.0104818  12.5466609  19.3461370
  75.3855419  13.0658627  18.9847207  11.9832993   4.4009167   6.1522555
  12.4540985   4.7374079   5.3897899  12.0400691   5.1046771   6.7985761
  60.7309437  94.8347282  22.3573613  61.6593075  94.7668076  22.5804353
  60.5215311  95.7602596  22.4829435  76.3942528   4.9559495  21.7210960
  77.0257998   4.3544006  22.1154547  75.5564022   4.7175118  22.1178150
  38.4483886  14.0403306  25.1796961  37.9036355  13.3651972  24.7751331
  38.1859469  14.0400612  26.1002159  58.9909601   6.5745264  16.8998051
  58.1157684   6.2545961  17.1187019  59.5850706   5.9724623  17.3478889
  58.1776524  96.1389256  77.4103403  57.4894619  95.9123135  76.7848158
  58.0949545  97.0856380  77.5248671  55.6210709  13.4723914  16.2189329
  55.3087521  14.3392205  15.9595215  55.5255985  12.9376471  15.4307926
  38.7545919  24.3963361  16.7722678  38.7991691  23.5078287  17.1255362
  39.6658158  24.6877861  16.7413378 104.6035957  69.2268753  11.2841904
 103.6674976  69.4058228  11.1950934 105.0053310  69.6773481  10.5412793
 101.5008259 100.9377384   2.4111642 101.4560032 100.7707882   3.3526257
 100.9823608 101.7322350   2.2838569  98.4640408 104.1157627  34.6052742
  98.9166355 104.7754955  35.1307583  98.9548874 103.3086109  34.7595882
  88.1179237  65.3807926  38.8955522  88.6851120  66.0081625  38.4472919
  88.2138157  65.5921698  39.8241806  76.6432381  36.2230206  92.1273994
  77.1092081  35.5736685  91.6006660  76.0485315  35.7074475  92.6721382
  17.2397757  92.7204132  27.7806878  17.0446444  92.9928589  26.8840671
  17.8668368  93.3705521  28.0974627 111.0076141  89.2977142  31.4994144
 110.5392265  88.4992313  31.7428660 110.4024982  90.0064373  31.7180181
  48.8064194   0.8632710  14.3889999  48.2443905   1.6206321  14.5525873
  49.6942997   1.2208365  14.3825722  60.3746033  32.1541286  18.8171804
  60.0393820  32.3391390  17.9398954  60.3243542  32.9934001  19.2747045
 105.9714222  97.0073986  13.3409870 105.5456829  97.0594692  12.4852657
 105.6463909  97.7715206  13.8171148  88.4062958 103.4931850  21.8428493
  89.1029167 103.6983776  21.2192726  87.8378010 102.8820419  21.3743043
  43.3851814 107.0966911  33.1926489  44.2045259 107.0603848  32.6991010
  43.6541271 107.2988415  34.0887737   1.5693904 108.7728596   5.3734112
   2.3316363 108.1946564   5.3435624   1.9392140 109.6547318   5.4153943
  60.2835751  19.9650443  28.6385179  60.6644583  20.4599547  29.3639302
  59.4936466  20.4524589  28.4046936  27.1592450  23.4059811  30.5322599
  27.5761938  22.6928759  31.0158563  27.3846149  23.2386589  29.6171403
  47.9605627  22.5258780   6.4703649  47.7309704  22.7951741   5.5809838
  48.2218456  21.6091728   6.3831204  59.4447374  37.0575905  80.4250431
  58.6038208  36.6325617  80.5936718  59.8739290  36.4928436  79.7823238
  14.3012321  49.2864180  27.9290843  14.9822140  48.7000132  27.5994945
  14.7177064  49.7541714  28.6529517  84.8964024  35.8395004   9.4282705
  85.3244781  36.5831113   9.8525625  84.5752525  36.1900949   8.5974979
  59.0241671  16.6753221  89.2477226  59.9137640  16.3394272  89.3573570
  59.0818596  17.2653699  88.4962273  56.2473965   8.3516753  89.0058613
  56.6275024   9.1198158  88.5795879  55.3435278   8.6046755  89.1936111
  55.2612686  14.9335766  86.9958401  55.4467821  14.0088212  86.8326092
  55.6058025  15.0955975  87.8740597 103.9851761  65.5368423  12.5563169
 103.1499958  65.8888435  12.8642344 104.2755604  66.1584139  11.8888187
  25.0662732 103.9717007  94.0428448  24.8689604 104.8582172  94.3451595
  24.8533010 103.4112453  94.7890091  33.4175754  12.8207159   5.3004730
  33.6015391  13.7546539   5.1997238  32.9863596  12.7520669   6.1522782
  94.3292904  79.1161060  12.9886329  95.1600456  79.3532276  12.5765133
  94.2605591  79.7012281  13.7430453  39.4165397  83.4341812   7.9759538
  39.9812675  84.1688919   8.2157737  39.8885918  82.9890060   7.2722375
  28.9961267  79.9896240  16.8739986  29.4692349  80.3234482  17.6362073
  28.2998824  80.6294155  16.7251730 105.6141567  72.3418522  43.6031246
 105.0879955  71.5817928  43.8515186 106.3204956  72.3654985  44.2486906
   2.9086974 101.6062546  39.2763233   2.2278206 101.4758778  39.9363565
   3.6071852 101.0030937  39.5303822  23.9723778  99.7782612  71.2898588
  24.5105243 100.0191498  72.0439148  23.8768840 100.5915356  70.7941723
  11.2694526  43.5870886  23.1061649  10.7634377  43.0520439  23.7176442
  11.6097593  42.9621029  22.4659920  56.6356468  12.9646254  71.5109301
  56.5008736  13.3680260  70.6534100  55.7527971  12.8462672  71.8613577
  16.6561115  94.9299812   2.9007301  15.8217561  94.7650909   3.3399278
  16.4665604  94.8033047   1.9710770  82.7442932   9.5211631  69.5787191
  82.9470634  10.4563868  69.5569515  81.8765545   9.4548804  69.1801310
  22.0536590  89.8559380  47.9734993  22.3400259  90.2567863  48.7941980
  22.7980042  89.9642658  47.3815107   1.4603926 105.9084320   9.0289229
   1.3058531 105.0298786   9.3760383   0.6436347 106.1379242   8.5856724
 101.1968040  79.6285152  30.7556629 101.3316441  80.2561474  31.4656782
 101.1307812  78.7805843  31.1948562 110.0666714  17.2707617  77.4464417
 110.7029819  17.4921632  78.1263828 110.5655003  16.7602181  76.8086767
  54.7218895  17.3022485  92.5426197  55.2123499  18.1202984  92.6231003
  54.8612785  16.8562376  93.3780098 100.5374813   8.9028710  73.0958176
 100.9986401   9.6973693  73.3647728  99.7279358   8.9113200  73.6065054
 100.9543324  53.9447165  86.3478374  99.9975300  53.9379740  86.3743687
 101.1688709  53.8506603  85.4197407  38.0167222  65.0524569   9.0417212
  38.0050230  64.1521597   9.3666297  37.3471856  65.0690031   8.3578503
  85.2758598  66.5950966  12.1396947  85.3083611  66.0834646  11.3313580
  84.9274349  67.4452400  11.8712115  91.1469173  44.6690941   6.6672438
  91.8488693  44.3513441   7.2351700  91.4100933  44.3993282   5.7873577
 103.9506912  23.8749099   3.0041680 104.7663498  23.7499976   3.4892771
 104.0397549  24.7401690   2.6046300   5.9730792  29.1736674  14.7721922
   5.2501470  28.6600447  14.4119239   5.8084214  30.0658464  14.4670117
  41.0842323 104.0954685  92.3205662  41.3864946 103.1874275  92.3027706
  40.4366302 104.1461563  91.6175175  81.3967800  11.5846515  62.7158022
  81.6854286  12.4893081  62.5953484  82.0637417  11.1935496  63.2801008
 104.4759369 103.9647484  39.0390968 103.8572788 103.8504410  39.7605062
 103.9766693 103.7320423  38.2562733  30.5900836 103.5763741  92.2935390
  30.9811163 102.7093983  92.1854877  29.6587849 103.4035587  92.4315739
  98.0635262  65.2125120  60.5368328  98.1887341  66.1493778  60.6879568
  97.2751427  65.1603317  59.9965000  16.2837887 103.5472488  23.7693524
  16.0095799 104.4534874  23.6287236  15.5230451 103.1261921  24.1696239
   8.7949246  89.9734974  10.2860105   9.2497140  89.1803837  10.5695009
   9.3829000  90.3699017   9.6430659 110.9585094  53.6799574   3.0199847
 110.3171062  54.2093563   3.4938732 111.4581013  53.2377768   3.7063652
 109.7373772  56.5924788  13.8844204 110.2451611  56.8567181  14.6516049
 110.2396965  55.8736944  13.5006833   9.0632987 101.0932446  56.3576984
   8.5305864 101.6912174  56.8819809   8.8861734 100.2281570  56.7271280
  18.6666250  95.1834679  87.7036667  18.0680406  94.4373226  87.6690292
  18.0961585  95.9506035  87.6557350 111.1998558  17.9228222  70.8955860
 111.0573006  17.2856784  70.1956129 112.0402241  17.6727355  71.2796068
 115.0639629  98.1698799  13.5330355 114.9287319  98.8785458  14.1621041
 114.1996193  98.0221558  13.1492031  62.3901892  13.7587774  91.0138321
  62.0159101  14.4676304  90.4906940  62.9923630  13.3134139  90.4177856
 103.4136581  63.9414835  25.5572748 102.9839611  63.9060545  24.7026777
 103.1305599  64.7749519  25.9333301  24.1985130  45.3270483  15.7682490
  25.0867319  45.0193262  15.5876732  23.6351585  44.5975685  15.5099428
 113.8094044  14.6928632  87.3944092 113.7496281  13.7702680  87.6423550
 113.8847542  15.1600802  88.2264328  64.6638489  36.9533396  89.4966125
  64.1076183  37.5673342  89.9760437  64.9003029  36.2888527  90.1437473
  92.6309776  22.2213078  42.8108740  93.0296707  21.9460607  41.9853354
  91.7238617  22.4245667  42.5827217  24.0734148  54.2254162  30.0211811
  24.4935727  54.5887947  29.2416596  23.1453919  54.4328833  29.9117994
 106.0677338  18.6013043  85.6473923 105.4255104  19.1304111  86.1204910
 105.8787441  17.7012718  85.9128189 113.7410259  81.4786720  30.9166837
 114.4464016  80.9230042  31.2482142 112.9387474  81.0541439  31.2205982
 110.4652405  76.4677811  19.6586144 109.8959541  77.1108723  19.2360389
 109.9488640  76.1371517  20.3936434  79.1318083  72.4286985  62.8439045
  78.4554768  71.7590809  62.7418423  79.3710327  72.3883200  63.7698507
  93.4576607  83.5360241  40.4162645  94.0446377  83.2319927  39.7239852
  93.6004162  82.9232216  41.1376047  81.1809158  42.6127625  26.7623329
  80.5077839  42.3300171  27.3813391  80.7986641  42.4470186  25.9005666
 115.5771065  75.8942795  35.0189924 115.6965542  76.7915964  35.3300977
 114.6287823  75.7935238  34.9367833  75.1650429  74.2372608  55.2131224
  74.4556475  73.6609077  54.9288559  75.4573202  73.8649559  56.0451031
   2.7899027  64.8024273  13.4723973   3.0728486  64.2190123  14.1765285
   2.5482064  64.2144728  12.7567697  36.8213892 103.9977837  78.9557600
  36.4996338 104.6064091  79.6208048  37.6602530 103.6897659  79.2987776
  72.2703123  35.2765870  86.7323208  71.9023037  35.3754210  87.6104069
  72.1776247  36.1424494  86.3349247  12.5443733  92.1775341   9.6800935
  12.4199700  91.2292480   9.6412271  13.1149197  92.3748875   8.9372891
 107.2786617  67.1702623   8.7565768 107.9698563  67.6904249   9.1663563
 107.7466106  66.4995193   8.2592225  75.8046103 108.9749622  84.3590546
  75.8640957 108.0200291  84.3309593  76.0044622 109.2007637  85.2675152
   6.0309821  53.8183022   8.9570838   5.3329140  53.4501171   9.4987220
   6.7183590  53.1522322   8.9669389 108.0722427 100.9029865  17.5724447
 108.1866932 100.0204182  17.9248536 107.9955959 100.7752609  16.6269064
   7.8580695  69.3649149  49.4335794   7.7438033  70.1057768  48.8383532
   8.6418653  68.9187336  49.1129303  89.6089840  37.0692873  90.9456062
  88.9807034  37.5805426  90.4356003  90.4614449  37.3004222  90.5766773
  14.7604275  95.5494308  14.0215194  14.8283625  96.3805580  13.5515642
  14.3337262  94.9579430  13.4016073  43.6211634  94.9226093  89.3777180
  43.2611656  95.1186085  90.2427101  42.9888248  94.3201447  88.9860249
   8.1115365  87.9054451  37.7231002   8.9797509  87.5066280  37.7812767
   7.8418165  88.0259323  38.6335754  48.0615664  75.1044035  76.1360884
  48.6576033  75.7280731  75.7213545  47.8877115  74.4518518  75.4577208
  13.8457549  76.3737679  25.5471969  13.2214808  76.2326431  26.2589526
  13.6685121  75.6647444  24.9290514  90.5090365  21.5852182  94.5257047
  91.1476633  21.7394130  93.8295638  91.0208663  21.6257398  95.3335538
 115.2561188  12.1646225  68.8169432 114.9123955  12.4242556  69.6717358
 116.1607265  11.9048429  68.9913940   2.7300262  54.2841005  15.1506066
   2.1313833  55.0116730  15.3193986   2.5060642  53.6309338  15.8135140
  29.9751663  74.3600321  91.5386868  30.4224801  74.0710211  92.3340607
  30.0631618  75.3131390  91.5472794  24.8426318  37.1443915  30.8751822
  25.5563569  36.5098810  30.8101964  24.0465689  36.6171861  30.8075857
  16.4639473  53.4535933  28.9445424  15.6348193  53.9120770  29.0808344
  16.5581262  53.4066868  27.9931426  25.5707288  59.8710346  36.5673041
  25.2470446  59.8629999  35.6665301  25.9958148  60.7234812  36.6614652
 105.1237869  39.0122151  19.7520995 104.6685791  38.7309098  20.5457544
 105.5257034  38.2134080  19.4106245  92.3634243  77.1154976   4.1269749
  91.4624119  76.8796110   4.3478036  92.3020554  77.5055265   3.2550007
   3.9863300  59.8772383  38.9023566   4.2993584  60.4153967  39.6294284
   4.7819266  59.6113205  38.4413314 104.5052719  70.5921698  52.3868990
 105.0604534  70.1118135  51.7726851 103.8809204  69.9403524  52.7055788
  87.8129673  59.0216255   1.8351825  87.2105122  58.2987022   1.6600858
  88.2764721  59.1528368   1.0080279  31.3716221  57.3777437  16.2002766
  31.6656232  56.6666842  15.6308973  32.1677065  57.6783419  16.6385925
  22.4710703  51.0193968  13.1247866  22.9621315  51.5759087  13.7292564
  21.5555835  51.1429596  13.3754778  90.9168053  50.7800865  81.0204887
  90.5579185  51.5533209  81.4558411  91.1551571  51.0867929  80.1456356
  95.5270195  29.1408348  92.7645969  95.2634430  29.5534873  93.5870838
  96.2892532  28.6102366  92.9963207   6.6747594  51.7705870  25.1745725
   7.4022937  51.6732931  25.7889509   6.4077556  50.8732033  24.9754810
  52.0487976  25.8061957   8.9976168  52.9904652  25.8808470   8.8429636
  51.6640377  25.7740307   8.1217420   5.6318480  64.9063444  14.1249359
   5.3606999  64.0128946  13.9140713   4.9020228  65.4531002  13.8340008
  65.1527739  10.0392640  84.0866280  65.7963562  10.1727366  83.3907700
  64.3287754   9.8854017  83.6244774 108.5327911  19.9452245  84.2644215
 108.9165211  19.1485083  83.8980484 107.7093601  19.6557093  84.6573162
  70.1790667  23.6724663  77.9881811  69.9541473  23.3163738  77.1286201
  69.6499300  24.4664669  78.0644226   6.4130080 106.6064167  19.2699051
   6.9332528 105.9253883  18.8435459   6.2971550 106.2929916  20.1668882
  26.7628455  52.2376251  29.0775967  27.3252082  52.7069044  29.6938396
  25.8769059  52.3654270  29.4167233   4.7297478  65.4738188  26.8514204
   5.2311766  65.3593206  27.6586938   5.3198081  65.1766634  26.1587715
  53.1697321  24.3008351  39.7385669  54.0411806  24.5488524  40.0472784
  52.5719595  24.6622658  40.3929853  22.8739953 101.0090351  25.5598259
  22.5204706 101.7329407  26.0767555  22.1034575 100.5113316  25.2863431
   8.0416554 105.4035950  21.7354321   7.4398106 106.1377335  21.8581271
   7.4746579 104.6616459  21.5250516   3.8332641 102.4901199  36.7625952
   3.2611841 102.1865654  37.4674463   3.5642686 103.3958244  36.6090560
   5.1771963  68.7228823  29.2885113   4.6234515  68.3941078  29.9966812
   5.6763202  69.4362593  29.6862507  80.9402943  28.7993956  84.5948505
  81.4391136  28.4797645  83.8430214  80.8252048  29.7345090  84.4258785
  31.6835690  70.3049994  12.4165559  31.8893123  71.2114525  12.1879852
  31.2524199  69.9535131  11.6375816  10.8599377  72.8702736  14.4881284
  11.5690303  73.1286144  15.0769246  10.6023180  71.9995785  14.7910309
  28.0498648  44.8366213  21.5539169  27.2587943  45.3226900  21.7866802
  27.9768586  44.0142202  22.0382237 109.5804977  33.1541681  86.0727882
 108.8954544  32.9145861  86.6969204 109.7482204  34.0806556  86.2451935
 103.4398651  98.3703041   4.7083497 103.2177162  98.0377579   5.5779994
 103.4293175  97.5958729   4.1458851  91.7491150 101.4611816  30.2278447
  92.3423672 101.3696861  30.9734392  92.2011280 102.0608425  29.6342850
  23.4054399  10.8677495  28.4227085  24.2073011  11.3436472  28.6389709
  23.6605453  10.2789152  27.7124786 101.0062122  98.1912804   1.3141203
 101.3402271  99.0880013   1.3378057 101.6667652  97.6773071   1.7786025
  51.2230349  -0.0485574  30.9234262  50.4844236  -0.6483334  30.8187556
  50.8288193   0.7636530  31.2414527  19.2155397  90.6927872  27.1735120
  19.1993284  89.7443676  27.3018169  18.3992183  91.0016346  27.5665307
   5.4709280  80.7523155  30.2058172   4.7026813  80.2034187  30.3631186
   5.2718920  81.2153625  29.3920565  89.4461346  44.3585730  86.4460564
  89.4810390  44.4213343  87.4005604  89.7479057  45.2133560  86.1386299
  34.7281051 103.5663605  30.7855368  34.8438978 103.2120991  29.9038768
  33.9510965 103.1204700  31.1226869 104.5540714  89.1323280   9.4315910
 104.5929813  89.9694157   8.9689904 105.2971745  88.6350727   9.0898705
   3.1765056 101.7500687  14.2700648   2.8048998 102.6228237  14.1418493
   3.1929609 101.6339493  15.2200532 106.7053032  41.7668295  93.1492996
 107.5009918  42.0990753  92.7336979 106.2244987  41.3406849  92.4397469
  78.6279297  20.5305648   9.9178272  78.9390802  20.0690150  10.6965375
  78.6090946  19.8609734   9.2340696   1.8558702  72.0722008  27.8632808
   1.3842325  71.2666178  27.6515603   2.4193680  71.8334532  28.5992837
  26.5018272  80.8021545  27.7096629  26.4859748  80.0423241  27.1277380
  25.5994844  80.8868599  28.0176115  23.8672161  77.0122433  40.0766659
  23.5924602  76.4489317  40.8001471  24.0606928  76.4062452  39.3614268
 104.3555355  61.0867023  69.6089983 104.5552444  61.9925976  69.3729782
 103.7408543  61.1593723  70.3391457  19.5186996  89.1079903  21.7724442
  18.8481641  89.7742367  21.6216540  19.0485752  88.3845425  22.1869755
 109.2710590  21.0882473  87.2738934 110.1959419  21.3348556  87.2711468
 108.8056374  21.9060636  87.4493790   6.5827298  44.3750238   5.8873814
   5.8702081  43.7537861   6.0377353   6.6626489  44.8522806   6.7132580
 108.3774567 101.0987759  10.7057798 108.8985729 100.3094006  10.5589211
 107.4756813 100.7830811  10.7639015  18.4514177  42.4628448  31.4684343
  18.0271471  41.6243410  31.6504765  17.7332652  43.0953836  31.4488316
  42.2852468  90.2026749  15.8834410  41.6779470  89.6603107  16.3866925
  43.0725431  90.2472878  16.4260316  10.4362214  73.3898115  30.2981448
   9.8048991  74.0167141  30.6512141  11.2886357  73.7996435  30.4453230
 105.3848934  44.0014219  76.6058207 105.9121609  43.2559061  76.8929338
 104.4816208  43.7375879  76.7810583  39.2911673  56.2838984  11.1837506
  39.8423791  56.5903044  10.4636729  39.8780227  56.2558365  11.9394255
  34.3057942  83.1593037  23.2107949  33.7325144  82.8716469  23.9213157
  34.2501521  84.1146851  23.2300162 102.1923351  92.0185947  -0.0481741
 101.2933064  91.8118763   0.2072510 102.7196884  91.7736626   0.7121795
 101.1247349  70.1520538  17.6532769 100.8932686  70.6444836  16.8657720
 102.0293903  69.8761511  17.5059712 114.9444771  92.0820904  21.9004750
 114.3300438  91.4080143  21.6100883 114.6387959  92.3242664  22.7746248
  11.1140072  16.4352965  14.7935271  10.5978060  16.5863001  14.0017152
  11.3402283  17.3124325  15.1028633   6.2121242  72.7442169  34.7943068
   6.3690412  73.5438776  34.2921567   7.0304054  72.2526217  34.7237229
  89.7437000  32.7537918  75.5586529  90.0987816  33.1114531  74.7448730
  88.8871384  32.4042368  75.3130007 112.4643326  68.9855528   3.9058018
 112.2499180  69.8401833   3.5318157 113.0876064  69.1799736   4.6057713
  34.8719764  20.7554889  19.1884315  34.3970966  20.2073169  19.8131144
  35.6657839  21.0174680  19.6547687  76.9031334  13.3442771  19.9556863
  77.2077417  14.1820300  19.6069527  77.7035999  12.8863049  20.2121019
  93.6098385  40.4862261  94.4956684  94.2481136  41.1238575  94.1758919
  93.8842487  39.6563315  94.1055298  85.9199810  24.2541146  63.8534403
  85.5753708  23.4096122  64.1437626  85.2929497  24.5554328  63.1959677
 106.1094856  72.1823597  23.9155364 106.7656612  72.6666927  23.4144592
 105.9845924  72.7006626  24.7105145  98.1036854 100.6633854  14.0428567
  98.0827236 100.0887489  14.8080945  97.4589252 101.3438225  14.2365468
  70.0108099  17.4091887   3.3023283  69.4909906  16.6087127   3.2298240
  70.8972454  17.1026492   3.4933758  82.0499706   4.0111822  78.6105299
  81.7115498   3.6309397  77.7999020  82.9008293   4.3758661  78.3670664
  88.6835766  67.8509903   9.1587406  89.1525555  67.8716803   9.9929237
  88.8613033  66.9792414   8.8056141  42.8776073  81.3814068  93.3689880
  42.0135403  81.7481804  93.1816769  42.7576065  80.8880329  94.1804123
 100.8542728  62.2866249   7.1864444 100.8608341  61.3749409   6.8948597
 100.2431107  62.7234268   6.5932214  37.6129746  21.7954421  35.2755046
  38.1915307  22.4386549  35.6851172  37.8796172  21.7845678  34.3562579
  29.0878773  12.5196254  62.8623629  28.5632944  12.0055985  62.2485065
  28.9538455  13.4274697  62.5901747   9.7205693  80.8347130   8.1647784
   9.3486792  81.6452599   7.8169918  10.1785338  81.1036873   8.9611185
  31.2551260 102.2733593  85.8922768  30.4628396 101.7793846  86.1032391
  31.8897796 102.0029449  86.5558434  25.2016664  85.9864521  35.2181625
  25.8364987  85.3335094  34.9233866  25.0033498  85.7372379  36.1208224
 100.8253002  96.2176514  13.3703423 100.8954620  96.9511032  12.7593124
 101.1717319  95.4683208  12.8858638  22.4964595 100.5179310  19.9019408
  21.9800687 101.1557388  20.3946614  23.0759072 101.0493660  19.3560040
   8.8421512  89.9218369  32.9384065   9.3707258  90.6927395  33.1447029
   8.1877214  89.8864651  33.6360455  15.4020774 106.0995770  11.8370700
  14.5050657 105.8913326  11.5758491  15.4128110 107.0533276  11.9175422
  35.6932950  15.6305563  36.5849972  34.9801517  15.0060380  36.4522052
  36.4661336  15.0844979  36.7291260 114.8113728  34.1774893  91.4341164
 115.3636265  33.3978558  91.4925861 113.9302158  33.8359690  91.2819099
   3.7897369  71.1915207  21.6896510   3.2614335  71.1144876  20.8951735
   4.2743933  72.0091820  21.5766573  31.9193387 108.9934254  21.3093138
  32.2415113 109.5462227  22.0212483  32.7035975 108.7631893  20.8111572
 105.2764225 100.6004143  26.0230899 105.6152344  99.7088718  26.1043215
 104.3259907 100.4929924  25.9860730  66.8569088   1.6328068   2.7129853
  66.2106848   1.4734308   2.0250690  67.4823952   2.2402182   2.3179534
 109.0174389 100.4233932   4.1465488 109.2603588 100.8537865   4.9662971
 108.5829544 101.1071110   3.6366594   9.7438955  72.8913355  34.7760653
  10.2858996  72.6846838  34.0146446   9.4412494  73.7857389  34.6189857
  18.1493556  72.7662039  33.1094527  19.0614462  72.8298903  32.8261399
  17.6458418  72.7562952  32.2954464  93.5856819  47.8554392  82.0082283
  94.1379356  48.5306787  81.6141415  93.3642578  47.2729588  81.2816525
   5.2303743  96.1725807  10.4558098   4.7071999  96.5607166   9.7544789
   5.3951395  95.2760696  10.1636338   2.9277506  67.1763182  23.9879727
   3.0107692  67.7164030  24.7738767   2.4929759  67.7442789  23.3518720
   9.1709596   1.9913124  56.3700914   9.2079085   1.7848830  57.3040390
   9.9473101   1.5703815  56.0008621  96.9185543  77.8342581   7.0181006
  96.2118435  77.3692226   6.5702796  97.6389503  77.2046423   7.0470041
   3.1629369 104.8762417  35.7387567   2.3290709 104.8417854  35.2700210
   3.0897143 105.6471157  36.3014460  85.8261967  14.7284114  76.3147020
  85.9690094  15.0554192  77.2029018  84.8828316  14.5740545  76.2650919
  17.9037774  95.7969189  31.3654447  17.2731173  95.4040718  31.9689107
  17.3723912  96.1073971  30.6323242  84.9078655  33.5534310  93.9346123
  85.1261234  34.4854069  93.9385223  84.7142315  33.3566308  93.0180931
  26.5864611  44.9511003   8.3863693  27.3385239  45.4843712   8.1289625
  26.2356567  45.3899860   9.1613203   0.0482498  87.9070187  16.4637172
   0.7322991  87.3118496  16.7704475  -0.2444768  87.5285244  15.6346905
  18.8508880 108.7530994  93.4378242  19.1854775 107.8667927  93.3009338
  18.1853867 108.6553574  94.1188431 115.6899357 101.6332531  16.3429296
 114.9640656 101.7036819  15.7229400 116.1218834 102.4865532  16.3039351
  94.1617203  98.2739162  39.8779011  94.1073799  98.0855846  40.8148146
  94.8091507  97.6520348  39.5457458  76.1641359  10.3777647  91.1471462
  76.1083460   9.6410060  90.5386162  76.8304729  10.1142824  91.7818069
 112.6311588  55.1905727  80.2308559 112.7211380  55.6276035  81.0776997
 112.4311638  54.2807388  80.4509258  97.4540043  78.9358139  43.8334513
  96.9039631  78.1559467  43.7593555  98.0649662  78.7316132  44.5414495
  85.9708500  89.4618320  63.7904358  85.3153419  88.7648869  63.7619495
  85.7586384  90.0209141  63.0430222  29.4163489  89.6190357  33.4770894
  28.9613938  89.4386196  32.6544738  30.3188682  89.8026562  33.2163668
  78.3868170  22.3522663  93.1998062  78.4379768  22.2071242  92.2550583
  79.1813660  22.8428650  93.4101200  27.0743227 107.5627327  29.7562361
  27.1734285 108.4590244  29.4351673  27.4957561 107.0212650  29.0888262
 115.8979257  87.5853920  33.8278246 116.1833638  87.3421383  32.9471540
 115.4382742  88.4166336  33.7095666 103.1933308  76.5334082  91.5873623
 103.5808659  76.9391870  92.3628521 102.3766041  76.1462402  91.9024658
  85.2354336  49.0949011  93.1908321  85.9902763  48.5066319  93.2102394
  84.4787312  48.5168695  93.2883930   7.6532376  94.3066120  13.7902379
   7.4481219  94.0298462  12.8971779   7.0405674  93.8173389  14.3393040
 105.4593658  86.9765282  15.5514586 105.8070183  87.7020264  15.0327861
 105.9439182  86.2097454  15.2456987 106.3433838  99.3519402   5.0656313
 107.0242119  99.4599915   4.4015354 105.6889915 100.0157356   4.8479730
  38.2880545  76.6760445  18.9960635  38.0066681  77.5581121  18.7531555
  37.9835796  76.5671015  19.8969841  56.1342049  11.2470531  80.8299732
  55.7919502  10.6442738  80.1698589  56.9307375  10.8240080  81.1505985
  98.7895298  51.8414640  81.6695595  98.1017494  52.4009466  81.3087749
  98.7775421  51.0603046  81.1164951  94.9907684 105.4958153  31.4260221
  95.8393097 105.0539684  31.4575076  94.9330425 105.8403111  30.5348301
  12.4547470  84.3288708  13.4742570  13.1992471  84.8632622  13.1978905
  12.7531159  83.8985729  14.2755353   7.4206018  69.6374321  24.4150949
   6.5895057  69.4607067  23.9743233   7.6221555  68.8257217  24.8806429
 107.0552444  83.8639545  38.3237576 107.3778343  83.9067459  39.2239451
 107.4187183  84.6424675  37.9018188 105.8052444  73.3266306  11.9595098
 106.2126160  72.9825211  11.1646080 106.5377140  73.6538744  12.4816453
 102.6035309  19.4049335  83.9332294 103.5066128  19.4733381  83.6233902
 102.1067238  19.9811244  83.3523560  10.9146333  89.8803711   0.1546838
  10.6890726  89.2484665   0.8373567  10.3880322  90.6528950   0.3599429
  81.8696976  77.6197338  10.4360974  81.9431877  78.5134077  10.1011717
  82.4157619  77.0979214   9.8480898   2.7344206  91.4947414  34.9692202
   3.2951257  91.7523384  35.7009864   2.3785868  90.6446075  35.2278423
  68.7831211  21.4787197  91.7065048  67.9810238  21.6914320  91.2294006
  68.9320278  20.5511260  91.5231323 105.4719830  95.4324245  23.0499554
 104.6717167  95.0842381  23.4431195 105.5963707  96.2822056  23.4725904
  32.5862384  15.1456857  27.2272325  31.7014670  15.4391038  27.0097065
  32.6001883  15.1156008  28.1838584  28.7760663 106.8325901  11.4938021
  27.9450560 106.5887260  11.0861504  29.3009758 106.0326767  11.4646757
  74.8388147   1.4626120  21.7516994  75.4693937   1.7686591  21.0998297
  75.0513697   1.9589852  22.5420570  23.9296603  60.7731915  16.2863219
  24.4233799  60.0083017  16.5819907  23.0180240  60.4814911  16.2785947
 110.5593300  94.8007965   9.5969349 110.9292603  94.1955853   8.9542067
 110.3860188  95.6007290   9.1006422  59.5505524  32.5790858  33.1308627
  59.5356226  31.9372225  33.8408065  60.0502443  33.3151960  33.4839654
  18.7101388  40.5834818  11.9616163  19.1205883  41.4449883  12.0362628
  17.8167629  40.7681131  11.6717494  97.2422886  41.3121653  87.4748135
  96.9493961  41.6669703  88.3141899  96.5573406  41.5649891  86.8558121
  99.2657280  89.7323036  12.3636556  98.5727882  89.9670792  11.7464399
  99.9935341  90.3117657  12.1384156  64.5068836   4.7783887   3.8604027
  65.0104380   5.0840217   3.1059128  64.4337893   5.5466408   4.4266874
  45.1705027   6.8597287   5.0711989  45.6464005   6.2810433   5.6669152
  45.7804298   7.0150948   4.3500283  76.1429548  83.2363701  90.8247375
  76.7597389  82.6382446  90.4027748  76.3676500  83.1955814  91.7543030
  15.6307554  97.7348232  52.1420622  15.3605998  98.4491348  52.7191305
  15.1125848  97.8601551  51.3470602  75.0612783   0.4305236  26.2118673
  74.4858885  -0.2041295  25.7848191  75.8500814   0.4414066  25.6697392
  70.6417942  57.4140501  94.4478035  70.2751589  57.8109455  93.6576939
  70.1083946  56.6326046  94.5929337  24.7140765  91.9854736  43.8888168
  24.3239880  91.1668301  44.1952229  24.2239690  92.6696968  44.3447304
  38.4346366   5.3455949  12.5561404  39.0724373   4.8514786  13.0712068
  37.7069068   4.7370574  12.4283862   7.5355375  88.3543205  43.4655380
   8.4521800  88.1468201  43.2840443   7.1300876  88.4240532  42.6012611
  97.6399803  56.7757034  74.1386652  96.8451691  56.2850475  73.9294529
  98.3469296  56.1369419  74.0468168  23.4327841 107.0100117   3.8422751
  23.1152582 107.1750450   2.9544848  23.8173819 107.8421688   4.1176513
   3.1714693  71.5253353  46.5338802   4.0830928  71.6775274  46.2848568
   2.9540023  72.2601223  47.1074867  12.8365195 106.2453270  15.2966535
  12.0114744 106.4851665  14.8747396  13.3732295 107.0358658  15.2398908
  15.3378570  10.6395674  26.5218616  15.3970921  11.5822399  26.3666439
  15.0997114  10.5634677  27.4458361  31.6877651 100.1910782  26.2153053
  31.3850784 100.4271698  25.3384542  31.2725830  99.3470764  26.3928342
  20.1000667  51.6156673  86.4372921  19.4989347  50.9844446  86.8328094
  19.7680008  51.7378235  85.5478859  13.6062765  92.6785374  34.0907001
  13.1084669  93.4163570  33.7385035  14.3152487  92.5457859  33.4614420
  98.0692863  20.0821614  22.0543051  97.5627232  20.8879781  22.1557426
  97.9107761  19.5961404  22.8635597  20.5135107  99.9225903   2.4672234
  20.1894522  99.1292477   2.0408012  21.4654326  99.8680305   2.3829500
  43.2247829   5.7679617  35.4223275  43.5525274   4.9487841  35.0511599
  43.9962912   6.3319397  35.4765320  38.8467336 108.7670040   1.5010758
  39.0966034 108.3404064   0.6814358  37.9480672 109.0616894   1.3534483
 112.2986507  38.8736725  92.7216530 111.3661861  39.0896320  92.7309608
 112.4321556  38.4245133  91.8869877  11.2524426  58.9505291  16.7982602
  11.4092791  59.7276926  17.3345876  12.0826554  58.4745073  16.8177998
  18.8220561  88.2180119  28.2809734  18.0013025  88.5984039  28.5938478
  18.7920475  87.3079109  28.5760164  74.6742964  34.6696043  85.3061485
  73.8436317  35.0617290  85.5753422  74.4963455  33.7296224  85.2746010
  54.3494034  24.5499301  35.5829072  54.5063210  23.6232877  35.4014111
  53.4287739  24.6853805  35.3585672  59.4904470  10.9164655  55.8239412
  59.7046185  11.2194288  54.9415731  58.8300085  11.5351284  56.1358786
  10.5917275  99.5492744  10.2404583  10.9804857  98.8470459   9.7189504
   9.8665941  99.1301632  10.7038748  61.5140152   8.0137724   7.5249314
  61.2156916   7.1048069   7.4930382  60.9113836   8.4839934   6.9487709
  43.2866287  10.8404779   9.9684322  42.3705292  10.6123388   9.8104864
  43.7756300  10.3269136   9.3255007  28.6099982  84.6949673  17.0606816
  29.5093393  84.4068718  17.2169471  28.6533785  85.1787853  16.2358975
  32.4808121  87.3312569   2.4785613  32.5270581  86.3795090   2.3876211
  31.6480970  87.5705528   2.0716766  84.1062832  28.6618257  84.4611168
  84.8501396  28.0607367  84.4211960  83.6474991  28.5305929  83.6313438
  29.7920132  95.4823112   2.6247814  30.3034639  94.9767113   1.9931076
  28.8814497  95.3319740   2.3708008  21.1038876  95.9432125  11.6402185
  20.4378939  95.2727318  11.7923260  21.5392852  96.0446739  12.4866045
   8.5312402  64.5249844  92.7532578   9.2940944  65.0356913  92.4822235
   8.7911922  63.6142397  92.6146889  25.2715659  80.6451893  17.7114594
  25.9175444  81.1681557  17.2366476  25.5519962  80.6903267  18.6255455
  94.7014904  20.3261328  66.6764212  95.0359917  19.4341981  66.5826511
  95.4847717  20.8655357  66.7847729 115.1268196  78.9999580  14.6566117
 115.9035301  79.5301867  14.4782698 114.4765568  79.3077564  14.0252209
  62.9995108  29.9989200  93.7260056  63.8003254  29.6386528  93.3450317
  63.1683111  30.9386659  93.7939358 114.0140057  44.0799046  88.3637333
 113.1841660  43.7284422  88.6863327 113.7864399  44.5156002  87.5423813
  89.0485573  38.2167935  87.8841496  88.5875607  39.0284896  88.0959511
  88.3520794  37.5889874  87.6917744  25.6312990  98.5949898  19.1778433
  26.1607099  98.9685154  19.8824239  24.7297001  98.6689281  19.4907057
  66.2391090   2.8178096   5.2806419  66.9062996   2.5634214   4.6431673
  65.5541945   3.2340631   4.7573286  13.9825487  89.4118404  33.7099385
  14.9353290  89.4084930  33.8017464  13.7065625  90.2378654  34.1071272
  92.1629238  42.8582764  57.5928545  91.7892456  42.0340157  57.2810936
  91.4091301  43.3620214  57.8998804  17.4657655  96.7920494   9.6509230
  17.0325541  97.0781136  10.4551160  17.5909507  97.5963020   9.1471928
  36.0218310 107.7425194  21.3477302  36.6412163 108.4458923  21.5423250
  35.2240825 108.1949234  21.0735726   7.7360368  82.9915142  37.7045083
   8.1859452  82.8334522  36.8745518   7.0599401  83.6348248  37.4917197
  17.4886167  84.6463680   0.5059967  16.7091870  85.2003574   0.5486527
  17.7008593  84.4607067   1.4207189 106.5580940  72.4978209  80.3694820
 107.0269871  71.7162704  80.0769806 106.0668087  72.7845287  79.5996284
  40.1203299  19.4976604  13.3802760  40.6245279  18.7195039  13.1426108
  40.6995964  20.2309370  13.1729388  26.5361953  96.5846729   1.7667969
  26.7931437  96.7465115   2.6745510  26.5749788  95.6328773   1.6729520
   1.8053889  91.7907906   9.9726969   1.6535988  92.6752281  10.3057909
   1.8403922  91.8956661   9.0219033  75.7746935  37.1713662   8.1193244
  75.8815622  36.5094209   8.8024354  74.8851252  37.0368433   7.7925235
  91.1406612  42.7672100  91.7183876  91.7650604  42.7143574  90.9948158
  90.8470535  43.6782646  91.7153168  24.0889382  60.5551291  34.1023159
  24.1739941  59.8008537  33.5191703  23.4790301  61.1389637  33.6513352
 112.8766632  93.2246876  88.1408024 112.7457047  93.0342197  87.2119236
 113.8022137  93.0360699  88.2958031  35.4500699  55.8881998  18.2952750
  35.5471015  56.1248016  19.2176831  36.0753441  55.1754808  18.1637669
   4.6240830   1.9712844  11.8406713   4.5771447   1.9120288  10.8864605
   4.5556381   1.0648647  12.1405876  18.5279632  53.9642859  25.9110689
  18.0918694  53.2430887  25.4572701  18.1776583  54.7536993  25.4983425
   7.3611873 108.3971310   9.1980475   7.7886575 107.5617599   9.3868524
   6.4884508 108.1549835   8.8883257  23.4946418 100.7420731  40.8938837
  22.6579881 100.2875900  40.9922934  23.4663296 101.1071301  40.0094843
  42.3687124  26.7503667   2.8659460  42.3788786  25.9512305   2.3391536
  42.7680540  27.4134946   2.3029000  47.3731136   4.3365300  35.1007891
  47.7084827   5.1500320  35.4775810  46.6119003   4.6064711  34.5870519
 100.5081177  93.0137920  59.2220259 101.4399433  92.7970409  59.2528582
 100.1543427  92.6671219  60.0411081  42.5404215  10.8815515  20.7017660
  41.9225025  10.7769465  21.4252758  43.3810377  11.0505271  21.1272621
  46.2827206  67.0610189   4.1297036  45.5393505  67.4157333   4.6173680
  46.1879730  66.1115646   4.2057577 106.0148144  79.8226690  72.3172569
 105.1810932  80.0792599  72.7113485 106.4758778  80.6489944  72.1729040
   5.4947209  86.1571598   4.1812950   5.5180693  85.2410698   3.9047673
   5.3983068  86.6508007   3.3668885  81.4726162 108.3995247   3.0112764
  80.6596470 108.0381680   2.6580989  81.9182110 108.7741375   2.2514416
  13.4863639 103.2326984  18.6369109  13.4314072 103.3606911  17.6899004
  14.4245124 103.1690025  18.8159490  31.3736320  32.0016861  71.0432243
  32.2167873  31.7824841  70.6466532  30.7377481  31.4722133  70.5620337
 113.5266209  58.0733061  86.9645882 112.6836777  58.4598732  87.2017574
 113.3300495  57.1504593  86.8034840  22.7986741 104.5522976  20.6485820
  23.3492661 105.3351784  20.6354833  22.1203995 104.7255516  19.9957764
  29.5232725  13.9897788  22.0709324  29.5712304  14.1085827  23.0195212
  30.4361725  13.9897549  21.7830968  48.6515188  97.2230339  14.8017120
  48.1255627  97.9950523  15.0104702  48.5973692  97.1467686  13.8490939
  45.2330399  29.5577765  56.7534971  44.2893028  29.4345307  56.6515303
  45.6224871  28.9756489  56.1010504  68.0019140   0.4298100  40.2697420
  67.6093769   0.6715591  39.4308710  67.3760605  -0.1802402  40.6600952
 106.9035625  14.6632791  35.5508399 105.9501934  14.7331798  35.5013657
 107.1922493  15.5278039  35.8432198  73.8820028  73.8472128  93.3394527
  74.2587328  74.7191620  93.4578419  73.3509779  73.9213800  92.5465202
 102.8509045  89.7501659  18.3308113 103.1396961  90.5739784  18.7234569
 103.5532856  89.1309547  18.5294855  30.6574440  97.4653149  26.0973835
  30.4830027  97.3318768  27.0290446  29.8079944  97.3400688  25.6743193
 103.3484936  83.8950539  42.9331970 103.8999653  83.8998795  42.1508360
 103.4591961  83.0173969  43.2988453  37.6760173   1.1234462  22.2806835
  36.9300032   1.1440443  22.8800774  37.7392793   2.0180655  21.9461894
  92.0875931  87.1384048  29.7351170  91.5685749  86.4801788  30.1972795
  92.6793861  87.4878597  30.4013658  25.2220726 100.2359104  17.1073878
  25.2751160 100.8147907  17.8678584  25.0200558  99.3754959  17.4749637
  20.7701397  78.2471180   6.2783635  20.9010696  77.9408407   5.3809863
  19.8899019  78.6231613   6.2770706 109.5852852  76.0833454  85.1385307
 109.3204021  75.5978441  85.9197807 110.1358604  76.7917919  85.4720020
  81.0669804  23.8851523   3.7249699  81.6479969  23.2668853   3.2818031
  80.1965427  23.4949446   3.6454898   7.5624740  93.7897396  10.9885085
   6.7575616  93.7004852  10.4782319   8.2554233  93.8618755  10.3321183
  71.1084890   9.7361439  25.1069903  71.8883753   9.3791485  25.5319190
  71.1503935  10.6765342  25.2806044  98.0137539  57.4864101  81.2685013
  98.8090515  56.9550037  81.3050938  98.3022690  58.3247805  80.9077740
  76.7118120  20.5226636  14.0580118  77.4228287  21.1324000  13.8607621
  76.4743710  20.1490021  13.2093465   3.0335343 100.3817177  44.8724413
   2.5851318 100.6690025  44.0770578   2.7883798  99.4612312  44.9664211
  20.3225899  87.6115322  32.0196652  20.2123833  87.0120430  31.2816310
  19.4857705  88.0721760  32.0810819  39.4897437  95.1939487   4.8346308
  39.7600961  94.5509148   4.1791600  38.7688255  94.7714520   5.3015381
 110.6082058  78.9637327  42.5178480 111.3440514  79.4164562  42.9299259
 111.0167122  78.3136988  41.9461775  21.2667370  86.6746044  21.3429546
  21.6388798  85.7927322  21.3495898  20.4207110  86.5808487  21.7807746
  51.5007544  27.5537133  16.9752336  51.8617582  28.1465745  16.3161266
  52.0176744  27.7269387  17.7620101  88.1117630  51.8366337  89.6778679
  87.3366356  51.5957117  89.1705608  88.4964180  51.0000372  89.9393654
  18.8058591  14.1857493  89.0282917  19.5384657  14.1272593  88.4150219
  18.9710832  13.4910750  89.6657562   0.5830617 104.9557495  25.0029230
   0.9923833 105.6324673  25.5421281   0.2454462 105.4277325  24.2416835
  50.2108812  95.4692268   0.5848662  50.2165604  95.3833961   1.5381941
  49.4694710  96.0459614   0.4007187  65.6880569  11.8298447  13.5201287
  64.9268341  11.2499130  13.5413277  66.4227390  11.2699974  13.7712145
  97.1245766  36.8161941  87.5018692  97.6099014  36.6119504  86.7025089
  96.6844082  35.9975600  87.7305984 101.2863827  48.1033134  88.8213539
 100.8373260  47.5919151  88.1482601 100.9015656  48.9772177  88.7547112
  10.7144153 105.4132557  20.2280164   9.9074805 105.0843811  20.6241608
  10.9063470 104.7926235  19.5250118 104.0469074  66.2099934  91.8599033
 104.1184902  67.1156979  91.5585613 103.2874012  65.8615541  91.3930321
 105.7392502  89.8839664  49.4686985 106.5614986  90.0299263  49.0008974
 105.3855228  89.0808487  49.0864563  55.8700037   7.6829618   3.5107619
  54.9865913   7.4973631   3.1923813  56.3721228   6.8968761   3.2958663
 105.3144836  55.3109837  90.6113529 104.5956516  55.5529642  91.1952686
 106.1007595  55.6294966  91.0546875  38.1496167 108.9832401  59.3171501
  38.2781148 109.7464371  58.7539005  37.8044987 108.3090115  58.7318754
  20.8710051 106.9001484  23.5184097  20.8771658 106.1138916  24.0643024
  20.0005817 106.9084740  23.1202555  62.2575092  21.6100979  13.1859207
  61.8765736  21.9237781  14.0061200  62.0028353  20.6885147  13.1405771
 113.1876564  90.3415680   5.7796770 113.7460423  91.0092068   5.3813028
 112.3542023  90.4181194   5.3152239   5.7304430  50.6616354  70.2420139
   6.1539787  51.1406469  70.9543324   4.7949266  50.7231712  70.4350281
  21.4770699  83.7295532   1.5425505  21.8504667  82.8602982   1.3969752
  20.9339452  83.6290741   2.3243114  22.4196672  90.6737041  14.3449318
  21.9479847  91.0806179  15.0716829  22.1901822  91.2054348  13.5828090
  13.2437956  97.8810310  17.6444554  12.6977837  98.6531258  17.7927125
  12.9468727  97.5357914  16.8025088  68.6077261   9.1287166  16.7561901
  69.0188122   9.1828281  15.8934534  69.2161036   9.5815223  17.3402095
  71.0662508   3.1693882  15.1808321  71.9199419   2.9181102  15.5333972
  70.7667398   2.3952857  14.7040820 102.6194859  97.3814774  15.0043249
 103.0386925  96.8708134  15.6969440 101.8448639  96.8719387  14.7664785
  11.5234554  89.5715523   8.8484907  11.6219652  88.9940357   8.0915195
  11.9950712  89.1262817   9.5524400 109.3525791  77.0420742  39.2091441
 108.9840698  77.3004818  40.0539255 109.5008564  76.0999441  39.2906284
  15.7986057  70.6010437  19.1793811  15.2367878  70.4043293  19.9289775
  15.4003215  70.1256561  18.4502673  73.9036608  18.5149944  65.8452129
  73.2283926  19.0801299  66.2205410  74.7273922  18.9571357  66.0506582
  49.7825098  32.1942019  76.8842030  50.4977751  32.6968431  77.2740459
  50.2157068  31.5865660  76.2847471 115.1827335  43.0985880  81.6973782
 116.1076260  43.2832241  81.8608189 114.8268795  43.9260960  81.3736057
  20.5243373 108.0232239  29.2228198  21.2302613 108.3380508  28.6582065
  19.7250712 108.1930542  28.7242579  61.5530205  12.2617948  28.8555336
  60.8239746  12.8148925  29.1362548  61.8754435  12.6780117  28.0561328
   2.5152060  94.1096401  30.2860975   2.5807646  93.5028362  31.0234690
   1.5746510  94.2428112  30.1683903 111.2419128  61.3374233  27.5323033
 111.6022491  62.1174145  27.1104026 111.3747406  61.4883375  28.4681511
  13.0956376 108.0788803  26.1164236  13.9372778 108.2187557  25.6824756
  12.4520397 108.4606266  25.5195308  79.7487783  30.7017636   7.6453054
  78.9173317  30.2334929   7.7204925  79.6748924  31.4229083   8.2703829
 115.7037067  78.7279749  29.0614271 115.3089809  79.2395544  28.3552337
 116.1759567  78.0260611  28.6136270  61.4545202   7.7281523  12.6711452
  60.8343887   7.7181190  13.4002304  60.9134531   7.5855476  11.8945217
  72.7596140  32.4497747  33.9598823  72.7782249  32.0011187  33.1145477
  73.6711311  32.6926756  34.1222405  46.4820862  51.7770529  16.6369998
  46.5253973  52.2942734  17.4412608  46.6677380  50.8810997  16.9181347
  35.9596848  29.3479085  93.0298901  35.8653879  28.9025998  92.1878433
  35.6629157  30.2423859  92.8623486  61.9553757  42.5672436  45.6865978
  61.1619616  42.3084021  46.1553526  61.6560841  42.7620649  44.7985125
  17.4105668  22.7920222   7.0790023  17.5597990  22.5902128   8.0027092
  17.0512438  23.6792111   7.0826870  97.0456219  66.6715240  87.0959282
  96.9346142  66.2052345  87.9244709  96.9066620  66.0034752  86.4246368
  50.4738855  37.3057890  38.2615638  49.9701881  37.1387553  39.0581918
  51.3836098  37.1526575  38.5168743  87.8791809  27.5717402  10.7309556
  87.6019669  28.1678247  10.0352061  88.7493134  27.2774839  10.4616714
  40.5928516  84.1004181  18.9339566  39.7873759  84.5327091  18.6501312
  40.2938032  83.3504963  19.4481814  60.1998425   2.7111635  27.5517845
  60.1323175   3.3262703  26.8215013  60.4909897   1.8928358  27.1495342
  94.8467636  62.2111511  81.1690903  95.5109692  62.3503017  80.4940319
  94.5814419  61.2980175  81.0594273 115.2415466  97.9069614  10.2007914
 115.1158524  98.7078762  10.7096839 115.8588791  98.1548977   9.5125556
  65.3283787   1.3338408  28.8104177  64.5614195   1.0860631  29.3267584
  65.4847717   2.2502309  29.0384579   1.4869499  56.0070324  67.9392767
   1.3228963  55.1084805  68.2254982   2.1575612  55.9238005  67.2613525
  66.6729546  31.0255790  17.9739058  65.7526350  31.2883377  17.9880929
  66.7484760  30.3796601  18.6762726  24.6508169  33.6818147  22.4942875
  25.3422904  33.0208087  22.5284886  23.8478804  33.1812191  22.3496222
  72.8062201  32.8802395   3.1070483  73.0042076  32.8705597   4.0434977
  72.3310471  32.0634794   2.9542479  88.9021587  68.7949562  80.0619316
  89.3206406  69.5926952  80.3855324  89.4466591  68.5213614  79.3237638
  63.5006428   5.8011138  15.4019439  64.2315865   5.5089080  14.8573685
  62.8872442   5.0663280  15.3938782  73.5199642   4.1978842  22.7074957
  72.6809835   4.5180240  22.3760533  73.4764814   4.3458435  23.6521912
  82.7264404  30.4463220  37.8784418  83.6678314  30.2765512  37.9129291
  82.3878098  30.0854230  38.6977768  42.7860212  86.3996315  34.9398422
  43.3037519  86.9429207  34.3456817  43.0561209  86.6774750  35.8151031
  82.0330334   4.4011304  19.0429723  81.4138126   4.7852856  19.6636355
  82.6885319   3.9722127  19.5930445  25.9727573  31.3630605  92.0710278
  26.5961599  32.0843887  91.9856930  26.4758825  30.6587648  92.4797630
  67.0585871  20.2319193  41.5851927  67.6280689  19.9319279  42.2936630
  67.5964737  20.8507466  41.0912657  59.8154259  25.5524087  34.3291950
  59.0209150  25.3815556  33.8234305  60.5067348  25.0942206  33.8512897
  77.5012398   6.0514468   3.1070077  77.0502806   6.8017256   2.7197719
  77.7193356   6.3351727   3.9947951   6.1330217  73.6704588  13.8594520
   6.1653250  73.2896280  12.9818666   6.9435894  73.3790970  14.2769670
 108.0860901  54.1373873  92.6465416 108.0724907  55.0920200  92.5777817
 107.9789639  53.8308430  91.7461014 108.9168930 100.2527142  22.3360634
 108.1323433  99.9294376  21.8931150 108.9857769 101.1677837  22.0637846
  25.0559855  34.3040395  15.8396721  24.8441839  33.6909103  16.5435481
  24.4266343  35.0173783  15.9459579  41.5413475  94.2215252  41.9473410
  41.4761066  93.2726765  41.8393421  41.8111324  94.3409443  42.8579426
  56.6762924  91.4565372  12.8062153  55.7369661  91.3259792  12.9360449
  56.7408943  92.2973251  12.3532927  95.3635502  27.1941924   6.8499726
  95.4782677  28.1044245   6.5769351  94.7619057  26.8243337   6.2038612
 104.0190697  66.2487221  81.3644028 103.5131931  65.5472136  81.7745304
 103.5436058  67.0489264  81.5876579  52.9485178  23.9266753  11.1924613
  52.4644470  24.7255063  10.9832275  53.7543535  23.9938354  10.6802583
 110.5775166  71.0137558  22.9103661 111.1380959  70.5512571  23.5333204
 110.9122562  70.7576275  22.0509601  26.4531136   2.6722094  91.2586403
  26.0812497   3.2994920  91.8786907  25.9039378   1.8932784  91.3475513
  60.0869942 107.5485134  23.4610868  59.5308971 107.3284340  22.7137232
  60.3975201 108.4347820  23.2758045  24.5466924 103.4723568  10.1599324
  25.1159835 103.8956165   9.5172918  24.0739989 102.8070641   9.6597540
  38.3705115  20.9047413  11.3625467  37.7617264  20.2687168  10.9869266
  38.9328885  20.3867841  11.9384682  19.4183373  91.2235928  17.4670923
  18.5344863  90.9933090  17.7534604  19.9667966  90.5047321  17.7812040
  91.1511421  57.7487946  89.5870495  90.6601620  57.8799582  90.3981972
  92.0160866  58.1164694  89.7685051  56.8076563  12.3692167  20.9222031
  56.9750690  13.1041706  21.5121603  56.9758034  12.7207720  20.0479221
 101.9858456  55.3533268  88.4169579 101.6455936  54.7866678  87.7245998
 101.8475914  56.2418365  88.0888271  90.4594612  77.7574921  89.3484879
  90.5712414  77.4811840  90.2580929  90.8220768  77.0370436  88.8330364
  43.9757538  12.5356948  37.5841355  44.6228600  12.8384984  36.9471121
  44.1452599  11.5975702  37.6702857  76.4943314  55.0600481  20.2059078
  77.3517895  55.4221869  20.4292011  76.6843843  54.1841078  19.8699880
  43.3870602  19.7390831   7.5305182  43.3205318  20.6435323   7.2242838
  42.7755594  19.6893919   8.2652503  58.6044788   5.1125395  10.2977872
  58.3067560   4.4436207   9.6812326  58.2426596   4.8392990  11.1407924
  10.4844677 108.8007069  17.1251762  11.1204302 109.4851780  17.3332155
  10.4039669 108.8303185  16.1718273  37.9246378  60.4111099   1.6199467
  36.9891119  60.5901194   1.5252031  38.3365965  60.9099531   0.9144838
  98.8451004  50.3675365  91.7569637  98.0461693  49.8415279  91.7923069
  98.5348701  51.2684584  91.6657352  68.2084894   0.5463089  28.4953833
  67.3474884   0.8844367  28.7415147  68.8283682   1.1082983  28.9603019
  57.8638315  13.8562524  31.1239791  58.7852764  13.7980974  30.8714151
  57.3864079  13.5118341  30.3692102  48.1300354  96.4971924  24.0443397
  47.4526644  96.0950089  23.5006094  48.4522295  95.7823467  24.5933604
  90.5394840   5.5080014  11.4404082  89.9523163   4.7977898  11.1814296
  90.7650852   5.9439451  10.6186485 104.4501877 100.0391960  76.9495153
 104.2909908  99.3069553  77.5450945 104.3291473 100.8191109  77.4911022
  38.7341094   7.9305393  17.0620024  39.1745424   8.2592934  16.2783110
  37.8031349   8.0731297  16.8911529  25.9408951  65.3715086   4.2157316
  25.6485152  65.7728434   3.3973944  26.4025450  64.5788574   3.9422077
  66.4672470  12.2980273  41.8142223  65.6001377  12.6400304  42.0319128
  66.9281626  12.2627699  42.6524019  76.3746119   8.9933497  43.0116224
  76.5805912   8.0595082  43.0533743  75.8660793   9.0906894  42.2065401
  18.0417812  20.8728552  20.1490021  18.5560334  21.0909796  19.3717003
  18.4363675  20.0653720  20.4784036  44.3187952  17.1826816  15.3465831
  44.7416973  17.5305307  14.5614803  44.4722509  17.8489721  16.0164642
 104.3256474  37.4926925  69.8939037 104.7179604  36.9349551  69.2221498
 104.9095440  38.2492375  69.9480581 100.9378719  91.5147781  93.4931564
 100.8993721  90.7732105  92.8891468 101.2560940  92.2425175  92.9589558
  57.1833086  20.8153868   4.1281185  57.8157091  20.2448916   4.5649672
  56.4662981  20.9033275   4.7561285  85.4963684   7.7184582  56.3353634
  85.4291534   8.1715262  57.1758652  85.1884270   8.3580261  55.6932163
  63.2916307 101.2324524   6.6684365  62.5543070 101.5964699   6.1784619
  62.9645538 101.1452961   7.5637877 113.8344002  51.9028330  51.1766577
 113.6291885  52.8346395  51.1001110 113.5863495  51.5325785  50.3295326
   9.0660763 106.5534592   2.1541229   9.6321416 105.8643723   1.8063332
   8.3478487 106.0827446   2.5769764  23.9393258 108.7463760  16.1771369
  24.4419670 107.9922009  15.8692479  23.4104872 109.0059090  15.4226792
  27.5274920  87.9219437   3.3388811  27.5227284  86.9877815   3.5475871
  26.9302511  88.3128834   3.9766112   5.9848338  74.2709398  73.3199215
   6.0468400  74.9613905  73.9799738   5.0554252  74.2391396  73.0931616
  39.3842793 101.7574120  37.2367048  38.6582923 102.3251534  37.4952507
  40.1540613 102.1507740  37.6477242  53.5877943  39.7915912  28.9700651
  52.9353619  39.9674487  29.6480298  54.0102959  38.9793015  29.2491937
   9.0356517  36.9707465  78.1284952   9.9638826  36.8184233  78.3057451
   8.5868692  36.2442255  78.5609198   0.3231550  58.3978081  88.3598518
  -0.6179616  58.2446289  88.2757854   0.6637275  58.2893991  87.4718857
  29.0816951  83.7779522  29.3765664  28.3215737  84.3477535  29.2591906
  28.9671922  83.4027100  30.2496719  98.1446552  18.2056701   2.5406232
  98.6678600  19.0038264   2.4668451  97.3017502  18.4347773   2.1491456
   3.7162668  14.6386254  53.1593609   2.9490444  14.4793165  52.6096106
   4.4287428  14.1788089  52.7153111   9.7240698 108.4975529   6.3493806
   8.7759161 108.4117126   6.4487207   9.9191928 108.0563259   5.5226517
  64.4453287  30.4537439  28.1789231  64.2064333  30.0049639  27.3679018
  64.7050476  31.3315916  27.8993464  39.0454650  99.9908257  50.0782633
  39.2641401  99.3509102  50.7556963  39.8835492 100.1976204  49.6646404
  82.7187443  27.1043611  26.4052796  82.1188831  26.5502930  26.9046855
  82.6427364  26.7887878  25.5047965  77.0438766  18.8420987  70.9365225
  77.4089622  18.4174347  70.1602459  77.7508926  18.8115942  71.5810585
   4.0160578  73.4062624   4.2539451   3.5824478  72.7758551   4.8290992
   4.6587151  73.8400173   4.8152640  91.6427517  76.8143892  20.7907081
  92.1567345  76.0441160  20.5483699  90.7371140  76.5046024  20.8006120
  89.8505306  83.6071014   4.9768528  90.1506042  82.7036095   5.0763071
  90.3767300  83.9564514   4.2576209  77.7317953  77.8286457  72.0888948
  77.3819065  78.4433413  71.4439440  76.9569302  77.4555206  72.5091171
  80.6468773 106.7156696   6.0359585  79.8003292 106.4938068   5.6481838
  81.2047291 106.9282150   5.2877265 102.5556564  68.4020185  27.0655489
 101.9168758  69.0966129  27.2259641 103.3116722  68.8537979  26.6906238
  21.5625620  69.2953300   6.1402345  22.5028610  69.2029572   5.9868157
  21.1879945  69.4140339   5.2673995  58.1506586  10.7131493  85.8941555
  57.6241398   9.9269676  85.7495022  59.0186262  10.3812301  86.1237049
  63.1611872  97.6791573  83.4288406  63.6645031  98.0045223  84.1751957
  62.2833157  98.0385303  83.5570145  91.8572330  19.9952972  75.7220745
  92.4953365  19.9056458  75.0142479  91.5913582  19.0973210  75.9200191
 105.3468800  40.9537601  10.1454663 105.9795666  40.2632189   9.9477506
 105.7376957  41.4350319  10.8747613  32.6947570  74.6299267   9.4439358
  33.1664658  75.0301600  10.1743710  32.0666838  74.0390587   9.8594296
  22.5576758  49.5825005  49.8746681  22.5180173  50.5382967  49.8413134
  22.3374391  49.3024921  48.9862299 110.4190350  15.2045822  81.2519646
 110.9240723  15.0060177  80.4634571 109.5841694  15.5386174  80.9238720
  75.0183964  32.1486092  88.7782669  75.5871964  31.7140317  88.1427765
  75.0099182  33.0657196  88.5042763  94.5805931  49.0953875   6.9483215
  94.5419216  49.7524071   6.2532932  93.8115215  49.2737532   7.4895740
  11.8137908  50.4592991   5.7894218  11.2073362  50.4969454   6.5290362
  11.2601852  50.2542830   5.0359493   6.3260341  87.9767990  41.2712431
   6.2101012  87.0276642  41.2273693   5.4408717  88.3304977  41.1839676
  88.5415649  52.0263672  13.7819099  88.1527328  51.1568880  13.8770330
  89.2803574  52.0262432  14.3905389  57.1744871  82.9812336  78.1077957
  57.0898676  83.6500835  77.4282980  57.4200821  82.1871948  77.6330185
 109.1478348  76.1999178  15.7244825 109.5687389  75.3682280  15.9421039
 108.3719635  76.2294006  16.2842929  20.5352497  74.2104101   7.3575187
  21.1557293  73.6133289   6.9395107  20.1785064  73.7099266   8.0913305
  90.7003212  51.2141418  30.7555032  91.5726280  50.8225060  30.7114506
  90.8607006  52.1577644  30.7465696  44.1932774  33.1490254  87.1630669
  44.7272682  32.8950977  86.4103317  43.3324575  33.3423162  86.7917633
  82.4833107   1.8296333  69.0451145  83.0678749   1.3766284  68.4374094
  82.1615314   2.5835508  68.5508490  46.5102911  10.2764726  90.2181625
  46.9671106  11.0820174  89.9759960  46.6836691  10.1748979  91.1540413
   7.3653233  61.2942982   0.9544232   8.1073546  61.1513710   0.3668913
   7.7200156  61.1403370   1.8300495  61.1108303 101.2796593  83.4065342
  60.8926916 100.3930664  83.6939335  61.8242121 101.1595440  82.7797318
   2.8639576  60.4638100  11.0159636   3.8008747  60.2688360  10.9958756
   2.4694973  59.8027563  10.4470682  53.0288982  14.2343569  77.0356464
  52.8549719  15.1723325  76.9570112  52.3831415  13.9233851  77.6700974
  25.9979320 105.2984428  88.8051987  26.4184904 104.4777870  88.5485268
  26.1250377 105.8778858  88.0539799 109.8888397  30.4460287   2.8098506
 109.4184399  30.5306649   1.9805163 110.2347088  31.3222766   2.9795319
 113.1482983  96.3663864   4.4718376 112.7642059  97.0462990   3.9182812
 112.4258423  95.7632446   4.6464729 113.6544132 101.5413666   1.8904740
 113.1033325 101.0918427   1.2497938 113.1286049 102.2883129   2.1765055
  10.2725029  70.1113367  15.3042829  11.2178040  70.0692892  15.1598239
   9.9153781  69.4109440  14.7582555  97.5504875   9.4444185  63.1427670
  98.3455181   9.5659673  63.6617851  97.8635597   9.1263670  62.2959709
   8.9574558  53.1755209   6.8031377   9.7252172  53.7384558   6.7037463
   9.2824727  52.4081135   7.2739685  68.7971830  10.4615808  64.7059822
  69.3616343   9.9592286  65.2935791  69.3307257  11.2122226  64.4450283
 112.2392464  15.6498194  46.0394764 111.6031551  15.7279027  45.3284693
 113.0681324  15.4608428  45.5996227  27.7995729  70.4472733   8.0314255
  28.6848736  70.1617718   8.2571745  27.6260233  71.1796951   8.6227518
  70.5221462  17.1933949  94.4304180  70.0629139  16.4193869  94.1044521
  70.1002216  17.3874426  95.2674103  90.6586266  18.7268448  85.0917530
  90.3369808  18.7408984  85.9931850  91.6017246  18.5865700  85.1761246
  30.6101060  50.4358482   2.1216926  29.9720001  50.9484243   1.6253915
  30.5142021  49.5444679   1.7863208 113.5981846  56.2463379  14.7716975
 113.3075428  56.9896507  14.2432559 114.0640640  55.6816483  14.1550088
  24.3306184 107.6235485  77.8618813  24.6482730 107.1301556  78.6181211
  23.7070918 108.2499790  78.2293320  58.7517881 103.6742783  87.3698997
  58.5250044 104.5867920  87.1906376  59.5656872 103.5304642  86.8870831
 108.4112453  26.9630337  86.9204140 109.1108131  27.5389695  86.6119862
 108.2588673  26.3602924  86.1925983  55.1859188  56.3779259  92.4876404
  55.5964708  55.7303476  91.9146442  55.7770491  56.4430571  93.2376766
  97.3090458  92.9820251  18.2697797  97.7081299  92.1161461  18.3546937
  97.5951672  93.4552860  19.0510511  76.3485098  38.4611487  87.8945446
  75.9949541  37.5717449  87.9084301  76.4614391  38.6595106  86.9649601
  60.8181953   2.2450481  94.6574593  61.6034508   2.1456951  94.1191864
  60.0917625   2.1284992  94.0451336  23.2860374  62.0448399  13.9569628
  22.9324627  62.8931332  14.2245746  23.5312200  61.6178226  14.7777987
  90.1206589  28.6635280  90.1065731  89.3712139  29.1163421  89.7199059
  89.7562695  28.1958318  90.8580494  31.5370202  65.6656456  28.6621642
  31.4438057  66.3029718  29.3702316  32.0118570  66.1363649  27.9771972
  79.6021938  12.1280348  72.7908611  79.9991846  12.9507375  73.0768490
  79.5370770  11.6034007  73.5888290 107.1785355  20.3553581  78.9496279
 106.7313194  20.2796006  78.1067228 107.3316956  21.2942195  79.0559721
  12.3772979  56.8774605   0.1521650  12.4345577  56.9351816   1.1059057
  11.8065488  57.6040554  -0.0979233  69.1884327  64.1324377   3.9963195
  68.2512236  63.9406157   3.9635393  69.2433405  64.9858522   4.4263291
 111.3591480  55.5442381  54.0790224 111.2157440  55.5264187  53.1327963
 112.1975040  55.0991440  54.2026377  78.8774824  17.3964727  91.6494656
  78.4424114  17.5760853  92.4829483  78.1614113  17.2296822  91.0365582
  79.3170357 107.6905727  45.2257442  79.7279978 107.7569199  46.0876846
  79.5656395 108.4997749  44.7789478  19.9296057  80.2874279  14.1038120
  20.4476023  80.2320004  14.9068320  20.5403066  80.0452518  13.4076607
  70.6602001  11.8806231  76.6556263  69.9334764  11.7445016  76.0477018
  71.0925961  11.0281837  76.7067194 105.9497452  71.2900019  38.4982562
 105.5608940  71.8015623  39.2077160 105.2180862  71.1001348  37.9110003
 106.5880775  77.7438593   6.3608932 105.7377720  78.1822062   6.3936472
 106.8582344  77.6764679   7.2767013 106.5893745  49.4107294  11.1888433
 107.0962429  48.7749767  10.6837332 106.1955833  48.8970852  11.8940580
  25.6380200 103.9906216   5.5449849  25.8154249 103.4321213   4.7881243
  24.7452712 104.3065166   5.4055387  27.1955824  96.1844635  64.0108967
  28.1420326  96.1287594  63.8791418  26.8222213  95.7035828  63.2722616
  35.1309824  85.3540802  72.3349762  35.5897021  84.6732616  72.8272057
  35.5387330  86.1717701  72.6202011   9.7103149  82.0223522   4.8033279
   9.9804544  81.1880589   5.1870072   9.2383045  82.4678612   5.5068630
  20.8599424  34.3385148   6.6258979  20.5305195  33.4478664   6.7461449
  21.8104863  34.2375755   6.5757620  11.9702470 106.5302658  59.2963457
  11.7116010 105.8104897  59.8719025  12.1743095 106.1081409  58.4618330
  24.6191049  92.0919991  16.9314134  24.1163754  92.0293427  17.7435517
  24.0117073  92.4828339  16.3032806  99.8215389 105.7901764  36.3239741
  99.6860409 106.7118263  36.1038852 100.2974987 105.8096600  37.1542215
  60.1021099  87.0093918  78.4452868  60.7478094  86.3221073  78.2811499
  59.2742205  86.6379356  78.1405687  13.5623920  77.0420885   3.1295165
  13.1030595  77.7126217   3.6351186  14.1777718  77.5326109   2.5846064
  18.9136124  81.4231968  11.1593890  19.6668816  80.8326435  11.1675692
  19.1984236  82.1817589  11.6689956  74.7163868   3.5774061  67.3954630
  75.1643229   2.7668661  67.1533680  74.3626928   3.4042090  68.2678938
  53.7120056   8.4955567  78.7102461  54.4186068   7.9423666  78.3771896
  54.0378094   9.3894422  78.6051226  64.9986029   7.4841636  81.9219780
  65.6841993   6.8302178  81.7858124  64.7839260   7.4159664  82.8522968
  89.7113132  26.2135196  84.9174976  90.0378704  26.6425872  85.7083797
  90.3988743  25.5907631  84.6815777  21.0049939  37.7869344  30.3964543
  21.4236522  37.4179220  31.1741352  20.9962058  38.7309813  30.5543375
  74.9145937  25.0052142  92.0936394  74.2512894  24.7875094  92.7485180
  75.7121420  25.1552176  92.6012325  97.4244881  19.2780292  81.2246990
  96.6704559  18.7725437  80.9211254  97.1162796  19.7142947  82.0189953
 111.2508011  34.8993945  93.5528278 111.7313862  34.3375492  94.1607666
 111.7254353  34.8183012  92.7255535 110.5796528  30.5887389  94.4983864
 110.8596611  30.1002693  93.7242889 110.3924179  31.4687133  94.1715431
 109.7327900  70.7409191  49.0591478 110.2450180  71.4946318  48.7662697
 109.6614361  70.8535576  50.0070143  71.4156055  -0.0151542  80.0773525
  71.0040688  -0.4121784  80.8449745  70.7058048   0.4575249  79.6426296
 114.8647785  35.2409983  73.0900240 115.1640224  34.3321109  73.1146622
 114.6745872  35.4055834  72.1664619  94.6047974  11.2094378  58.9787579
  94.2426109  10.7341671  58.2309771  94.2142773  12.0813954  58.9202929
  82.1393299  34.5990586  91.0866070  81.4831448  33.9869547  91.4197445
  81.6289806  35.3000402  90.6811523   3.4221706   2.4960783  83.0192661
   3.2886341   2.0878583  83.8746929   3.8813126   1.8314467  82.5057602
  28.4490514  53.4850311  11.1206067  28.2879639  53.9677000  10.3098607
  27.6691818  53.6433077  11.6525674  47.3874950   1.8124865   1.8292317
  47.7320147   1.0176689   1.4220424  48.1101561   2.1397799   2.3648366
  84.1193676  25.8244371  71.9661045  83.1715107  25.6911731  71.9595337
  84.3824577  25.6292009  72.8654909 106.5617847  14.7508037  91.9420910
 106.9007874  15.6456149  91.9669437 107.3364544  14.2048311  91.8078136
  30.3243160  32.7410388  47.4199820  30.4232669  32.2904658  48.2586861
  30.8675051  33.5247445  47.5035667  37.8296781 108.8727474  89.2777157
  37.8504992 108.4547329  90.1385593  37.1758652 109.5665073  89.3640900
  97.9803658  21.4322162  88.6965370  98.6374569  20.7459211  88.8125706
  98.4803677  22.2482228  88.7156487  10.0926983  89.2903805  19.5194006
  10.4956555  89.8102856  18.8240194   9.2256665  89.0678787  19.1803122
   5.8155262  21.5677118  93.7078476   6.2023938  21.4808917  92.8366280
   6.3776016  22.1985149  94.1577244 105.7190228  30.0578666  58.9625978
 106.0658550  30.9395075  58.8260317 105.8892441  29.6030903  58.1377172
   4.5992813 106.8520451  10.2032614   4.3584502 107.1982479   9.3439752
   4.7200793 105.9136486  10.0581324  34.2925882  49.1170168   1.2585369
  33.4617996  49.4674873   1.5797770  34.5713282  49.7393417   0.5867878
  27.6557803  66.4096737  18.3625507  27.5783658  66.7593050  17.4748576
  28.5233998  66.0060501  18.3861780   1.7302817 100.5953217   5.1117575
   1.1803852 101.1232567   4.5328560   1.1522873  99.8975945   5.4205167
   2.1539788  62.4806643   2.8063685   2.2841631  61.6129065   3.1888366
   2.6706821  63.0663061   3.3597896   0.6074784  36.3526487  74.8083115
   0.2625062  35.9236956  74.0252256   1.1284057  35.6767011  75.2418566
  24.2161155  70.1940632  10.3430915  24.4080329  69.7480202   9.5182002
  23.2649279  70.3011560  10.3418124  94.1083908  61.9555283  22.9599977
  93.6962128  62.7079391  23.3845186  93.8395691  61.2048054  23.4895110
 105.3024006  32.6193476  90.3671741 105.4098606  33.4658790  90.8008385
 104.3562508  32.5251484  90.2568531 109.3313599  77.7259636   5.3894258
 108.5249996  77.5735569   5.8821678 110.0324535  77.5218964   6.0083443
  20.6771278  47.2039127   0.4947471  20.3922486  46.3964272   0.0669058
  20.2914882  47.1602726   1.3697384 103.5197830  84.6861553  22.1322560
 102.5999355  84.8542309  22.3368430 103.5302544  84.5285988  21.1881709
  84.2170811  28.3392024  77.1881914  84.7243023  28.1955504  76.3892412
  83.7610245  27.5104666  77.3346186  17.6373732   3.0695522  91.7529869
  16.7046738   3.1558794  91.9500923  17.9639530   2.4507913  92.4062157
   4.0201828  56.4206791  34.2368650   3.5929233  56.9253016  33.5447407
   3.2980141  56.0682440  34.7569561  20.4392600 100.7335663  86.8762398
  20.9834313 100.0198555  87.2089958  19.7598004 100.2971268  86.3623333
  27.7629161  95.1912403  67.2791100  28.5224771  95.7003784  66.9961214
  27.0114827  95.7467747  67.0718384   2.3771136  98.9028835  29.4221354
   2.9585588  98.2738495  28.9949727   2.7369550  99.7585678  29.1885781
 103.4074020  85.1491737   8.8272095 103.1673622  84.3986225   9.3706137
 102.8378487  85.0819206   8.0608433   2.3922482  74.0707922   8.0020285
   2.0676062  73.9440155   8.8935250   3.3442682  74.1029787   8.0961239
  13.8793910  78.1589460  15.0593090  13.1893075  77.5849628  14.7268093
  13.4613776  79.0166521  15.1357484   0.6632772  69.3042469  12.8323090
   0.7641014  69.3946648  13.7798798   1.3373257  68.6736679  12.5788152
  32.6666284  79.9925518  22.3704672  32.2617435  79.9909592  23.2378197
  32.6131201  80.9039497  22.0828438 113.7552643  42.1174431   1.9919856
 114.5980453  42.0534468   1.5426983 113.9811420  42.1475458   2.9216671
 113.6654186  25.2601576  55.6950188 112.7129841  25.3440094  55.6494236
 113.9670467  26.1167026  55.9976435  96.8277550  44.8387337  60.9007597
  96.5779018  44.0868187  61.4378119  97.7848339  44.8236609  60.8980274
  90.6677818  26.2574410  76.8907738  91.1762142  25.7984948  76.2221241
  90.3008556  25.5596328  77.4336004   4.1692635  28.9944053  75.4989624
   4.8438367  29.3887162  76.0518646   4.6068180  28.8378119  74.6621513
   5.9007055  20.6154346  86.3709641   5.9254879  19.6802914  86.1681747
   5.0666934  20.9166598  86.0105228 106.5302753  17.5441206  72.4896479
 106.4373398  17.9653656  71.6351604 106.5508652  16.6073728  72.2939110
 108.5752296  31.2270904  47.5361443 108.8586998  32.1078920  47.7812195
 109.2957878  30.8815026  47.0092630  10.3179991  87.6544380  11.2555134
  10.0141871  87.6922321  12.1624327  11.2519026  87.8578949  11.3070953
  85.3963757  22.0936036  65.4712439  84.4901752  22.3673677  65.3295183
  85.5869102  22.3534918  66.3725662  77.2461557  12.9225862  67.1579552
  76.5596819  12.4054468  67.5793171  77.4824619  12.4180353  66.3796091
  74.2489719  29.4234419  38.2808566  73.6505747  29.0211487  37.6513243
  74.8600245  29.9266171  37.7426529 104.5262718  42.8462696  73.6457300
 104.3587685  42.8228235  74.5878696 104.0491104  43.6163759  73.3367205
  14.8387527  80.7753372   7.5942552  14.6111798  80.0539017   7.0077574
  15.1366508  81.4733601   7.0109463 100.1291847   2.8805086  72.5926590
  99.3694878   3.4626904  72.5800991 100.4183388   2.8443617  71.6808939
 111.2853050  19.7285676  85.5154800 111.6999435  19.2571366  84.7929478
 110.3502655  19.5523429  85.4111767  99.9218941  14.1425836  56.9031096
  99.7047043  14.0330935  55.9773302  99.0764236  14.2664480  57.3344564
  30.7394218  89.1198540   7.1690965  29.9836564  89.6730232   7.3667079
  31.1505532  89.5374680   6.4122635   7.9827684  95.9262276  16.4198720
   7.3898429  96.4898300  15.9228647   8.3020204  95.2905273  15.7794058
  17.4683440  68.7192392  11.9547009  17.3096943  69.0971613  11.0896945
  16.9343328  69.2471409  12.5483227  60.2206707   5.9110504   4.7599745
  60.9743118   5.6721926   5.2996123  59.4696283   5.5311340   5.2158535
  24.7515106  69.1554642  25.1728201  24.0746140  68.8595390  24.5641541
  25.4066467  68.4577036  25.1601434 105.2616215  13.0213583  74.1809034
 106.1773777  12.9213476  73.9208698 104.8865986  13.6018300  73.5186052
  41.5222979  68.6084509   6.2102228  40.7871246  68.1904459   6.6585785
  41.2720251  68.6061001   5.2863234  95.9224510   4.1125163  56.9183683
  95.5417633   4.2035076  56.0448503  96.1625576   3.1879646  56.9798756
 111.6124535  32.8534484  50.9608746 112.0539284  32.6192617  50.1444864
 111.7631531  32.1047783  51.5379477  37.2493124  41.2423849   5.7876456
  37.8245902  40.9747791   5.0709343  37.4692965  42.1612501   5.9410131
  54.3691111  97.6830101  27.9527020  54.6903276  97.5681782  28.8470531
  54.2819357  96.7922592  27.6132989  64.5601034 108.3958530  66.3157272
  64.3218470 109.3068027  66.4878702  63.7419367 107.9102993  66.4209843
  79.0634727  16.5232539  73.7736368  78.1189632  16.3776159  73.8276863
  79.3145275  16.7966962  74.6559286  23.1725383  74.1240168  12.9289818
  23.2282209  75.0730896  13.0402875  23.4207511  73.9748907  12.0166314
  11.8041658  82.4416924  16.2529683  11.5928411  82.0313835  17.0915496
  11.2031329  83.1841183  16.1913800  87.2882938   8.6611748  21.3586164
  87.7372074   7.9079443  20.9747481  87.0255566   9.1921228  20.6067586
  92.9765892  41.5906429  77.2690725  93.6318779  41.2381077  76.6669512
  93.0448914  42.5400686  77.1682787 106.8831825  18.3396649  58.5825062
 107.0917511  18.6263204  59.4716406 107.6070595  17.7617347  58.3411789
  61.0258484  92.2292233  63.8481522  60.3391695  92.7035141  64.3169308
  61.8429041  92.5597286  64.2215395  21.7728519 102.6478577  75.0701475
  22.1672964 103.3749962  75.5517149  21.4921474 103.0342293  74.2405987
  11.0372829   8.9475328  90.3212357  11.2576139   8.5312355  91.1545277
  11.4249814   9.8207378  90.3798294  79.8705387   2.2464970  85.1028633
  79.6810532   2.6348791  85.9569645  80.5494308   2.8085536  84.7294712
  16.7184186  93.6790276   6.8410569  17.4266100  94.1954041   6.4562804
  16.7861342  92.8246117   6.4148849  40.3757191 103.1793404  10.9996986
  41.1626863 103.6958408  11.1733103  40.5823231 102.6878929  10.2046943
 104.9141884  76.6466951   2.9500574 105.3204060  75.7817030   3.0048794
 105.6114292  77.2188663   2.6295710  31.0980463   4.3777803  68.0996180
  30.3775454   4.5472518  67.4926662  31.7423177   3.8984200  67.5786924
  97.9292965  77.1572876  83.9364052  98.7870789  77.1696234  84.3610191
  97.3394966  76.7966080  84.5984364  48.0789948  90.2130318  64.5066929
  47.8764772  91.1212158  64.7312689  48.8489580  90.0017357  65.0346565
  12.5538313  69.8814201  17.8388047  11.9389892  69.1515875  17.9132736
  12.4986017  70.1484537  16.9212675  12.4516773  69.8905849  89.3178749
  11.6641331  69.3571186  89.2110062  12.1390152  70.7934475  89.2603111
  14.0906918  74.4894171   5.9616059  14.3442070  74.5905972   5.0441509
  13.2861352  73.9716816   5.9320760   9.3384522  90.3445339  28.4942675
   8.9276123  90.1005268  29.3236685   9.1452360  89.6136570  27.9071307
  96.9731808  10.2780235  86.2035656  97.3997784   9.8925948  86.9688702
  96.3229179  10.8780885  86.5686703  57.9747486  12.1166193   9.7270167
  58.0560064  13.0084562   9.3889976  57.3789835  11.6824281   9.1164643
  35.0216341  57.2245169  14.7594070  34.9973321  58.1028080  15.1391995
  34.1272593  56.8972349  14.8553872  14.6536064 106.1289215   2.2915806
  15.4895055 106.0841370   2.7557990  14.2378950 105.2842808   2.4647798
  57.4278402   5.5036664  67.7272749  56.9785786   4.7406721  67.3636341
  56.7425680   6.1663258  67.8139639 105.6922722  16.2885749  78.5345888
 106.1798954  17.0705688  78.2758617 105.0733185  16.1445284  77.8187847
 106.1223793  41.9150496  79.7854328 106.0143280  41.9734526  78.8361454
 105.4460526  42.4925232  80.1394558  90.7347965  38.3167338  85.6269646
  90.0869656  38.9731455  85.3706932  90.4060078  37.9661703  86.4547539
  90.9640408  42.2318888  85.5924797  90.3372860  41.5086269  85.5749226
  90.4238987  43.0142212  85.7040310   5.4646355  86.0605812  16.3055110
   5.3158259  85.2563190  15.8082664   5.7751364  85.7601070  17.1596408
  24.3824768  48.6722326  22.2052550  25.1956081  49.0436172  22.5474906
  24.6043444  48.3854961  21.3193727  39.1849971  67.2384453   7.5108624
  39.3333507  67.6977444   8.3374608  38.9664936  66.3433027   7.7701128
  36.8400240   4.5637554  27.1503520  37.4312282   5.3165483  27.1471357
  36.9193506   4.1931546  26.2713790  10.3629410  78.8293695  12.6161015
  10.1777327  78.9633703  13.5456026  11.3129365  78.9227724  12.5452781
 115.8283710  97.4841404  24.7431231 115.5646038  97.0100689  23.9545012
 115.9279346  98.3915234  24.4550753 111.1945724  85.3261662   2.6989043
 110.4047203  85.8593273   2.7889284 111.5909386  85.3362560   3.5701233
 108.2207203  97.9840565  18.4024799 107.4470615  98.2902431  18.8757038
 108.6085320  97.3251343  18.9783728  14.7250855  41.8883419  33.0092144
  14.0169930  41.9408655  33.6511469  14.3367946  42.2138834  32.1971273
  99.0533638  84.5288658  19.6950769  98.1692600  84.5789337  20.0585198
  98.9305210  84.1750526  18.8141918  58.0908775  99.8329735   1.4296575
  58.5325575  99.7221279   0.5877169  58.6937237  99.4523048   2.0683277
  77.4932575  28.5841775  89.0301800  78.0815744  29.0554309  88.4402370
  78.0467558  28.3319187  89.7692585  86.2525749  11.3557220  81.9574261
  86.0409641  11.5980101  81.0558987  87.1590137  11.0507905  81.9170189
  26.9633412  63.2636404   2.6171693  26.9519639  63.6977291   1.7641340
  26.3442683  62.5393486   2.5256103 112.3662186  39.0804315  56.2461042
 112.4069118  38.7487602  55.3491259 113.2229328  38.8708472  56.6180611
  84.0124893  21.9237757  71.0786963  83.9697456  22.5856209  70.3885031
  83.8389111  21.0969472  70.6287479  18.3926857  90.5115414   6.5364850
  19.3336391  90.6506729   6.4293391  18.2994866  89.5631123   6.6261333
 112.4580193  78.8967276  13.0742526 112.3849010  79.8511314  13.0754769
 111.5615940  78.5876656  13.2051539  25.8904099 103.5768223  12.3966813
  26.6245389 102.9656410  12.3355377  25.4518437 103.5099983  11.5484917
  62.5969315 106.2781048  81.7915249  62.4668503 107.2160816  81.6518402
  62.2041941 105.8647251  81.0226917  31.2760639  69.3509579  20.0718832
  30.8129168  68.5166788  20.1474261  30.5956054  69.9823713  19.8383784
   8.3054793   9.9241549  88.4102631   8.8814318   9.5583111  89.0815830
   7.7796501  10.5753064  88.8747406  78.7383747  31.9787312  90.2369499
  78.2151985  31.2980628  90.6602859  78.5797596  31.8554044  89.3010712
  80.6425285  26.5793753   4.3352178  80.7610130  25.6404638   4.1915542
  80.2233601  26.6393018   5.1936668   2.7419108  84.8348522  32.2864699
   2.9137230  85.7751846  32.3364401   1.9006102  84.7212696  32.7286720
  57.3406029   3.3181173  29.7798133  56.8720341   2.6080734  30.2185774
  58.2333183   3.2625207  30.1206875  81.6975975 106.6576672  90.1170826
  82.5554180 106.2505531  89.9960995  81.2325573 106.0653496  90.7079506
  91.6312218  86.3350868   7.1708286  92.5139236  86.1397171   6.8563509
  91.7095661  87.1939087   7.5861943   6.8899184   6.0366815  68.2741785
   6.9728321   6.6979176  67.5870657   6.9117397   6.5357149  69.0907097
 115.1042175  36.6957998  67.0774651 115.7624531  36.3846040  67.6988459
 114.9412155  35.9457517  66.5055466  78.6323404  30.2465320  79.4374847
  79.4989157  30.4354930  79.0775251  78.8048983  29.9331856  80.3253269
  30.8450532   5.3770936  13.8373125  31.5626073   5.1350290  13.2518637
  30.0779152   4.9377054  13.4703398 109.4754124  75.2082205  74.6728039
 110.0475979  75.8420563  75.1053429 109.9312973  74.3716812  74.7655630
  53.3038998   2.9918730  18.9122796  53.7295437   2.2368518  19.3184865
  52.9328394   3.4813178  19.6464384   5.3192663  52.9393244  16.2998700
   5.9535503  53.6561155  16.3112736   4.5546550  53.3031845  15.8535421
 115.1155376  67.0873547   0.5204047 115.2707386  67.4132490  -0.3661264
 115.1815510  67.8639698   1.0760544   5.7445729  22.5710082  69.6109104
   6.3412035  22.2985673  70.3080750   5.8081377  23.5260415  69.6008778
  36.6047502  77.1205616  11.7549706  36.5286374  77.5646162  10.9104264
  37.3481226  76.5272093  11.6474545  23.2428789  75.9851694  22.9335046
  22.3465014  75.8063936  22.6492906  23.7520289  76.0029888  22.1231461
 111.9861889  46.8129492  83.1093502 111.4239788  47.5788689  83.2256317
 111.3816452  46.0708475  83.1028557  38.0256438  21.7917299   6.0576695
  38.3857822  21.8524337   6.9424564  37.0884466  21.6487980   6.1898327
   0.5035407  66.9627714  91.0804653   1.2590992  66.6698027  91.5899086
   0.8817443  67.3372269  90.2848721  26.8031383  25.2540660  71.5567493
  26.4835739  24.3837142  71.3188410  26.3230872  25.8507133  70.9824705
  47.9913425  56.7943811  28.9405704  48.8533211  57.1629143  29.1339850
  47.9438925  56.0023069  29.4759178  30.5995059  91.0925293  16.3118148
  30.8554363  90.2123642  16.0360527  30.1551151  90.9613705  17.1493971
  87.0016193  27.0941401  88.9379215  87.2887516  27.4288678  88.0883694
  86.1237144  27.4574471  89.0542030 110.3221798  31.2238145  90.8752918
 109.4086075  31.2311721  91.1608791 110.4267406  30.3836918  90.4286480
  39.3334103  21.6628456  18.0452394  39.3428874  20.7161236  17.9043126
  40.1293612  21.8382597  18.5471618  41.2675142  81.9244003   6.6855752
  41.1134148  81.1718273   6.1145133  41.8723154  82.4790859   6.1928469
  70.0823927  87.8432083  42.6896572  69.8603964  87.6070118  41.7890120
  70.0452995  88.7996101  42.7025318  27.0235372  24.6861649  82.1927166
  26.4052963  24.7763705  81.4675426  27.7859139  24.2560482  81.8054008
  92.9148769   3.9852569  11.3973951  93.2376003   3.8999358  12.2945035
  92.0226955   4.3181407  11.4944530  53.5713768   4.7740802  11.0280585
  53.8387299   4.5612943  11.9221926  54.0123129   5.6018662  10.8368063
  70.9572935  10.8040679   3.5579315  71.0512209  10.5688965   4.4810265
  70.0368786  11.0502517   3.4659439  87.2603035   2.3211782   7.9496646
  86.3457108   2.2092494   7.6903898  87.5066471   1.4776230   8.3290869
  80.1598358  39.7124314  87.5081348  79.4325495  39.0947890  87.4319649
  79.7413397  40.5541325  87.6887798  33.0862808  61.0007095  81.8645191
  33.3425784  60.3805447  81.1819267  33.2910752  61.8602228  81.4963818
  19.4270301  27.3180890  79.3703318  19.5013213  26.4170885  79.0558338
  19.5574188  27.8559089  78.5893202 109.8860073   1.3747744  29.3723464
 109.8233509   0.5619395  28.8707447 110.5124760   1.1786420  30.0689769
  99.8771286  28.1797242  57.2797346  99.1874027  28.5653281  56.7395353
  99.6619606  27.2476339  57.3135185 109.5040512  32.7145410  93.1276321
 109.5462418  32.4874306  92.1987247 109.6510601  33.6601210  93.1499290
  13.4890711  32.6206088  93.3131218  14.4061959  32.5557303  93.0468369
  13.5059190  33.1667304  94.0990639 104.6835327  37.4389434  65.4024076
 105.5225182  37.4339175  65.8631945 104.8705006  37.0248103  64.5599318
  87.4057770  32.2688770  85.6911373  88.0278492  32.3682094  86.4118290
  86.7358494  31.6767263  86.0328960  14.7453022  45.3632736  76.7776775
  14.3648732  46.1649895  77.1365023  14.3880582  45.3043747  75.8915949
  33.9609909  64.5288467  20.7979822  33.3388209  64.0576696  20.2437901
  33.8394594  65.4493856  20.5654621  96.6732502   0.9907981  20.7632017
  96.4276981   0.4228478  20.0328827  97.6287556   1.0319304  20.7238674
  90.0929832  63.6472178  81.3623142  89.7599316  64.5442677  81.3377666
  90.8941746  63.6747980  80.8392811  97.7675819  74.6346426  76.3188839
  96.9290638  74.2058659  76.4899826  97.7454090  74.8396969  75.3841686
  56.8166399   3.7595695  21.1089468  56.6548109   4.6341836  21.4626312
  56.0761929   3.2363296  21.4158487  68.3529854  18.2245588  10.0130999
  68.6570978  19.1072261   9.8018050  68.9792156  17.9044974  10.6624269
  15.7416677  26.3443613  87.7041721  15.8155620  27.2969723  87.6466942
  15.0750291  26.1958671  88.3748245 106.7355633  48.2265997  73.4394121
 106.1830425  48.4896994  74.1754341 107.3580837  48.9465952  73.3378696
 112.4296761  72.7598619  88.7773800 112.8648472  72.9401207  87.9440975
 111.7026234  73.3817291  88.8073444 111.3260078  38.6822701  81.1132336
 111.8509769  38.0169082  81.5581322 111.8946934  39.0095162  80.4162884
  17.3913896 100.7441998   7.3494136  18.0811882 100.7997322   6.6881078
  16.5892816 100.6001186   6.8473244  22.1980238  72.0620775   6.4446658
  21.8673611  71.1674309   6.3640082  22.9261875  71.9935322   7.0621705
   1.2269759  16.0959697  81.9642925   2.0342889  16.5305579  82.2392654
   1.3310690  15.1903415  82.2562408  86.3189507  43.2345963  92.8406620
  86.5896797  42.4771261  92.3218441  85.3644753  43.1718445  92.8761101
 115.4149532   9.8047537  74.4633579 114.9154854   9.3139875  75.1159763
 115.8444214   9.1320652  73.9348936 101.3561726  26.2328053  72.5770092
 100.4485416  26.0256052  72.3545313 101.3984966  26.1327481  73.5280275
 111.4049339  58.1891918  80.2437878 112.3050213  58.3520222  79.9617290
 111.3370895  57.2354984  80.2895832  28.6926389  83.3092403  19.6231019
  29.2492151  84.0875912  19.5982957  28.1672502  83.4156513  20.4161191
   7.4807924  54.5342684  84.8364925   7.1674740  54.3992281  83.9421654
   8.3636290  54.8885345  84.7300529  51.2300253  81.5078163  22.0741534
  50.5304050  81.8275070  21.5044475  50.9821033  80.6052685  22.2745705
  38.0214572  83.8776588  25.4931045  37.9427099  83.3846188  24.6764398
  37.3389959  83.5155773  26.0582376  46.7382765  88.1610489  23.6358619
  47.1541548  87.4495029  24.1226578  47.3498678  88.3546829  22.9254413
  33.2428098  99.4707012  20.7689738  33.0745769  99.9644947  19.9664211
  32.7648616  98.6499596  20.6498384  95.0615692  38.5630274  89.6064854
  95.2415276  37.6629543  89.8779964  94.9515247  38.5093713  88.6571503
  38.7373829 100.7586861  16.8474233  39.4277525 100.1032543  16.7472887
  38.7571239 101.2543392  16.0287797  94.9913311  60.5237770  85.6003666
  95.0263309  61.2806273  86.1853313  94.0795231  60.2348089  85.6368828
  24.2475247  97.0219517  40.3918791  23.6372113  96.2907600  40.2964067
  23.7138772  97.7351761  40.7422638  23.3010077  66.8149996  72.0217800
  22.3763943  66.8658543  72.2641277  23.3863831  67.4098015  71.2766933
 107.4274158  54.0050697  89.4794941 106.5464401  54.3792057  89.4911194
 107.7689648  54.2234945  88.6123943  12.9849958  88.8950348  11.4509380
  13.5586524  88.3752918  12.0139873  13.2941771  89.7944546  11.5589905
  18.8275671  58.6669779  21.9406414  19.0305638  59.5455647  22.2617388
  19.4298792  58.0936241  22.4146843  71.8050957 101.2042809   0.2064127
  72.2601843 101.7219639   0.8705846  71.1165714 101.7841721  -0.1189907
 116.1624276  38.1417966  79.0985680 115.8399747  38.9995718  79.3751097
 115.6620143  37.5171471  79.6235752   8.5078752  63.7349319  53.1530762
   9.2888528  64.2744780  53.2763433   7.8069031  64.3638134  52.9816723
   4.4607237  97.1580505  12.8123343   4.0609339  97.9959679  12.5792968
   4.7967529  96.8145370  11.9844985  61.8186903 105.4880428  12.2748768
  61.9082403 106.0865879  11.5332854  60.8838129 105.4991436  12.4800920
  80.3411770  75.1248693  62.1680260  80.0507927  75.4888725  61.3317204
  79.6668816  74.4856167  62.3980570   7.6274168  91.6463280  17.5010324
   7.7836829  92.4583817  17.0189667   7.0276970  91.1491966  16.9447720
  28.6507940  76.2668419   1.6918008  28.6315203  75.3443670   1.4370500
  29.5741987  76.4475250   1.8676035  89.6782303   4.3945682  14.8385382
  90.5274582   4.3300074  14.4016385  89.3672848   3.4908861  14.8924208
  25.8020020  84.5494652   8.0739343  25.0461364  84.2485428   8.5782599
  26.2712359  85.1326180   8.6705768 108.1276417  69.6834326  92.1714687
 108.5672092  69.4062614  91.3676071 108.1991291  68.9287901  92.7559566
  22.9087830 104.3138790   4.5570815  22.9548860 105.1703167   4.1320720
  22.9082060 104.5110512   5.4937541 101.4837933  63.9098740  76.9581270
 100.8636475  64.3673277  76.3903379 102.1591282  63.5850573  76.3626003
   2.5189301  88.7869835   6.9157320   2.6628175  88.1767654   6.1924291
   3.1645185  89.4798660   6.7765760   2.7845630  64.4019079  93.5477257
   2.7892253  65.3572702  93.4886074   1.8759774  64.1788912  93.7501335
  16.4404154  71.1861515  22.8853154  15.9293067  71.6476679  23.5501456
  15.8225143  71.0356379  22.1699309   5.6050527  38.1145191  70.8441401
   5.5123448  38.3178806  69.9133968   6.2007886  38.7853909  71.1777020
  32.7740765   7.4485290  60.1117802  33.0757141   8.2405549  59.6668720
  33.1671572   7.4988109  60.9830952 112.1450138  85.2949905   5.2057421
 113.0769157  85.5114269   5.2366817 112.0520687  84.5508957   5.8006442
  82.4986744   2.9565838  25.5554271  82.3482704   3.8997197  25.4913402
  82.4073792   2.7623290  26.4882517   3.9990535  26.6981697  78.7536860
   3.3125648  26.1544037  79.1400576   3.8874257  27.5543332  79.1669130
  17.6770675  27.5672865  46.8757725  17.7737463  26.8404508  47.4910736
  16.8121803  27.9298902  47.0673990   4.7755337  57.2335291  93.3700943
   4.6564323  56.4279366  92.8670406   4.6668670  57.9351044  92.7280521
  45.2656364 100.3597450  36.1199450  44.7065020  99.5888424  36.0234213
  45.7971048 100.3713226  35.3239298 107.1312809  37.6783276  84.2702675
 107.3576546  37.8203321  83.3511257 107.1658325  36.7282295  84.3814182
 100.1040554 100.7935429   6.1478299  99.8767281 100.3627968   5.3238124
 101.0289955 101.0206413   6.0521632  89.8254013  46.7844152  90.4787540
  89.6509075  47.7137280  90.6276417  90.5510902  46.7739630  89.8546505
 102.9823875   7.0517540  20.9110928 102.3715019   7.6833308  21.2907839
 102.5897598   6.8139589  20.0711346   5.3280145  64.3024206   2.4622115
   6.2390888  64.1636372   2.2035334   4.8342857  64.2367220   1.6448089
  83.8691330  18.3577383  14.0831089  83.6472416  19.2722237  14.2583573
  83.5480022  18.1992340  13.1954229 114.1454124  82.4703789   8.4775436
 113.4165096  82.7521133   9.0303218 114.3311787  81.5760040   8.7635803
 100.6569386  35.5509853  81.5729904 101.5360928  35.2752018  81.8323231
 100.7086277  36.5057778  81.5290546  76.2648630  46.2702417  92.7198219
  77.0548296  46.7633247  92.4983501  75.5453348  46.8140316  92.3991966
  42.4161530  91.5185165  34.9264550  41.7869568  91.9169712  35.5277681
  42.1509600  91.8302155  34.0611529 107.5707245  42.2275066  90.0869370
 106.6714382  42.4033260  89.8101807 107.9202557  43.0861998  90.3250885
  56.1535788 102.7186584  21.0113573  55.4800510 102.6870918  21.6907668
  56.2422037 101.8113136  20.7196212  26.2283921  46.4767218  10.6962776
  26.1236715  45.9963846  11.5175843  26.7717981  47.2301626  10.9270692
  16.3162649  62.8557444  22.9688716  16.1195171  63.6220551  22.4300838
  17.1652448  63.0528069  23.3646393  29.8784232  63.7353992   3.1908828
  30.0461793  62.9803038   3.7547252  28.9319992  63.7222624   3.0482665
 114.4038773  89.5212936  20.0231409 113.5581493  89.9328327  19.8453391
 114.2290497  88.9164448  20.7441330  34.9910617 104.7327137  54.3414354
  35.0705743 104.5730686  55.2818727  34.7229600 103.8891315  53.9771223
  66.6768932 107.2094154  34.3170476  66.3115358 108.0935097  34.2835760
  65.9701109 106.6715240  34.6739388  61.4286757  78.2485485  11.1102974
  61.3247967  77.6488066  10.3715479  61.7030144  79.0743923  10.7116103
 106.4323235  43.5482550  85.6400871 106.7257595  42.6372051  85.6290245
 107.0224571  43.9824867  86.2560654  43.3657694 105.0743961  11.2692177
  42.8169680 105.2718544  12.0282042  43.7665129 104.2302036  11.4765501
  80.8904648  24.9893236  88.4725189  81.1650944  24.2074585  87.9934597
  80.3335571  25.4646921  87.8559971   5.4775310  27.6811838  86.0442924
   5.0508976  28.0286098  86.8275642   5.4710126  28.4106040  85.4245090
 107.8602600  43.5788679  69.9308825 108.2947826  43.3239937  70.7448006
 108.2803059  44.4024515  69.6828651 104.8795223  38.6859059  73.0795240
 104.6105289  39.4386911  72.5530338 104.1553593  38.0653286  72.9976463
  15.5138505  57.7679062  64.1412020  15.0093484  58.3904600  63.6176205
  15.6434810  57.0172405  63.5616112  28.2860184  99.0901947  12.2572875
  28.6877871  98.9820385  13.1193292  28.9455676  98.7671280  11.6434062
  98.2539082  24.6127391  81.0351753  97.8431988  25.2197671  80.4195023
  98.1884289  23.7582684  80.6087685  35.6413507  92.9220486  42.6897240
  36.1957407  92.4200916  43.2871580  35.0964642  93.4603024  43.2638454
  16.3097429  89.7572613   9.2513335  15.8538270  88.9261532   9.1185373
  15.8716571  90.1530457  10.0047719 113.2102585  19.0159702  83.5618782
 113.3640957  19.6776354  82.8875160 113.6596584  18.2352197  83.2383156
  13.6998463 102.2707367   4.5118436  14.2889297 102.0874500   3.7799838
  14.1646171 101.9422531   5.2814662  21.8827558  91.8891144  22.9517293
  21.1742616  91.7105103  23.5700893  22.6141024  92.1720600  23.5006428
  88.9381313  52.6625347  86.4993763  88.0771828  52.2704744  86.3534355
  88.9888382  52.7829599  87.4476147 105.7793808  48.0229950  70.8518410
 106.2227535  48.3133745  71.6489220 106.2861347  47.2659063  70.5581522
  38.2527161  90.3850937  16.0350358  38.3462334  90.7301998  15.1471221
  37.6728868  91.0074234  16.4740491  27.0457911  87.5203419  12.5207865
  27.7930379  87.3942852  13.1055617  27.2710419  88.2967663  12.0082796
   3.8591772 101.8367767   3.5342929   3.0253822 101.9861221   3.9800650
   4.3121955 101.1957550   4.0821046  71.2091398  16.3918018  78.0705166
  70.3413200  15.9918022  78.0146360  71.6791010  15.8560789  78.7095547
  96.2106800  56.7621279  89.7417831  95.9429169  56.8514395  88.8271523
  96.9654465  57.3444223  89.8283386  49.9325132  93.4656429  12.2057235
  49.0055943  93.7038898  12.2228110  50.3642321  94.1459370  12.7224886
  94.2402840  20.7833409  91.1555862  93.9359665  20.2856660  91.9144917
  94.1254711  20.1865315  90.4160786   8.5307384  94.4903755  21.3127041
   7.6548946  94.6166706  21.6776371   8.5907114  95.1331425  20.6059623
  34.1997337  92.2366142  31.7524266  33.6615467  92.6716995  31.0911465
  33.5756779  91.7349625  32.2769570  26.0140061  80.6867790   0.4542153
  25.9487200  80.3763580  -0.4488934  26.4936399  79.9957085   0.9109423
   6.7533445  17.6861775  63.5819960   7.6881754  17.6134598  63.7744427
   6.3302118  17.1296859  64.2358351  40.4729891  32.4274993  67.3426867
  41.1422777  32.4177980  68.0269289  40.2354383  33.3504152  67.2530746
  93.7549496  14.5256400  89.0103245  94.3119812  15.1305914  89.5002079
  93.8343716  13.6944842  89.4784069  24.3983054  28.4087348  89.2718506
  24.0364695  27.9394317  88.5201454  25.2152562  28.7874293  88.9471626
  72.9339886  82.8240013  94.3838120  73.2890320  82.1110821  94.9147701
  73.2382441  82.6358700  93.4959698  84.5838642   9.3525928   0.5431782
  83.9247131  10.0372553   0.4292084  84.7638226   9.0432125  -0.3445894
  87.5792408  27.3311687  80.2795696  87.3852825  28.1348562  80.7619572
  88.4969807  27.1471500  80.4798985  79.7611380  17.1907735   5.5522418
  79.6564960  16.4518404   6.1516249  78.8794422  17.5521231   5.4612994
  40.4435205  89.0166759   5.8540058  39.6799803  89.5714188   5.6943232
  40.1662731  88.4225559   6.5514141  72.8043318   3.0671519  18.9206386
  71.8788338   3.0093995  18.6832595  72.8627872   3.8502139  19.4680226
  73.7690258   7.5202012  22.3263931  73.8796043   7.3022616  21.4009166
  73.6204338   8.4657687  22.3336887   1.8221660  17.4768949  61.8265247
   2.6620024  17.8362048  62.1125364   2.0068713  17.0874155  60.9718800
  48.0130053  83.3981419  18.6774874  48.9604950  83.5323238  18.6551416
  47.8548527  82.7003956  18.0415893  64.9494457  17.2185791  13.0757225
  64.8049259  16.3150871  13.3568811  64.2118120  17.4100792  12.4965382
  99.4671249  71.8537331  64.5437765 100.1859856  72.3098135  64.9813414
  98.7477970  72.4852371  64.5433712  56.3051462  56.5980005   1.0805497
  57.1370888  56.4522982   0.6301339  55.6465673  56.2275362   0.4929560
  13.2189226  40.6183434  64.0484524  14.1265845  40.8718443  63.8807631
  13.1661952  39.7087216  63.7551212  92.5203133  46.5361357  88.1893539
  93.1672859  46.8868208  87.5772381  92.9489422  46.5832281  89.0439224
  13.6975396  98.7855244  12.4273586  13.2126296  99.5392799  12.0912743
  13.0209267  98.1490517  12.6582980  26.7067933 108.7610626   1.1529203
  26.3412023 107.9556847   1.5189013  27.6324868 108.5618401   1.0127983
  69.8814678  27.4894428  21.7684865  69.7731304  26.7546344  22.3722696
  70.0268888  27.0794153  20.9158659  62.4198914  67.9979324  61.5576077
  62.0718241  67.5246763  62.3133230  61.9407654  68.8265753  61.5524864
 105.6476021  16.9614172   6.9813555 105.4526615  16.5100455   7.8026307
 104.8503113  16.8657625   6.4603817 113.5780430  57.5302935  78.2955551
 113.9956188  56.9407129  78.9234543 113.8660717  58.4041595  78.5594225
  10.0574982  31.8099117  89.8508549   9.2551547  32.2470737  89.5656109
  10.6088340  31.7870331  89.0687275  54.1764259  14.6343076   7.6729870
  55.0724316  14.5791340   7.3407829  53.6370945  14.7452879   6.8900186
  99.7169971  44.3939066  86.7463493  99.9435520  43.4912300  86.5225697
  99.4342709  44.3504763  87.6598072  39.4045329 107.8918934  42.6134825
  39.2177176 108.2645893  41.7518425  39.8266006 108.6029720  43.0956221
  90.4366112  24.7299409  90.0607300  89.5015049  24.9251270  89.9998093
  90.7068348  25.1107860  90.8962917 109.0953636  34.2821336  90.8472443
 109.5873547  33.8766551  90.1332664 109.3254280  35.2100682  90.7998943
  99.0712452  48.2244349  65.3044462  98.5393143  47.4318123  65.2334690
  99.6008396  48.2296705  64.5071125 115.5281258  91.4978504  82.2980499
 115.4839993  90.6745911  82.7843857 115.0496483  92.1233749  82.8421116
  26.0644889  15.1417243  84.8682308  25.2533913  14.8310840  84.4659233
  25.8797908  15.1456356  85.8074379  23.4252977  58.8725710  77.1194506
  23.9431882  59.4193506  77.7102613  23.6340833  59.2006159  76.2447929
  87.0218277  11.6665471  24.7318053  87.6992702  11.0855794  24.3857145
  86.9831944  11.4598262  25.6656194  74.3069077  23.0941939   8.5508215
  74.7856569  23.1261778   7.7225667  73.3850431  23.0735373   8.2939649
  39.7071481  90.9828186   1.3321596  38.8723636  90.6790924   1.6886899
  39.5405865  91.0971260   0.3965195   5.0129098  60.9324503  66.0764313
   5.0663489  61.1591053  65.1479864   4.7039816  61.7328072  66.5009642
 101.3515854  50.8370352  91.7397785 100.4933834  50.5271530  91.4504814
 101.7192364  50.1013994  92.2295856  12.2703230  79.0252733  63.0525351
  11.4416552  79.2350912  62.6218176  12.0230114  78.4632540  63.7868404
  24.4301391  80.6783962  65.6902075  23.9467573  79.8722506  65.8710432
  24.4930387  81.1155701  66.5394163  80.5631447   9.7536325   4.8682296
  80.0621319  10.1640499   4.1634074  80.7546997  10.4694450   5.4741609
  95.7332706  30.1960564  88.7515450  95.9993267  29.2767644  88.7702847
  96.3050652  30.5975890  88.0972862  98.6583280   0.3526016  13.9738524
  98.2770919  -0.4881767  13.7209284  99.6036863   0.2053067  13.9449680
 112.6529503  45.5204725  64.0588713 111.8265915  45.3336191  64.5043516
 112.3933792  45.8103132  63.1843138  88.0949879   1.0791901  43.8618565
  88.0427837   0.2457875  44.3297720  88.9921761   1.1116746  43.5298395
  16.1932969  90.2753258  16.9206977  15.2496481  90.3412914  16.7743802
  16.5478802  89.9982929  16.0758579   7.5049919  47.6217556  84.6323299
   7.0397633  46.8180609  84.8644161   7.6868820  48.0441427  85.4718208
  91.7189503  19.6019244  21.0087681  91.3775253  18.8826001  20.4775119
  92.2881317  19.1767287  21.6502309  43.1100941  20.5116105  63.8583946
  43.3957434  21.2528753  63.3243895  43.8371801  20.3564811  64.4613123
 110.6303978  28.7988067  78.5625362 110.6966591  28.6586666  77.6179695
 111.5358829  28.9100671  78.8522625  97.2620106  35.6839728  81.0799694
  97.2622299  36.6213679  80.8862686  97.8273392  35.5978894  81.8475819
  71.9745302  44.2657471  22.9259443  72.7200747  44.4406462  23.5002303
  71.2961817  43.9274120  23.5104156 110.2541542  37.6263189  77.8210115
 110.9181404  37.7171063  77.1375465 109.6657753  38.3686948  77.6834583
  46.8296051  95.9330463   9.8388344  46.6623163  96.8263054  10.1393890
  46.1891794  95.3985023  10.3082466  69.6781445  42.3541260  17.6406586
  68.7879801  42.0809174  17.8624547  69.5602369  43.0806589  17.0287132
  37.9338479 103.5271072  47.1030331  37.2214341 103.4906197  46.4647818
  37.7231574 104.2807007  47.6543331 112.8157234  53.9840412  77.7075577
 113.0217361  54.4423676  78.5222530 111.9611645  54.3286943  77.4483585
   6.5607381  65.1129055  71.3907814   6.5302229  65.7507706  70.6777382
   5.6466579  64.8652172  71.5298510 102.4572754  53.6753798  90.5301285
 101.6567421  53.1619787  90.4215527 102.3302078  54.4391060  89.9672699
  65.0932264 105.0551033  35.3996348  64.6004486 104.7255516  34.6481061
  64.4881344 104.9742603  36.1369014  20.0710011  33.7707067  76.7636061
  20.2072406  34.4468117  76.0998631  20.9097147  33.3121920  76.8141127
  99.2370605  43.3920860  68.4796858  99.5646667  42.8770494  67.7423620
  98.8906956  44.1896963  68.0795813  42.2663546  92.7187347   4.7972932
  42.4796438  93.6260986   5.0150812  41.3683891  92.7562046   4.4679239
 105.0652218  72.7776051  77.7807856 104.7805119  73.4762573  77.1916676
 104.2798996  72.5485373  78.2778120 104.5972443  14.8249125  94.4141769
 105.3997898  14.5172119  94.8354530 104.8117256  14.8527718  93.4817314
  26.1946106  41.9970751  77.3415518  25.7463145  41.1556292  77.2565174
  26.4659429  42.2150946  76.4498806  78.8675785  22.0234966  13.1250739
  79.5029163  22.7302814  13.2392442  78.2520056  22.3578453  12.4727631
  12.4969709  64.1443253  41.6412783  11.6350520  64.1551018  41.2250900
  12.4256313  64.7767353  42.3562574  54.9474478   4.8025772  34.6760225
  55.3229284   4.0614900  35.1514554  55.7041931   5.2610874  34.3108654
  83.6546803   5.6649232  15.9028673  83.6770725   4.7781157  16.2624550
  83.8818836   6.2289393  16.6421235 114.5068550  49.7644901  63.6259699
 113.9006615  50.1343870  62.9841518 113.9809704  49.1318226  64.1152573
  92.9484558  37.5459814  91.4906788  92.8555107  38.1264734  90.7352829
  92.9263306  36.6640854  91.1191940  87.4516773   2.1543290   3.3319265
  88.3433533   1.8978293   3.5671988  87.1303654   1.4338669   2.7897781
  11.5363705  70.2864313  84.1592026  11.5473461  71.1593819  84.5517254
  10.6166887  70.0225973  84.1876125  96.8815327   7.3242754  65.1786947
  96.0914326   6.8015671  65.3156328  96.5561295   8.1983536  64.9634504
  18.9024806  94.8602962  22.4635029  19.4719434  94.2340565  22.0165491
  18.0179477  94.6171093  22.1902013  16.8359745 105.9158707  28.1520367
  16.3171661 106.0587788  27.3604274  16.2988555 105.3327274  28.6883950
  20.5516291  17.8472376  77.5511646  21.4535689  17.5620985  77.6975632
  20.5025649  18.0126727  76.6096449  18.2001007 105.7910156  10.6484365
  19.0694249 106.0930824  10.9116149  17.6308429 106.0342216  11.3785231
  23.0002379  30.5108094  38.5852551  23.7771106  31.0694194  38.6108184
  23.3085084  29.6891665  38.2030201  19.7338176  57.7349997  84.9683952
  19.8061562  57.2689629  85.8013439  18.8004589  57.9293537  84.8829556
  62.0542669  16.5445435   1.9569618  62.5359344  15.7282150   2.0905097
  61.9141054  16.8870997   2.8397083  15.4475915  57.1383524  77.9339600
  14.7429347  57.3907900  77.3373318  15.8049381  57.9690886  78.2476664
 115.1870632  25.2437615  77.0128584 114.3346977  25.6512475  76.8590546
 115.3527164  24.7294259  76.2227631  14.8332608  66.5513659  76.6810083
  14.7486818  67.0928097  77.4658108  14.3525100  67.0308161  76.0062933
 104.6559906  69.8841000  88.4655666 104.6302032  70.6485033  87.8900146
 105.4007244  69.3719864  88.1503677  88.0487251  61.0249662  87.4677944
  88.1734657  61.3347101  88.3648682  88.2893372  61.7725945  86.9206238
 105.1246643  84.7219563  57.2362947 104.9503994  85.4138947  57.8743219
 104.6169758  84.9740028  56.4649582   6.0434830  84.8840714  67.5452471
   6.5331864  84.1287231  67.2198725   5.3234673  84.9887180  66.9232655
  67.4022675   8.3121234  10.7267249  67.6516628   8.6569417  11.5841246
  66.5243340   7.9542559  10.8586252  79.1506243  22.4415827   5.7362312
  79.6372557  21.7383265   5.3062868  79.6208620  22.5915766   6.5563595
  53.0928040 107.9343605   3.6799920  53.3322525 107.7250576   2.7771714
  53.2730341 108.8706207   3.7646729  68.3401012  37.4019790  93.1730843
  67.8065491  36.6879034  92.8242970  69.0422058  37.5116634  92.5317860
  89.7820473  24.0023184  78.0716658  89.6924591  23.6152697  78.9425278
  89.4352531  23.3371425  77.4770975  11.2906849  82.0879841  10.3584445
  10.8562076  82.4518871  11.1298323  12.1972895  82.3863506  10.4311264
   1.6569182  49.3206120  61.1323929   1.8490371  50.0043011  60.4906082
   1.7722940  49.7490406  61.9805527  29.2452788   9.7792739   7.8914267
  29.4936681   9.9473721   8.8004249  29.6974540   8.9662856   7.6659977
  39.0565491  69.7499752   1.4018364  39.9921155  69.9126720   1.2815145
  38.7241960  70.5512428   1.8064828  13.1891239  16.8772042  66.9222116
  13.8004124  16.1545777  66.7794895  12.6916409  16.6202998  67.6985741
  87.2092438 101.1593533  24.2364979  87.4124336 100.2697563  23.9474177
  86.4253521 101.3986874  23.7420630  92.4740314  19.9507964  58.8312244
  92.0536995  19.9993610  59.6898270  91.7468357  19.9379551  58.2089329
  93.6518192   1.8600677  65.1526833  93.6883354   2.7230078  64.7400904
  93.5631943   2.0451629  66.0876274   4.7824109  32.7778745  93.5633087
   4.4801366  33.6571598  93.7907219   3.9969742  32.3274469  93.2527637
  84.1939735 104.0268040  73.4765482  83.8629913 104.7177505  72.9027176
  84.6588612 104.4941235  74.1706133  14.9902666  50.9742928   8.0392355
  14.8426533  50.2989054   7.3771983  15.8770776  50.8070993   8.3583653
  22.4468017   1.1303800  65.9729671  22.0868325   0.4741098  66.5695953
  22.3796368   1.9546816  66.4548874  95.8339214   5.2376270  29.5377016
  96.0735416   4.4774497  30.0677466  96.3317108   5.1309282  28.7271142
  79.3041658  20.5701041  74.2098904  79.6236992  20.3048253  73.3474779
  78.4277391  20.1896691  74.2680216 116.1079311  20.1851034  69.4626760
 116.0259914  20.9189844  70.0717211 115.2051449  19.9473083  69.2513227
  18.9771593  58.9473057  37.7792215  19.7747743  58.8315773  38.2956028
  19.1689682  59.6888590  37.2051668 108.1487751  83.7384224  16.0647869
 108.7898254  83.8276196  16.7699957 108.2839203  82.8523254  15.7289231
  11.3208985   7.7017075  50.8914328  11.4108717   6.7488325  50.9043503
  11.1175132   7.9353768  51.7971182  90.3832722  30.4250288  73.5902929
  90.7714176  29.6573877  74.0101767  89.5060825  30.4869366  73.9683533
  23.7156129  94.5641613   1.6524282  23.7698340  95.3171253   1.0639246
  24.5759559  94.1492081   1.5903418 115.0860405  44.1156101  78.2722664
 115.2000141  44.5117044  77.4083519 115.6284332  44.6486235  78.8535833
  95.6592178  42.7574444  81.8651676  95.3392887  43.5097980  81.3673306
  95.7092476  43.0714226  82.7680206  18.1850457   7.0522583  92.5536823
  17.4872255   7.6025623  92.9092789  18.9234972   7.6494092  92.4339771
  37.0856071 107.0066357  33.1867933  37.8408623 106.7678833  33.7242126
  36.5617394 106.2068176  33.1410885  21.8302584  37.1595335  86.0820675
  21.5697742  37.2374511  86.9998455  21.2405086  37.7511072  85.6146622
 100.1728916  17.1562111  75.2830553 100.1933479  16.8274856  76.1818027
 100.6009007  16.4722466  74.7680569  97.6095486  27.0909238  93.1107712
  98.5125637  27.4068880  93.1417942  97.5809383  26.5226889  92.3410130
  72.4523258  16.9206667  55.3747416  72.7435017  16.0096574  55.4135990
  71.9864464  16.9878674  54.5412731  39.8483205  37.4547458  69.6900034
  39.1426587  38.0971479  69.7647858  40.6214666  37.9080057  70.0261974
  74.3093443  43.8760996  40.0297832  74.8552561  44.2563105  40.7180119
  73.8843298  43.1270790  40.4475880  21.7256999  70.1640272  39.1932750
  21.0896063  69.5846224  39.6126842  21.8802547  69.7689247  38.3352304
  26.4357519  17.3929262  83.2866955  27.2458410  17.4480891  83.7936020
  25.9458303  16.6791630  83.6950493  55.7615948 100.2159214  61.6131020
  55.5187035  99.3404007  61.3119364  55.1221323 100.4204941  62.2953510
 110.4651642  35.4492712  83.1656075 109.6094704  35.5081344  82.7406979
 110.5185223  34.5441103  83.4723186  88.5859394   7.1810442  60.6329060
  88.3088493   7.0824808  59.7220087  87.8328800   7.5778329  61.0707378
  98.2526016  53.2617331  86.2707615  97.6463223  52.6897144  86.7413521
  97.8590393  53.3670568  85.4045868 112.8301620   9.0093696  54.6280432
 113.6399460   9.0371120  54.1184235 112.8972435   8.2037818  55.1406431
  40.7283354  93.8883209  78.6921883  40.6383753  94.5907974  79.3361282
  40.1071453  94.1163921  78.0005693  61.5591145  16.7490065  73.7038088
  61.8122721  17.4031115  74.3551826  61.7778873  17.1510172  72.8631210
   5.0275719   1.5427090  92.9511070   5.4120857   0.7904504  93.4010983
   4.9860728   1.2767819  92.0325279 113.7929630  23.7168884  69.8259878
 113.1355667  24.1350698  70.3820324 114.5511341  23.5994363  70.3983688
   9.8003983  90.7458782  13.0243218   8.9968348  90.8788967  13.5271335
   9.5156062  90.7560825  12.1105266  88.7027264  35.6308007  63.1680012
  88.9327526  35.8269382  64.0762138  89.1927528  34.8343921  62.9634523
  99.0732384  41.0001373  90.8466816  99.1914082  41.5788794  91.5998936
  99.3317795  40.1356077  91.1660194   7.5973117   8.7849408  53.8138294
   7.6615965   7.9190266  53.4109783   8.4864217   8.9770710  54.1118288
  97.7789307  81.9374752  74.6004534  98.7286663  81.9924927  74.4945955
  97.5530148  81.0625839  74.2846012 101.1803532  10.4362273  67.8228474
 101.9062805  10.7626688  67.2911549 100.5098724  11.1160946  67.7560282
   2.6642546  79.4851875  19.5787561   1.8733490  79.9314594  19.2761970
   2.4751338  78.5546207  19.4582891  26.7953634   2.1387051  25.1936722
  26.1085773   2.0071584  24.5400262  26.4442110   1.7453393  25.9925365
  89.5557880  19.2063820  93.5000229  89.7863865  20.0880051  93.7929249
  90.3612328  18.8646293  93.1118298  10.4762530  26.0567117  85.1842499
  11.2284839  26.1308122  84.5969772  10.1947820  25.1457977  85.0991631
  58.6595154  59.4678354  15.9517646  58.2905054  58.9886618  16.6936910
  57.9446983  59.5136404  15.3168118  70.0116587  59.8435831  13.6164367
  69.1098738  60.1492071  13.5183799  70.1280546  59.2097855  12.9086316
  74.2166424 108.6632442  77.5067282  75.1586628 108.7963581  77.6121330
  74.1126871 108.4008694  76.5920830  49.2705631 101.4087582   0.6271109
  49.7048187 102.1765995   0.9986974  49.9650621 100.9426689   0.1616428
  11.2504804   5.2712780  59.2279243  11.4387965   5.4426694  58.3052111
  10.8910453   6.0954881  59.5561266  96.1827946  32.7697754  94.6578503
  95.5780792  32.1195555  95.0152969  95.8062172  33.0066848  93.8103294
  97.0747089  38.6064935  72.7477026  96.8299294  39.5313835  72.7776241
  96.4411449  38.2102919  72.1494961  94.2554474  29.9709821  53.4376144
  93.5389042  29.7002649  52.8635931  94.3819904  29.2290163  54.0289736
  13.6396587  17.6355648  90.0317097  14.0665555  18.1389034  90.7249928
  12.7042508  17.7174401  90.2175617 113.6471081  50.7361317  78.3688784
 113.6424160  51.6875744  78.2641602 113.4116840  50.3988791  77.5045490
  66.2606478 106.4505005  65.8979988  66.0831308 106.4717579  64.9576426
  65.8334541 107.2357655  66.2401915 104.4396210  26.1144280  34.6008110
 103.8183403  26.1784601  35.3261638 104.2272663  25.2832460  34.1762280
  35.7997704  35.6134605  31.9126058  36.1716461  35.1868892  31.1406112
  35.2210951  34.9539495  32.2952437 104.2622566  79.8087883  31.1414766
 104.7504044  80.6072140  30.9403324 104.2690849  79.3114424  30.3236556
  11.4159238  43.2017279  12.8625619  11.9489145  42.4176407  12.9943228
  11.9816411  43.9243746  13.1345439 113.2645988   9.8189032  79.7969532
 112.7682018   9.4416696  79.0706539 113.3618927   9.0988582  80.4200935
  14.4953322  72.4077082  16.2069130  13.8583136  73.1221008  16.2160635
  15.3326225  72.8356886  16.0280061  10.1401627 108.1827641  19.7385752
  10.2071989 108.1237984  18.7855482  10.1984358 107.2759151  20.0393486
 101.7194176  23.6336970  91.7875290 102.4094582  24.2292595  92.0797348
 101.6702652  22.9687405  92.4742985 112.6854229  16.8266153  42.8953695
 113.6284065  16.6766357  42.9625797 112.4288654  16.3804913  42.0882845
  96.6441917  27.1930647  88.9376926  96.6135788  26.3328981  88.5188866
  97.4761391  27.5696540  88.6508465  67.9198027  18.4269059  75.4392338
  67.9162025  18.8367724  74.5742321  68.7486553  18.7019336  75.8311415
 115.5315399  65.3435469  12.2707617 116.2370491  65.8682251  11.8923533
 115.1758957  64.8512220  11.5309191  91.9816780  40.8491564  55.1857090
  92.4903107  40.1347876  55.5693865  91.6809273  40.5043793  54.3449306
  60.3740549 106.9092369  72.6335907  60.9633303 107.4486637  72.1063232
  59.9421215 107.5298309  73.2205677  21.9949532  80.3949165   4.4788665
  21.9795704  80.9099197   5.2855688  22.0497918  79.4865322   4.7756302
 105.4738522  64.7663593  48.0114031 105.7597065  65.6786346  48.0591822
 104.8024750  64.7611523  47.3291588  28.1136990 100.5001354   2.0923285
  28.7523770 100.6055737   2.7974552  28.4496617  99.7703075   1.5720239
  92.3616409  34.4540668  84.6807289  92.3212433  33.5347533  84.4171715
  91.4462852  34.7136807  84.7853661  36.1768079  78.8341522   9.7915983
  36.4818072  79.4722366   9.1465783  35.2683067  79.0822077   9.9628365
 100.1675892  33.6307812  93.3913040 100.6961727  34.1540742  93.9938068
  99.8537827  32.8985977  93.9220238  95.4510117  36.0593605  90.6144333
  95.5316067  36.0299468  91.5677738  94.9386406  35.2816677  90.3932762
  16.2799716  88.3532429  24.1577339  16.4505947  89.1492462  23.6542511
  16.7850065  87.6741219  23.7105536  18.0207968  23.6426044  59.8201990
  17.5317264  23.0417800  59.2580175  18.7610316  23.1250763  60.1371384
 103.6738205  23.1880403  82.8006172 103.6731434  23.2155442  81.8438053
 102.8388500  23.5827374  83.0521584  12.0269942  29.0650773  80.3383255
  12.8673244  29.5198488  80.3954124  11.6809630  29.0883589  81.2304878
  19.7562087   1.0925414  29.2792201  19.6042943   1.8188661  29.8838735
  20.5124760   1.3668703  28.7605333  48.2646894  30.2423286  83.0095005
  48.6545038  31.0624385  83.3123112  48.1714153  29.7143340  83.8024426
  88.8950729 109.5348358  92.8915787  89.1050339 108.6594963  93.2170582
  88.0399036 109.4360161  92.4730682  12.4117315  55.0903654  53.6773920
  11.8614888  55.3629684  54.4116592  12.1026659  55.6149530  52.9387999
 111.7500305  31.0882068  87.3131561 111.1217690  31.5527964  86.7602825
 112.3911667  30.7307100  86.6988468  22.8576326  30.7699728  94.3469238
  23.1474614  30.7551503  93.4347820  22.1808529  31.4464045  94.3722343
  34.1536665  65.7739830  68.4189272  35.0210214  65.5402184  68.0883503
  33.5696602  65.1125574  68.0478764  39.2340302  11.9045711  60.5097961
  38.6544418  12.6425302  60.6988096  39.9902439  12.2990966  60.0753784
   8.2648104  34.0111279  89.2484474   7.8732216  34.6268296  89.8679638
   9.0079659  34.4859195  88.8762569 105.5224419  48.0834103  80.1019192
 105.0240612  48.7959385  79.7017336 105.1882267  47.2914124  79.6808815
  16.4727318  77.5879192   5.1475680  17.3868263  77.3840094   5.3452682
  16.4152503  77.5298929   4.1938591  48.9610720  90.4479122   0.7560202
  48.6321449  89.9695969  -0.0050663  48.2452965  90.4100037   1.3904178
  60.4637241  94.6979523  41.5834808  61.2747335  95.1268578  41.8565083
  60.1741457  94.2173386  42.3589706  83.7694931  32.1787405  91.1746788
  82.9046631  31.8229389  91.3788986  83.5902691  32.9500508  90.6369114
 103.5022259  47.0761585  71.4954042 104.3734646  47.4391127  71.3359308
 103.1562424  47.5942945  72.2220898  44.5804167  89.7424507  13.0239165
  43.8187933  90.2525711  13.2994878  44.2398500  89.1435051  12.3594463
  68.8964319   7.3989290   7.1055239  68.6375189   6.5496296   6.7479128
  69.0924692   7.2217262   8.0255246  31.7033148  50.2280426  63.5766697
  32.0578933  51.1072874  63.4446430  32.4156880  49.6417332  63.3217239
 109.4510174  97.7482128   5.1340902 109.3364716  98.5873699   4.6880752
 110.2608490  97.3915672   4.7691193 102.9992294  52.3242998  78.8922548
 102.7513981  52.7302074  78.0615616 102.1980190  52.3415661  79.4157076
  14.3805635  36.1617136  73.2468128  13.8683009  36.6921782  72.6365471
  14.5807779  35.3624392  72.7596712 110.9061432  40.0365162  35.9210849
 111.4840126  39.8562098  35.1796079 110.2200127  40.5973005  35.5591798
  97.2074318  36.2273502  63.4060764  97.9675865  36.3020158  63.9829779
  96.8721771  37.1210766  63.3347607  45.4218149  77.0435619   2.0246698
  46.0381603  76.3298512   1.8604401  44.9490070  76.7751932   2.8124928
  11.8989611  57.0699072  70.8798027  11.0550344  56.8371725  70.4926968
  12.5401127  56.5693474  70.3752279 108.1948376 107.1277332  50.6076956
 108.4190464 107.9705620  50.2132463 107.9971600 107.3356819  51.5208817
 115.0390339   4.6743017  82.5806141 115.9451008   4.6813446  82.2720146
 115.0357056   4.0420806  83.2993126 110.9485912  56.9932556  51.4879751
 111.5828133  57.2324228  50.8121157 110.0957966  57.1465921  51.0811901
 115.6043816  40.9673309  79.7599983 115.5280495  41.8175125  79.3268681
 115.4701996  41.1585379  80.6882572   0.0081018  99.6482754  62.4145794
   0.7610849  99.0666008  62.5190067  -0.6009623  99.3772888  63.1014776
   6.5009040  29.4756722  76.4987898   6.7307878  30.1517224  77.1362400
   7.3428482  29.1326094  76.1993456  30.8467627  79.9975014  10.3170085
  30.5909085  80.5415630  11.0618401  30.6538415  80.5360508   9.5495582
  56.1532497  64.3677950  13.1220758  56.4720392  64.2800951  12.2237921
  55.5998421  65.1486063  13.1046677  86.4866734  24.7727823  80.2132702
  85.6868935  24.7150636  80.7360077  86.8880749  25.5997610  80.4801273
  18.6798489  51.1141920  61.0070801  18.6879051  51.9128370  60.4795074
  19.5711577  51.0439682  61.3489389  49.8087645  19.4349599   9.3463868
  50.4368114  18.7238324   9.4732231  50.1012421  20.1223946   9.9448204
  33.6091375  28.5836649  76.1650801  33.9887071  27.9728627  76.7968082
  34.2723274  29.2664266  76.0638428  90.2039242  29.5183825  86.4032841
  89.4162083  29.2677259  86.8859005  90.2110100  30.4749751  86.4366436
  29.6854591 107.8994751   1.6154502  30.1074505 108.7483025   1.4826010
  29.5151305 107.5756359   0.7309484  35.2609515  82.9216862  20.6689072
  35.6941795  82.0966721  20.4500794  35.3703451  83.0057812  21.6161108
  10.7833374  15.8778369  82.9845333  11.4581907  16.5134847  83.2227707
  11.1163974  15.4615080  82.1895695 101.1190987  38.9904642  46.9031572
 100.4628754  39.2180943  47.5617790 100.6948376  38.3240557  46.3626671
  83.5712147   1.3294363  23.0756164  83.3574295   1.9569471  23.7660909
  83.2826424   0.4849415  23.4217191  37.6649690  56.8735981  23.3154631
  38.3107066  56.7645693  22.6173472  38.1382585  57.3314905  24.0101314
   0.3128028  47.2461367  92.6721859   1.2070184  47.5837612  92.6210213
   0.3182634  46.4681339  92.1145821   4.9397755  62.5324965  79.1341782
   5.2240533  62.6971769  80.0332355   4.2408845  63.1689739  78.9835787
   0.3327795  27.5208950  66.2958574   1.1891702  27.2303653  66.6095781
   0.1741298  28.3431005  66.7595816  14.1704881  89.2091370   5.8002627
  14.6898723  89.9999237   5.9456098  13.7560463  89.3479443   4.9486756
 100.2397060  27.7672386  93.1363201 100.9892273  28.2122350  92.7408314
 100.4450989  27.7365255  94.0707207  75.9534121   7.7602601   1.3845268
  76.3253689   7.4691826   0.5519692  75.0087261   7.6503223   1.2762788
 104.8100471  89.0659904  91.7211151 105.2575588  88.2307720  91.8567085
 103.8852501  88.8321018  91.6418457 100.8362961  22.4189377  70.8008385
 101.0547447  21.7590261  71.4588881 101.6418648  22.9243279  70.6918478
  23.3258581  99.9076462   2.7734569  24.1187215 100.2660942   3.1723529
  23.4007096 100.1341057   1.8464479 113.4732533  26.9678307  88.8529873
 114.1291523  27.6277995  89.0776634 113.9676476  26.2818003  88.4044743
  58.3327150   0.9551679  10.8890545  58.4127426   0.5127849  10.0439954
  57.6212788   0.4946579  11.3340509  13.0383325  12.2090864  55.8681107
  12.9875815  13.0528200  55.4189253  13.1864846  12.4351358  56.7863607
  11.0569274 102.9850101  12.6367724  10.6713581 103.2034874  11.7883420
  11.9580817 102.7347374  12.4330127   2.8862458  47.8024435  77.7924347
   2.8870028  48.4076977  78.5339880   3.0692005  48.3547115  77.0323324
   6.3575858  76.5869665  45.7057476   6.7862606  76.9050550  46.5002871
   7.0635223  76.1907864  45.1949358  19.9111414  85.6832790  30.0927567
  20.4488087  85.4845905  29.3261600  19.2211688  85.0199509  30.0798154
   5.2107507  63.7607288  53.4051704   5.6404579  63.3209562  52.6715565
   5.7159108  63.4942627  54.1733074  46.1841917  89.0444946   0.3461318
  46.2279987  88.5000610  -0.4399337  45.2860689  89.3753242   0.3586060
  91.3867664  66.6375923  90.7106972  91.7965126  66.1869144  89.9723053
  91.3050747  65.9647036  91.3865471   7.0770121  26.9086266  62.9037380
   7.9073179  27.2331643  63.2523060   6.9195169  26.0934734  63.3801365
  24.1005158  64.0780163  12.0213675  23.6496973  63.4175539  12.5474703
  24.5701408  64.6137810  12.6606131  41.5343189  85.0552845  23.3603644
  41.2741661  84.1353703  23.3122802  40.8731794  85.5183697  22.8458977
  92.4550915  36.8195748  71.0161448  91.8761921  36.5555143  70.3010368
  91.8746376  36.9155359  71.7711973  62.9042244  97.0906639  67.3403406
  62.7094173  97.7785015  66.7038155  62.4279308  97.3518181  68.1284857
  22.7254128  78.8906384  26.7487717  23.1047869  79.0888119  25.8925986
  23.1442118  79.5107698  27.3456597  36.5854454  95.2241230  10.3467917
  36.5801692  96.1808777  10.3182375  36.6040921  95.0124550  11.2801099
  93.0039692  51.3927746  88.1143856  93.5328293  52.0720196  87.6958561
  92.8900528  50.7264042  87.4367428  68.0503368  86.4017200  12.8028023
  68.7722254  86.1419296  12.2304177  68.1441593  85.8437729  13.5748935
  21.3233352  71.8252325  12.8467119  21.5886617  71.4438009  13.6835766
  21.6265202  72.7321196  12.8899801  40.7102108  98.9621449  12.3269916
  41.6190100  99.0938187  12.0568514  40.7388449  98.1942081  12.8976738
 102.2637558  41.9292688  75.7912445 103.0147171  41.3465214  75.6785822
 102.4038696  42.3381281  76.6453171  94.6480560  66.1781931  74.5198584
  94.8297024  67.0977402  74.3257809  93.7101841  66.0795355  74.3558884
   3.5964510  41.5833902  94.3085861   4.4248086  41.1298752  94.1524410
   3.3882797  41.9970894  93.4708786  74.6448898  39.6056199  91.5883160
  75.0184727  39.7560787  92.4566650  75.3987741  39.6137738  90.9985447
  82.0519733  14.1689038  62.4084139  81.2013149  14.3416977  62.0049906
  82.6883698  14.3804491  61.7254114  10.2884150  29.0601683  57.5797129
  10.8042955  28.3854675  57.1382618  10.2763891  29.7933340  56.9644451
  90.2811146  28.8223457  76.0301924  89.3729973  28.9174438  75.7429409
  90.2991009  27.9854131  76.4943600 107.7138996  22.8962994  44.0788174
 108.4588432  22.5592470  44.5765018 107.0833015  22.1761894  44.0743637
   8.7585145  10.0321507  26.1102200   8.8664633  10.6566012  26.8276048
   8.7847686  10.5697834  25.3187084  12.3608696   7.6596755  24.1732240
  13.2374096   7.6222968  23.7904549  11.7813265   7.8228432  23.4290886
  94.9840260   7.1330768  26.2420797  94.3887329   7.6117575  25.6652498
  95.0286007   7.6661181  27.0358753  86.9389439  98.1035614  25.9862161
  87.3854256  98.8064480  26.4582777  86.0826206  98.4697533  25.7652283
  30.3027177  46.0288668  21.6638422  30.4509258  46.0726166  20.7191992
  29.4190764  45.6714344  21.7513466  92.1514511 107.2192860  50.0672197
  92.5526524 106.7652321  49.3262100  91.9482136 106.5238190  50.6927252
  53.5854292   0.4628397  40.3877211  54.0278578  -0.3339340  40.6803608
  53.8999653   1.1436810  40.9824896  58.4736681  94.7122478  39.7748184
  58.3483028  95.6510353  39.6362948  59.2604876  94.6530628  40.3167057
  67.4018192 104.6581745  22.2096944  67.5267887 103.8751221  21.6735601
  68.2598257 104.8190498  22.6023459  56.6796923  37.3632836  89.5775032
  57.4379110  37.8791046  89.8518467  56.1448050  37.2849250  90.3674316
  34.7594714  52.6420307  88.3117199  35.6078529  53.0342054  88.5183144
  34.1235185  53.3302021  88.5071945  95.9853363   2.3901641  22.9573464
  96.0238457   2.9873082  22.2102380  96.3302898   1.5630843  22.6209235
 104.0354633   3.6553100  25.1066422 103.7876987   4.3000889  24.4439912
 104.0101528   2.8166175  24.6460056  10.4560792  30.5976367  51.9683313
   9.6903181  30.8752823  51.4655828  11.1686563  30.5803800  51.3294506
  94.7823715   8.4613109  14.9515617  95.0387573   7.6562262  14.5017421
  94.2482185   8.1643587  15.6882668  54.1135311  22.3851514  21.3516641
  53.6030293  22.6127243  20.5745959  54.8935747  21.9504905  21.0069489
  76.7877388  92.1900368  57.0016384  75.8906126  92.4844456  57.1588802
  77.3348856  92.8574467  57.4156761  96.2410355  90.1220131   0.1388826
  96.0390377  90.4007053   1.0320593  95.4225826  89.7465229  -0.1857318
  52.1648788  92.9814720   6.3451111  52.7598381  92.2473335   6.1924714
  52.2197962  93.5045433   5.5453569  69.7762537  71.9482470  93.7938404
  69.1359377  71.2726784  93.5706139  69.2818594  72.7672100  93.7605381
  25.0556278  24.3075824  49.5013523  25.7066464  24.1860771  50.1924706
  24.8106599  25.2308702  49.5627069  91.2804794 104.1909122   3.9811012
  90.9782696 104.9319077   4.5062810  90.7968140 103.4401321   4.3255419
  22.0615077  35.6585455  23.9614987  21.5243912  35.4142499  24.7151947
  22.0078397  36.6136765  23.9286590 107.3626328 107.2883034  10.6011641
 108.1772804 107.0481491  10.1596856 106.8288517 106.4944744  10.5673158
  25.4337168   5.3215694  40.0600672  25.2757382   6.0478723  40.6631899
  25.6880403   4.5920071  40.6251240  13.0222178  16.7138553  19.9553442
  12.8265917  17.6313233  19.7650421  13.1417382  16.6863632  20.9046555
   7.8438556  25.2808928  44.5089912   7.9243606  25.4636383  43.5728550
   7.6508725  24.3444514  44.5544958  68.6856365  77.6071930  90.5347443
  68.0795097  77.3977184  91.2453556  69.5330191  77.2823715  90.8391571
  28.0306625   0.1876968  23.4864545  28.1413174   0.7878423  22.7490187
  27.7723742   0.7503465  24.2164850  99.6273804  74.3321276  32.9453993
 100.4987717  74.7020674  32.8037977  99.3674946  73.9962244  32.0875788
  55.5281734 102.0605564  26.9910336  55.7520390 101.1643982  26.7400241
  56.1071491 102.6092243  26.4618969  69.1758299  27.1923256  90.9087753
  69.0921021  27.1489596  91.8613148  70.0666237  27.5098801  90.7608509
 107.5273609   0.9787256  13.4490299 107.9923820   0.1802921  13.1990480
 108.1703377   1.6777053  13.3297026  35.6659532  40.5241823  21.0276103
  35.2454734  39.7757745  20.6041574  35.0581622  41.2505198  20.8888245
  28.5505724   2.1408571  21.4341760  27.9435444   2.7513403  21.0157728
  29.4190145   2.4707726  21.2035370 107.4588776  91.8049812  48.6852455
 108.1372833  92.3606396  49.0689707 106.6370010  92.1673775  49.0160418
   0.1633566   2.9023489   9.6795976   0.8474900   3.2178250   9.0891165
   0.3408767   1.9664547   9.7735143  41.4596367  94.1387272  29.7112584
  41.1263418  93.3684254  29.2510557  42.2784758  94.3499660  29.2628074
  15.6198084   6.3524789  50.5466509  15.1862979   6.8071300  49.8244381
  15.4157305   6.8801379  51.3187647  93.7190533 100.3984356   0.2034283
  94.1865730 100.3190804   1.0349114  93.1026936 101.1173820   0.3428738
   9.1549706  21.6084051   8.6562836   9.4022161  20.6865430   8.7288743
   8.1980878  21.6023397   8.6801440  35.6310153  20.2832580  14.9181271
  36.5172362  20.6439495  14.9454415  35.1273203  20.8402824  15.5116284
   1.7089662  17.8406203  21.9163156   2.2068484  17.0448506  22.1036577
   2.0026927  18.1074214  21.0452390 108.7083149  92.3995018  60.8188152
 108.3102322  93.1863213  61.1912012 109.3809795  92.7301979  60.2235031
  26.1211777   7.4446410  13.1832016  26.2541318   8.1196237  13.8487494
  26.5776372   7.7771401  12.4103355  57.3331118  23.1606054  91.7771912
  57.5204515  23.8418674  92.4229622  57.8202343  22.3969007  92.0865345
  61.0383224  17.6521325  23.9024615  60.3411770  17.0714712  23.5974097
  61.6223621  17.0826530  24.4032812  89.0349007 105.4874706  19.3171465
  89.7706604 105.8871555  18.8533139  88.4616852 106.2223434  19.5353854
  90.5541801 104.8792267  25.1738119  89.8210049 105.3566456  25.5620885
  90.1860142 104.0289307  24.9336696  24.9460340  17.3830509  60.8756495
  25.1193929  18.2007122  60.4091644  25.5230284  16.7427850  60.4592752
  90.0372028  94.3737030  35.5820847  89.9677181  94.7517681  34.7054577
  90.8809566  94.6841526  35.9106183   8.4099591  13.5117936  47.5096607
   7.6577187  13.2081878  47.0015335   8.7106186  14.2945695  47.0480347
  91.0787487  82.1455097  12.9971230  91.8606567  81.6023540  12.8980207
  90.5289841  81.6634750  13.6148834  24.3833041  13.9233518  11.7675519
  23.8888288  14.4421804  12.4020123  24.1371918  13.0175471  11.9551122
  19.4078493   9.1515648  13.2364333  19.1929412   8.2785237  13.5648322
  19.3224621   9.7224128  14.0000248  52.8372335  87.6325512  19.4444454
  51.9947910  87.5373650  19.0000832  52.7653360  88.4605408  19.9193120
  99.2707062  82.6339531  37.4247718  99.4618893  82.3213196  38.3090448
 100.0668144  83.0920506  37.1553469   8.8130325   5.8424938  21.5014458
   9.3890375   6.5280545  21.8397593   9.3082392   5.4456389  20.7848501
 109.8883629  96.2151814  19.9462521 110.6023502  96.8526077  19.9342942
 109.9809647  95.7363415  19.1226208  97.1006680  73.4316778  45.0750446
  97.9452324  73.8820028  45.0626135  96.4695072  74.0988398  44.8052835
  16.0445344  17.2996271   6.4886594  16.0883570  17.2546244   7.4437958
  16.9382799  17.1164680   6.1989951 104.2750072  92.7495193  27.1682858
 104.2782974  92.7913666  26.2120056 105.0339222  93.2691574  27.4333787
  75.9243917  74.3025827  19.3482494  75.1135159  73.9558792  19.7204161
  75.8018255  74.2341137  18.4014010  86.8916702  92.2041798  23.8012314
  86.3221836  92.9584026  23.6493635  86.7077160  91.6141415  23.0703092
   4.8971045  23.7565827  22.0640349   5.7516241  23.7893963  22.4940968
   4.5293143  22.9126215  22.3261309  10.3514040   1.5187106  10.7832897
  10.8068705   1.0631378  11.4912701   9.4236761   1.3496457  10.9475136
  70.1136541 107.9922867  38.4014511  69.9268866 107.1245766  38.0430770
  70.7289553 107.8288460  39.1162395  99.0151024  20.3947639  41.8448210
  98.8599014  19.4634724  41.6872120  98.3249187  20.6525397  42.4559116
  16.0520053  22.2073913   0.5853697  16.7108309  22.8771710   0.4021369
  15.8029127  21.8742704  -0.2767300  77.3466063 106.4537811  54.5940447
  78.1543922 106.8230820  54.9508715  77.6375532 105.7209015  54.0513897
  49.1038752  22.3973775  14.3208766  48.5367584  22.3525000  15.0906789
  49.2960739  21.4833760  14.1113687  70.5409288  92.5441933  47.3584747
  70.2211428  93.4459877  47.3313808  70.4614019  92.2346497  46.4562035
  74.5584059 106.5674686  38.3549285  73.7922049 106.0960674  38.6819577
  74.4290876 106.6065884  37.4073100  31.9209242  10.3793108  66.0611439
  32.4816990  10.0304163  66.7539883  31.6911411  11.2593567  66.3593912
 113.0351830  12.5923598  11.9560134 112.9237938  12.6253331  11.0058892
 113.8321209  12.0783353  12.0860350   9.2080265  15.2669454  26.7659688
   9.1438347  16.1061788  27.2218204   8.5762745  15.3343296  26.0500216
  82.1893024  87.2773743  28.4695268  82.7854156  87.9461956  28.1325459
  81.4031219  87.3636341  27.9303479  68.0721951 100.1837349  47.1269321
  68.8253307 100.4974747  47.6275158  67.8095818  99.3768024  47.5697994
  99.7744846  44.5838785  60.8211899 100.5516338  45.0049543  61.1885786
  99.5878887  45.0794888  60.0238276  50.8460188  23.8858724  93.6090851
  51.0679770  23.1845570  92.9966068  50.1148129  23.5364795  94.1184902
 103.6136723  27.8072906   8.3037692 104.2297554  27.9356050   9.0250254
 104.1635036  27.5602031   7.5602150  82.7415180  97.0568180  50.7339239
  82.4963474  97.3002052  51.6266108  82.9305077  97.8898048  50.3018951
  23.5971451  29.0065837  10.9745014  23.1105256  29.5837402  11.5629959
  24.4553804  28.9117312  11.3876200  32.7048969  12.2123110  19.3494022
  32.1809673  11.5910244  18.8437021  32.9171610  12.9084194  18.7276220
   4.8602244  12.8823721  15.9160459   5.6632763  13.3117950  16.2108946
   4.5620114  12.3838246  16.6768026 103.8801861 100.5304241  19.1184509
 103.9284325 101.2315845  19.7682893 102.9529285 100.2947712  19.0887499
  22.8825879 104.7147083  16.2696624  22.0118856 104.8454285  15.8941281
  23.4303260 105.3707123  15.8385241 115.5964375   6.7782533  31.3041830
 114.8055553   6.6441792  30.7819128 115.7922745   7.7101862  31.2073421
  98.9414787 103.5462189  58.2145691  98.9336777 103.6146355  59.1692924
  98.6186504 104.3946648  57.9110003  86.4203262  89.0664577  39.7800326
  86.1256409  89.5253849  40.5666590  86.7750645  89.7561836  39.2190814
   1.7981082   2.6947761  29.6712208   1.8117505   1.8923035  30.1928377
   2.3703369   2.5066504  28.9273167 108.7796497   4.9451336  43.5748529
 108.2080173   4.2574105  43.2335377 109.5509148   4.9184626  43.0085707
 108.6413097   6.5925783  37.4744844 108.4066296   6.6795224  36.5505815
 107.8051662   6.6320491  37.9387331  89.7716904  73.6127853  18.8336027
  90.0863457  73.9161396  19.6851909  90.5299282  73.6944818  18.2551265
 107.5413036 101.6723537  31.4346933 107.0027637 102.0520782  30.7404208
 108.0760765 101.0145092  30.9902930 107.6376629  98.8523102  35.5982566
 106.9611359  99.4174957  35.2252817 107.8816414  98.2660484  34.8820090
  53.0523252  95.1105690  49.6151686  52.4542904  95.6072903  49.0567303
  52.5968122  94.2848015  49.7790146  22.7741957  74.3997765   9.9988902
  23.1320477  73.7856627   9.3577671  22.5083685  75.1593161   9.4805634
  10.8847010  81.5433025  47.3455715  11.7540765  81.3980865  46.9723034
  11.0460865  82.0614338  48.1340694  12.4473906 107.4038219   1.2433201
  11.7863882 106.9482422   1.7646208  13.2779336 107.0135784   1.5156037
  72.7110481 106.2549496  19.0291309  73.1241226 105.5822372  18.4877861
  72.5882530 106.9968891  18.4369469  95.8251858   5.8039361  22.5946403
  95.6317043   6.7413414  22.5864053  94.9892426   5.3886908  22.8067923
  47.1089602  44.0339136  94.0130424  46.4881277  43.5893440  94.5902348
  47.5918531  44.6250963  94.5905781  80.0324917  71.0840225   4.5649058
  80.3904247  71.9486237   4.7663581  80.3265095  70.5288649   5.2871162
  68.7270212  98.5896206  27.0351243  69.4015646  98.1054306  26.5589118
  68.1580162  97.9117680  27.3997831  90.8298969  29.1741800  61.2158155
  91.7714500  29.2986631  61.0966539  90.6948376  28.2347822  61.0912371
  67.9509020   9.4035333  28.7886739  67.2982597   9.8824847  28.2778955
  67.5186491   8.5810125  29.0185571  50.6143379  31.3897181   0.3129027
  50.7163429  31.0647368   1.2074491  51.1449385  32.1859193   0.2853658
  45.3249502  37.8345013   6.8326682  44.9216509  37.0185137   7.1288866
  44.5924616  38.3616686   6.5136153  14.9279428   0.2334048  11.3916898
  15.0948167   0.0988258  10.4588056  15.6338608   0.8118810  11.6802669
  28.9004755   3.5249710  12.7560449  28.2155538   2.9617503  13.1164563
  28.7612629   3.4955996  11.8094778  32.9023576  33.0922699  28.6530614
  32.1656680  33.0228043  28.0458593  33.5212302  33.6750793  28.2131076
  14.6022129  50.4967022  15.3970420  14.0358746  50.9878969  14.8018777
  14.2561591  50.6873608  16.2688947 103.9001083  12.2423410  38.6834049
 103.2103825  11.5804291  38.6346221 104.3514729  12.1804154  37.8415799
  19.7992587  15.4934096   8.9210987  19.0992224  15.1156843   9.4535518
  19.7773194  16.4283907   9.1249615  57.9794693  46.6517067  89.4941711
  58.6540556  47.3096132  89.6624756  57.1591377  47.1449471  89.4919205
 112.4833870 100.5682182   6.2388939 112.9870892 101.3809967   6.2825060
 111.8045044 100.6710815   6.9058001  34.8820066   4.7690505   6.5595788
  33.9735317   5.0464016   6.6778147  34.8825240   3.8421977   6.7986917
  25.5276489  23.5689616   5.1017839  25.0264025  23.8029170   4.3205997
  25.8421707  22.6818180   4.9277616  40.3851223   4.2620900  46.1683130
  39.8365116   3.9005011  46.8643761  40.8710718   3.5095453  45.8310223
  29.7562885  12.1746624  19.3082345  29.4690943  12.4706233  20.1720381
  29.9534035  11.2455010  19.4267166  28.2979417  33.3326864  31.2144232
  28.5518336  32.5899410  30.6666112  27.9698467  32.9345417  32.0206904
  49.4818735  53.8400364  25.2510548  50.3798532  53.6264038  25.5044770
  49.2528105  54.5943737  25.7939529  22.0115519  16.3026321   7.5179893
  22.8098464  16.2922251   8.0460501  21.3084841  16.1265337   8.1432229
 112.4404716  32.8578997  30.6913972 111.7024136  33.2819438  31.1292243
 112.4822044  31.9854951  31.0830617  66.5873528  96.2822247  17.3919642
  66.6686869  95.3350163  17.5034368  66.6357899  96.4170361  16.4455450
   2.9414672   5.2047646  17.3816884   2.3293734   4.5517215  17.0424139
   2.6259965   5.3922224  18.2657528 112.7270412 105.2434826  55.3592300
 113.6574745 105.4624081  55.4101467 112.4863911 105.4300880  54.4517612
  24.5343304  15.8182228  28.8989902  25.4237747  15.5411136  28.6791444
  24.6075153  16.7605853  29.0500832  36.0168815  23.9374876  20.5516362
  35.7625437  23.2047033  21.1125016  35.2812099  24.5474434  20.6061864
 106.0093212  87.1041107  34.8554492 106.9210625  87.3953056  34.8680234
 105.5533504  87.7668095  34.3366480  99.6159554  92.5018501   4.4252625
  99.5854187  91.5486431   4.3433633  98.7184143  92.7859783   4.2522651
  32.5061870   3.3313569  41.7657423  33.4297419   3.5497454  41.6409111
  32.5015020   2.7244803  42.5059509  93.4715843  77.8623915  24.9508643
  93.3685017  78.5130215  24.2563963  92.5966358  77.7751255  25.3291106
  20.8302379   5.5943304  41.4662170  20.9970903   6.4949602  41.7441750
  21.6078401   5.3507060  40.9640121  23.0816722  52.8343821  35.2736902
  22.2495770  52.4484205  35.0000477  22.9014087  53.7723398  35.3367019
  24.9803114  95.5053711  25.5856824  24.0585756  95.6335354  25.3616118
  25.3744245  95.1546383  24.7870016   3.1766832  27.2860050  47.8575516
   3.6805803  27.9212856  47.3488903   3.1135264  26.5192389  47.2880650
 105.4695511  19.2927361  42.6798916 104.9385071  19.9926031  42.2998714
 105.5971050  19.5567119  43.5910845  76.2197304  99.5877457  36.3561893
  75.6273460  99.4063091  35.6265378  76.8843794  98.9011002  36.3015294
  17.6518142   2.5639459  35.0753975  17.0000732   2.9468590  35.6626320
  17.2247767   1.7849365  34.7190046  28.1263947  18.5709870   3.4664011
  28.7940121  19.1016960   3.0318156  27.8085518  19.1235566   4.1804570
  51.6159916  53.7561750   5.4006612  50.7888603  54.1041327   5.7338309
  52.2858858  54.3215179   5.7851863  35.4745889  22.0591521   6.6720670
  34.5906496  21.9522047   7.0234197  35.4005408  22.7869868   6.0548109
  40.4055882  -0.1206132  13.2046461  39.8644900   0.3899871  13.8069165
  41.2974453   0.1889004  13.3628535  36.9529057   9.4604778  12.8222740
  36.0950232   9.8826873  12.7774668  37.5497389  10.0866890  12.4125397
  24.9129248  36.7591500  18.9847529  24.4789267  37.4530768  19.4810832
  25.1829243  37.1810460  18.1690717   4.2877185  80.7029152  91.9066238
   3.4099695  80.3735065  91.7135525   4.1580990  81.3243961  92.6229954
  20.5290031  15.6581426  28.8315225  20.5487418  16.6044390  28.9742351
  20.1286268  15.3044403  29.6257663  49.1591978  23.2684016  74.8490715
  48.3805609  23.8040304  74.6972275  48.8604879  22.3686671  74.7168636
 105.0119972  88.1038761  18.2935607 104.8583889  87.8509140  17.3832643
 105.9527779  87.9813766  18.4206963 112.3301697  20.2364564  40.9410715
 113.1364918  19.9931204  41.3958979 112.3653793  19.7527802  40.1158142
 100.6862545  84.0004349  47.9041481 100.9635067  84.9084854  47.7824783
 101.4395618  83.5724831  48.3111048  84.3337727  77.8507996   0.4230655
  83.9207458  77.4635267  -0.3487232  85.2392673  78.0090666   0.1561199
  89.7306156 108.7368774  28.1447649  89.1408825 109.3057919  28.6395264
  89.1489983 108.1360245  27.6790237   4.7640303  48.3960390  88.5566330
   4.8145619  48.9587975  87.7839851   4.2776114  48.9134741  89.1984177
  43.4422255  40.2413893  24.5018959  43.6043358  40.3725386  23.5676837
  44.2800331  39.9359918  24.8498082  86.9730949  94.4502068  35.3712273
  87.3774242  95.0539207  35.9943414  87.2096634  93.5801983  35.6927109
  13.4936023  16.6353548  22.9567671  14.1299343  16.1026788  23.4338093
  12.6705623  16.5041482  23.4275341   7.2180808  53.5976887  35.7055426
   6.9378269  54.0740871  36.4870381   6.4260459  53.1582355  35.3960371
  39.5213079  25.8991289   9.9291486  38.7776780  26.0508704   9.3458641
  39.2252326  25.2061796  10.5193961  28.4275079  96.3882637  44.2069006
  27.6657271  96.1734200  44.7452021  29.0895677  96.6791630  44.8340225
   2.5767246  87.6027489  51.1623001   3.3770823  88.0677223  50.9184647
   1.8765259  88.0834103  50.7208061  47.9660702  40.3993511  36.8544865
  48.0095768  40.1940346  37.7883959  48.4490299  39.6899462  36.4305449
  26.9024777  57.7557659  51.0567856  27.5613499  58.3636570  50.7212400
  26.5627551  57.3164845  50.2771378 106.6075420  28.9506054  89.5102787
 107.2354317  28.2426929  89.6546555 105.8897209  28.5395503  89.0286064
  22.6575518   5.0854903  39.5041966  23.5858941   5.2908087  39.6149015
  22.3579693   5.6896949  38.8249183  13.9056718   4.5400229  47.4860001
  13.0460465   4.1275007  47.4017334  14.5002067   3.9520282  47.0201397
  29.7391987  33.7904286   4.3448296  30.2732301  34.5636010   4.1624904
  29.8827100  33.6140633   5.2746314  85.3701591 104.5853996  39.4061279
  85.6234264 104.9478054  38.5571551  84.5357418 104.1467762  39.2400146
  62.3364210  74.4082785  76.7940807  62.4951553  74.6658850  77.7021980
  61.4768839  73.9874077  76.8112564  73.8259220  49.1646194  89.2500877
  73.3359861  49.9808836  89.3496227  73.2207155  48.5754156  88.7997627
  53.9016485   6.1486995  32.0938277  54.3254852   5.2942264  32.0133781
  54.6087599   6.7801845  31.9617152  20.7197261   4.2602715  32.7059197
  20.2099848   3.9598179  31.9535089  20.0778031   4.3478143  33.4105515
  59.9576712  36.8829250  32.7636814  60.6354618  36.9746685  33.4333181
  60.1783657  36.0698557  32.3093247 113.7670803  19.2069447  36.0055876
 113.6792469  18.3290541  35.6343389 114.7083569  19.3801939  35.9907579
  95.8007717 104.7801876  52.5914240  94.8972416 104.5719719  52.3537207
  96.2792683 103.9627934  52.4531174 105.8414268 107.6039696  14.7819531
 105.1677513 107.1715069  15.3067029 106.5446472 106.9579792  14.7154760
 111.5778637  62.6100063  36.6815805 111.3093662  62.3163414  37.5521564
 111.0908604  63.4221554  36.5419984  15.4050064  10.8740175  29.4347525
  15.2795434  10.6782079  30.3632736  14.7886074  11.5837300  29.2542219
  10.3491986  15.7340050  29.8721266  10.4435122  14.8427784  30.2083611
   9.4059193  15.8961737  29.8847151 114.7075081 107.0505238  12.7374530
 114.2380142 107.4500847  12.0052290 115.1193619 106.2723637  12.3618460
  93.8064480  14.2670190  20.8341932  93.6821270  14.7073781  19.9934435
  94.4547749  13.5861516  20.6543970  79.3175936 102.2334576  16.8963432
  78.6464405 101.7169857  17.3424792  78.9241123 103.0999851  16.7936540
  29.5390844  39.9354792  22.0612001  29.3813396  39.1096473  22.5187492
  30.2093363  40.3749895  22.5844860  87.3286152 103.1336594   2.9699969
  87.5094604 103.7758350   2.2836012  87.6589012 102.3071671   2.6177791
 105.8344173  46.4185858   6.6553760 105.6178188  46.8058062   5.8072132
 106.1448002  45.5380249   6.4444059  14.6752346  90.9411716  22.5102949
  14.2478752  90.3463364  21.8940473  13.9718723  91.2290382  23.0922294
 102.2342491 103.1754208  49.8062754 102.3698235 103.5095692  48.9195967
 101.9241714 102.2787476  49.6795130 109.4678020 104.2455578  25.4558277
 108.8536549 104.5775414  26.1106944 108.9406872 104.1428471  24.6634698
  97.9518795  98.0418777  12.3803103  98.0052948  98.8821507  12.8356373
  98.4123325  97.4290848  12.9536426 101.1062527  75.2488947  36.7212486
 101.8134880  74.6076059  36.7904735 101.3758278  75.8266211  36.0072494
  24.0859795   3.4093377  58.8265467  24.0733910   2.9425091  59.6620989
  24.9871540   3.3207899  58.5162687  49.3650961  26.9370484  41.5721512
  49.0455580  26.2368679  41.0030556  48.6015606  27.4961615  41.7158175
  28.2289100  23.2342172   8.3789128  27.9607058  22.3209190   8.4798390
  28.9757085  23.1998730   7.7811307  97.3211288  13.8469255  58.1698751
  96.7455006  14.1874981  58.8546371  97.5575638  12.9693794  58.4702778
  28.6200809  72.8143120  15.2579069  29.4219732  73.3368969  15.2684081
  28.2261467  72.9972315  14.4049191   3.9552671  17.4534857  53.9140415
   3.6767578  16.5377009  53.9122009   4.8112026  17.4443829  53.4856462
  69.9846983  97.3426628  58.0225658  70.5249882  98.1191349  57.8762531
  69.1133356  97.5963783  57.7182913  26.5905738  67.0871258  88.0060863
  25.7710028  67.0199537  87.5161648  27.2510815  67.2845840  87.3420334
   4.0493673  92.2898769  49.2795706   4.6080601  93.0128002  49.5650244
   4.1266403  91.6379642  49.9761772  82.6184273  94.6488571  37.4721766
  82.1863937  93.8034344  37.3504043  83.1710529  94.7492695  36.6970921
   3.1660691 104.2237186   6.0395187   3.5376358 103.4838676   6.5199196
   2.2791424 103.9423561   5.8149606  32.6095176  12.0835447   8.0237031
  33.1526971  11.8018949   8.7598157  31.7150831  12.0617247   8.3639121
  84.5675564  95.8671665  12.1679294  84.5305538  96.5146923  12.8719032
  85.3768730  96.0695934  11.6986060   9.7167134  20.3052092  70.3662443
  10.0827789  20.3877687  69.4856691  10.4813337  20.2643299  70.9406281
  24.8629999  14.1696644  20.9786773  24.2645979  14.0604675  21.7177463
  25.6837344  13.7760770  21.2748504  72.9269934  63.6733532   7.0145124
  72.4417830  63.4001827   6.2359387  72.4541950  63.2729101   7.7441281
  49.4227362  43.5526323  16.2673581  49.9651814  43.0651426  15.6474113
  50.0111341  43.7513733  16.9957292  41.9499254  70.7069302  91.0637569
  41.6759253  69.8354959  91.3496876  41.5585279  71.3026905  91.7025852
  18.6363029  16.7435002  37.1671224  18.2266521  17.4004734  36.6042662
  18.5215437  15.9186649  36.6952014  95.6889534  64.9135637   6.8882167
  96.1058998  65.1325607   6.0548961  95.2109051  65.7060719   7.1324199
  92.4439430  89.1413975   2.6918876  92.2507191  88.3410645   3.1801093
  91.6047478  89.5989132   2.6401857 107.4184799  76.6326284  21.4363265
 106.5971375  76.1903954  21.6509581 107.9449081  76.5597010  22.2324276
  94.0284443  84.3582439   9.1134411  93.8360214  84.7311592   9.9737555
  93.2787132  83.7941933   8.9237607  91.4001083  86.7599201  23.3720160
  91.0732746  86.2434673  24.1086888  91.7924309  86.1154079  22.7830195
  72.6784754  69.9554920  13.9869046  72.7510309  69.3078518  14.6879947
  72.5477123  69.4360638  13.1936026  49.6131372  35.1347542  88.6784172
  49.4618034  34.8398089  89.5763779  49.7976160  36.0703301  88.7615013
  65.5032921 107.7718258  27.4484229  65.8273220 107.1710873  26.7773390
  64.6639204 107.3992062  27.7183199  82.2234917  95.9982681  20.4326224
  82.4849606  95.7460117  19.5470512  82.3452187  95.2045155  20.9535480
  85.7646847  69.3679380   0.8123776  85.6247330  69.3456984   1.7590308
  85.8042622  68.4470034   0.5544137  75.8089447  83.8118458   1.9226617
  76.2726164  84.0252686   1.1129142  74.9189234  83.6008835   1.6405469
  70.3175259  23.6623168  72.8495550  69.9573755  24.5491576  72.8553677
  70.6103373  23.5286260  71.9480991  42.6018143  13.9162302  80.6432247
  42.4689388  14.8383582  80.8628941  43.0355978  13.9333415  79.7901297
   0.2700998  85.8259964  39.4803143  -0.2687800  86.5217495  39.1037965
   0.1306130  85.0757408  38.9024806  40.0498724  89.8268127  23.9483905
  39.2249060  89.3836880  24.1466618  40.6849909  89.1175270  23.8495088
  13.1861067  17.1650159   5.5834520  13.9928889  17.0940804   6.0936493
  13.4706926  17.4899590   4.7292539  81.5939999  97.6888561  22.4140429
  80.6549549  97.6416111  22.5934553  81.7383862  97.0435238  21.7219949
   6.5887153   3.4794012   2.6313174   7.1378362   3.5143948   3.4145629
   5.9089226   2.8398895   2.8437752 111.6002464  85.6662846  44.8426533
 112.5393963  85.7988548  44.7135544 111.2462521  86.5491295  44.9498987
  30.4884362  28.3367682  89.4486237  30.5652738  28.4807706  88.5054398
  29.7579479  27.7248049  89.5387554 108.6366177  50.4778862  22.0794058
 108.3808613  51.0128927  21.3280129 108.6238956  51.0838270  22.8202891
  80.2174377  24.7016072  54.1041517  80.0845814  25.0869632  54.9702263
  81.0662651  25.0399327  53.8191080  78.0822563  88.7789154  23.1468630
  77.9548359  88.3812809  22.2855401  77.4850845  88.3007240  23.7221432
  60.4960823  69.3504143  28.2817125  59.5479918  69.4627905  28.2129788
  60.8301687  70.2315712  28.4495902  56.9624662  28.8319731  91.4850330
  56.2670469  29.4276905  91.2061977  57.3327684  29.2446208  92.2653103
  99.7848892  98.4273052  28.2370853 100.3056908  97.9342461  28.8710403
  98.9810944  97.9169178  28.1388211  55.2949953   5.8548552  91.4456272
  56.2018824   5.9480882  91.1539078  54.8872757   6.6941810  91.2322617
   2.5578645  64.7503710  17.2504354   2.7985919  64.2831182  18.0504084
   3.0734155  65.5563450  17.2794688 101.1027145  69.4778728   3.9230603
 100.9125805  69.0890741   3.0692938 101.8043423  68.9350033   4.2825571
  93.6743736   2.0385361   0.9956142  94.0370178   1.1935032   1.2613979
  93.4513760   1.9236015   0.0718758  28.8214803   1.9346455  49.0239143
  28.3970022   2.6350242  48.5284138  29.1864681   1.3553098  48.3550453
  91.0556984  76.6191196  44.6603727  91.8900967  76.2005091  44.4487572
  90.5446911  75.9319925  45.0881100  44.6432114   2.0308712  84.3479156
  45.5043888   1.9235350  83.9440823  44.7482824   2.7738443  84.9422073
  34.0409184  97.3323727  17.8840077  34.9965954  97.3815727  17.9062116
  33.7758827  98.0692101  17.3335040  76.2919521  51.5042925  21.5086985
  75.9747362  51.3555908  20.6179142  76.8598461  50.7551241  21.6888952
  14.9307442   8.8982534  63.7138367  15.5955899   9.2485088  63.1209373
  14.9409211   7.9544812  63.5543966  17.5842845   9.1461527  17.3882174
  17.2031212   8.2751667  17.2771776  18.2421529   9.2097449  16.6958320
  20.1340318  87.2820377  26.1472535  21.0534310  87.2300434  26.4084697
  19.7192109  87.8045654  26.8336272  69.8240376  49.5891190  13.3442271
  68.9684248  49.3323231  13.6880505  69.7531462  49.4530821  12.3993993
  74.8810339  34.3871689  92.8221321  75.5083799  33.6667609  92.8827381
  74.0276241  33.9574361  92.7650547  35.8957386  32.8060865   8.6401284
  36.4952183  32.1220517   8.3418810  36.0023046  32.8199267   9.5912766
  89.0976810  93.7456989   7.9867709  89.9354172  93.6444283   8.4386337
  88.8756561  92.8621578   7.6930100 106.5996456  15.8896613  40.3679609
 107.0530224  15.4349446  41.0778284 105.6704044  15.7912683  40.5754614
  85.6570435  68.6491394  15.1745820  85.1114941  68.8503361  14.4142330
  86.5524673  68.8071108  14.8754418  81.4043427  92.1300507  26.8219185
  82.3094177  92.0023155  26.5377617  80.9105682  92.2353077  26.0086870
  64.0973425  32.6643658  93.5365677  63.2902908  33.1686473  93.4335995
  64.3691301  32.4619174  92.6413727  40.2830458  10.4738343  62.7306032
  40.7172966   9.6452737  62.5277662  39.7993326  10.6920421  61.9339609
  77.4586487  81.0691261  13.6911368  76.6959047  81.2666893  13.1476104
  77.2016382  81.3406372  14.5723045  99.5758343  16.4853573  78.2333183
  98.7841988  16.7590630  77.7700233  99.5244598  16.9307041  79.0790462
  80.8498383  66.9461441   7.5328857  80.2631092  66.8171406   6.7876810
  80.3385162  66.6652441   8.2917506  87.8023243  91.7012978   5.2179301
  88.4519386  91.0391426   5.4540873  86.9618893  91.2489414   5.2905828
  53.6853409  23.2648110  71.0547209  54.2284250  22.6442695  71.5407467
  52.9144144  22.7587080  70.7982731  16.5647352  82.6332664  17.7589297
  16.2452257  82.0091629  17.1072793  16.0589623  82.4363041  18.5473657
  64.4179058  55.2533817   7.0858991  63.9328909  56.0784817   7.0715785
  64.4747210  54.9929619   6.1665589  68.8348961  77.4439287  22.4679899
  67.9677963  77.8472185  22.4264121  69.4237423  78.1645870  22.6919198
  99.9231529  53.5883045  38.2572937  99.6277332  54.1133642  39.0011168
  99.8603058  52.6833773  38.5628891  14.0414429  92.7763939   7.5546104
  14.7934628  92.3622799   7.1312892  14.3722832  93.6224365   7.8562593
  18.2224977  69.0511990  22.5733972  17.5123739  69.6454096  22.8160191
  18.2736564  69.1158915  21.6197562   7.7170980  67.7676582  19.5405948
   7.4229127  68.4356689  18.9213598   8.1043857  68.2636356  20.2618766
  71.3589621  76.7661238  53.5348082  71.8084097  76.1854076  54.1488075
  71.2879944  77.5990343  54.0011311  43.1040096  31.2782407  91.9204903
  42.6016855  30.4717994  92.0369053  43.9889812  30.9808016  91.7093277
   3.9798251   4.9918666  44.5217657   4.3131876   5.8266294  44.8508120
   3.9597139   5.1000637  43.5709095 103.6808681  60.3367233  23.8713145
 103.6019421  61.1957979  24.2860317 103.4159470  59.7172689  24.5512605
  57.0165730   8.3006704  82.8986168  56.0870314   8.4312975  83.0860138
  57.4160910   8.1576359  83.7566090 100.5980015  90.6801224  27.7403140
  99.9180126  90.0305176  27.9187965 100.1181316  91.4550877  27.4481130
  36.5567517 102.6056957  16.8445909  37.4155545 102.3691940  16.4942181
  36.6094756 103.5502148  16.9906223  90.1510620  72.1684980  23.1412435
  90.1522923  73.1256771  23.1349564  90.8391666  71.9321775  23.7632465
  68.1057262  99.7842789  29.6822333  67.4948025  99.0478706  29.7089219
  67.7771902 100.3426170  28.9775705  60.1116467  83.3646774   8.6519051
  60.8489466  82.9069996   8.2479954  60.0866508  84.2141151   8.2113642
  92.4547863 107.7833748  13.9773977  92.6193619 106.8431950  14.0494549
  92.4036026 107.9460812  13.0355167  67.5572443  98.5854244  44.1818380
  67.1383286  99.0006447  44.9357224  68.4438515  98.9460659  44.1717672
  79.2535591  83.8760281  12.6242459  78.4491968  84.3919182  12.5685918
  79.9355459  84.5167255  12.8258324  85.0139046  71.7171192  28.2659864
  85.8206177  72.0788860  28.6328292  85.1231575  71.8003607  27.3186922
  65.3544760  96.0305882  56.1006403  66.0767412  95.4255104  56.2692881
  65.7729721  96.8031883  55.7209349  99.1510105  82.6494503   7.2218865
  98.4544086  81.9979477   7.3027056  98.7080860  83.4896564   7.3405921
  20.4381919  17.2246277  39.0818095  20.0411916  16.9988620  38.2405877
  20.6228852  16.3805568  39.4937110  45.2231836  15.4402399  82.7035904
  45.8886242  15.9219277  82.2122669  45.0003624  14.6984410  82.1411705
  80.8685684 107.8148460  14.9203694  80.8998299 106.9056702  14.6226156
  80.8001423 107.7526379  15.8730924  96.9510174  47.7435398   8.0387729
  96.4889240  48.4958982   7.6691037  96.2562943  47.1770763   8.3744931
  53.3198881  48.5293245  93.9820766  52.7057409  48.2988739  94.6791744
  54.0991306  48.8406277  94.4426250  99.4144630 102.8464031   9.8393345
  98.9973927 102.8994083   8.9794087  99.8627567 103.6860943   9.9402726
  71.9903517  33.3794880  92.2573471  71.2125921  33.2497168  91.7146873
  71.6508627  33.4500098  93.1495380  93.5583019  70.9371138   0.3733280
  93.1414986  70.1073360   0.6056653  94.4784260  70.8169794   0.6081860
 105.4401207  92.4887180   5.3002417 105.8024502  91.6426086   5.5630189
 104.5820427  92.2779083   4.9321592  36.0253406  45.1690865  15.8802402
  35.6108308  45.9255028  16.2952626  35.3273869  44.5168591  15.8194900
  98.7091637  79.3607473  27.1549869  99.6342754  79.3530607  26.9093180
  98.3802128  80.1962280  26.8233275 108.5648537  96.7889214  13.0486035
 108.7574291  96.6438866  13.9749467 107.6088810  96.8010235  13.0017459
 107.8091049  83.7878418  66.8438768 107.4976254  83.8884830  67.7433681
 108.5685921  83.2098198  66.9166708   9.6154833  80.4450035  69.8611450
   9.3420023  81.3596916  69.9303055   8.9578664  79.9600458  70.3597307
   1.5487891  76.6885328  31.7712855   1.2102799  76.0336161  32.3817992
   1.5127450  77.5115681  32.2586751  92.4853134   7.8286219  16.9452584
  93.1293488   7.7830958  17.6519203  92.0437908   6.9796497  16.9685268
  65.8344221  16.0455537  82.7525711  65.8968353  16.8735242  82.2763348
  65.0810051  16.1587548  83.3320332 101.6079426  71.5970135   0.8626831
 102.1833229  71.5379810   0.0999995 101.4699745  70.6881809   1.1295477
  44.1474533 102.8527069  79.4856405  43.8143492 103.1457710  80.3338051
  44.3219137 103.6615276  79.0043879   7.3166913  72.3636341  27.8201723
   6.8557328  72.0851612  27.0288444   6.9881922  73.2463980  27.9905915
 101.9548893  69.9820805  32.1087074 101.9757652  69.3473530  31.3925242
 102.6599216  70.5965567  31.9047856  40.3539801  21.9947433  40.4358864
  40.6228924  21.2242484  39.9356294  39.8954487  21.6382599  41.1967421
  41.2865591  49.8506832  83.8655853  41.2162399  50.3296709  83.0398369
  41.6208315  50.4956579  84.4888878  93.1840420 102.8976440   2.4319230
  93.8851357 103.5466671   2.4906750  92.4194717 103.3365726   2.8047594
 104.6736336  87.5720406  24.0559816 104.8099804  86.7192841  23.6431193
 105.5451679  87.9668999  24.0835142  49.6037531  89.1504574   4.8164999
  50.0910664  88.4515953   5.2527833  48.9562941  88.6924553   4.2805341
  19.5076680  17.0961916  33.8362288  19.4030488  18.0313647  34.0115547
  18.8258541  16.8949330  33.1952500 110.4843998   8.5537171  15.7326567
 109.7169781   8.1967372  16.1797106 111.0512066   8.8625699  16.4394569
  29.7681499  12.9230487  37.7384663  29.5309424  12.0265377  37.9755974
  30.4581261  12.8227472  37.0826435  53.9630556  20.3568339   9.0238661
  53.0726767  20.0675559   9.2233074  54.4232512  20.3106833   9.8619109
  61.5819788   6.7009175  83.7495232  61.2562227   5.8110625  83.8846970
  62.5299644   6.6283607  83.8603878  48.1072474  55.2644539  85.2072525
  48.7742901  55.4287767  84.5407009  47.9386806  56.1235285  85.5942917
  33.8994527  50.8965731  91.7432117  34.2153716  51.6670799  92.2151756
  33.3072495  50.4647303  92.3588657  54.7021580  28.4092903  87.6368332
  53.9206553  28.8299227  87.2782898  54.5776749  28.4414911  88.5853672
  20.8290863  20.1345968   6.3244981  20.5749059  20.1035190   5.4021871
  20.6783199  21.0435343   6.5839911  76.2590170 104.2152500  17.7245200
  76.3451767 103.2837009  17.9270470  76.6931105 104.6598053  18.4526467
  52.0127296  55.9513330  91.4902115  52.4605465  56.6222191  90.9748459
  52.6628017  55.2567005  91.5956783  52.4478912  16.8754578  76.5058756
  53.1337404  17.0909464  77.1378613  51.9026804  17.6612401  76.4668655
   7.7523667  15.5002093  24.1425753   8.2406223  15.4962122  23.3192754
   6.8961740  15.8604634  23.9115286  98.3829594  34.0915585  88.6148453
  97.7155018  34.4330859  88.0197906  98.3260822  33.1409383  88.5183239
  16.8850672  22.9503393  55.7503605  16.6337967  22.8417277  56.6675854
  17.8421867  22.9514337  55.7627392  24.2445731  34.2635179  73.1610775
  24.5686483  34.4318008  72.2762680  24.9312043  33.7380362  73.5717344
  53.2109070  29.9006176  64.4203854  53.5841036  29.9601531  63.5409451
  53.6986780  29.1919875  64.8400927  96.0411930  68.0573416  20.4391408
  96.4732838  68.9036894  20.3241420  96.7444134  67.4629927  20.7007933
  44.6686649  59.6869135  89.3895435  44.8322392  58.7920237  89.6872711
  45.5286980  60.1066780  89.4086933 103.7303066 101.9429588   9.1500783
 103.8712978 102.0196247  10.0937283 103.3560371 102.7860832   8.8945526
 103.0106544  83.1753922  49.2692089 103.8554573  83.1882381  48.8193512
 103.1296062  82.5503731  49.9843597  85.3298092  37.1814704  88.8807487
  85.1101589  36.5202522  89.5370865  84.5007038  37.6244760  88.7002850
 105.9251308  97.2871876  40.1214743 106.2252426  96.3821697  40.2057981
 106.6496563  97.7406216  39.6905518 105.6951046 108.8960934  20.3181744
 105.7149124 109.8502636  20.3916574 104.9752045 108.6268330  20.8886790
 108.3590126  91.5244389  17.7788770 108.6825275  92.2614384  17.2608006
 108.6402225  90.7487774  17.2935855 113.7534142  94.2762089  27.3444891
 114.4651318  94.6134758  26.8004823 113.1273460  94.9985313  27.3946571
  70.1297855 108.4449577  22.3538208  70.5003691 107.5763035  22.5097919
  69.1892910 108.2914543  22.2636056  74.6752644  36.0233951  88.8115692
  73.9186525  35.7365823  88.3001804  74.3086720  36.2824035  89.6570015
  79.4320107  37.0200539  85.4042530  79.8730612  36.3522911  84.8790836
  78.5070276  36.9338489  85.1735783  12.6593602  69.6963263   4.8357040
  13.4608924  70.0422525   4.4431335  12.1938646  70.4707336   5.1516736
 105.7609940 102.5209999  17.4022257 106.2737751 103.1118488  16.8506861
 106.4151001 102.0224953  17.8919911   9.6396738 102.6244259   6.3144898
   9.2578679 102.7089500   5.4408121  10.1331210 101.8048668   6.2819695
  15.6853986  79.0836763  21.2767196  16.3772225  79.0486336  21.9373131
  14.9155474  78.7232637  21.7167926  11.3804781   4.8225054  12.6126719
  12.2712743   4.6622306  12.3011827  10.8220828   4.5930421  11.8698573
   1.5240060 100.8941174   8.0379832   1.7823410 100.9830093   7.1206003
   1.6701096  99.9698353   8.2394654  62.3329782   4.4854844  27.4582195
  61.5397167   4.1146380  27.8447938  63.0058670   3.8216421  27.6091099
  16.6644025  11.6416550  11.2970459  16.8812203  12.2758710  11.9804144
  17.4639499  11.1274290  11.1851215  94.9064541 101.9938946  47.3429394
  94.1015148 102.3613644  46.9778681  95.6059265 102.3745251  46.8118143
  84.9673748  79.8147774  34.0273213  85.3568649  78.9557648  34.1905093
  84.8523235  80.1949501  34.8982215  64.1453316   4.1032008   0.0782888
  64.0385296   3.3973388   0.7159250  63.7203267   3.7760905  -0.7145579
  70.5952787  76.5918255  20.5325818  71.1692762  76.3225794  21.2497044
  69.8383904  76.9855642  20.9665442  54.4815922  43.8045788  93.1689835
  54.0149498  44.2418432  92.4567509  54.6869183  44.5060825  93.7870216
  17.8912497  19.0528154  17.4989295  17.2781932  19.7774374  17.3751640
  17.3331046  18.2901359  17.6506674   3.8949609  76.7449903  22.9612613
   3.9255172  77.2083282  23.7982869   4.4525588  77.2626543  22.3804522
 100.7414532  85.5330753  21.6525888 100.2428818  85.2593327  20.8827066
 100.5034828  86.4517212  21.7778444  32.9980469  24.0530181  31.7727757
  32.9326367  24.7716975  31.1439252  33.7766719  24.2578697  32.2904730
  10.2991331  32.3810744  22.3565769  10.9286094  31.9238210  22.9141736
  10.7275605  32.4301648  21.5020180 101.0595512  98.2261848  88.8254547
 100.1274300  98.3934593  88.6861420 101.2372208  98.5736179  89.6994972
  29.7193027   7.2549617  24.0943861  30.0638771   6.7548788  23.3545113
  30.4905295   7.6640564  24.4869184  82.5263405  76.8947172  50.4060602
  81.7502975  76.7753935  50.9535599  82.7327347  76.0157061  50.0882959
   6.2760955   7.9475474   1.4782178   7.1585649   7.8461492   1.8348660
   5.8133799   8.4741181   2.1300226  84.5367336  95.2341366  35.4426622
  84.2249298  94.8922253  34.6047473  85.4444695  94.9359226  35.5001736
  92.7631950 105.4906750   7.2484720  93.7064075 105.5202198   7.0881450
  92.6233768 104.6598244   7.7027607  93.6388397  78.5109806  32.0335150
  94.5499516  78.3176756  31.8127584  93.5418701  78.2086754  32.9365325
  15.0549138  12.2061944   2.6554164  15.5590892  11.7572021   3.3339775
  14.5319712  11.5151882   2.2488770 112.3101902  93.5294914   7.7263379
 112.4025726  92.5767612   7.7224666 113.1509590  93.8503265   8.0525440
  86.0539627  81.0847282  89.3380547  85.3303242  80.9902477  88.7186527
  86.7509365  81.5004921  88.8305092  38.2604194 102.3304749  93.7687016
  38.7755156 102.5640392  94.5409489  37.7459478 101.5718460  94.0444374
  49.8335171  31.0789704  36.5864325  49.7812843  30.1238537  36.6218209
  50.7526922  31.2754416  36.7674088  13.2436454 102.4815464  41.0228395
  13.3791983 102.2655010  41.9454336  12.2924483 102.5209904  40.9233332
  90.8895588  97.8319073   8.2843816  91.8093491  97.7122784   8.5208195
  90.6397438  97.0065403   7.8689551   9.5192122  22.2641635  39.0261960
   9.8453802  22.5177312  38.1627440  10.2652645  22.3940182  39.6116686
  98.9907837  54.7713852  17.0858097  98.7792492  55.6232643  16.7039883
  98.2311916  54.5562553  17.6270843  48.2195425   3.6057240  32.6277113
  47.7486038   3.7151849  33.4538293  49.1006088   3.3370808  32.8880525
  24.6338582   2.8103170  28.7740350  24.4589305   3.1273893  29.6600938
  24.0766406   3.3491772  28.2124567  52.5866079  33.9909244  81.5496922
  52.0136929  33.2418942  81.3855267  52.8855991  34.2587686  80.6807327
  41.0757256  36.8535900  87.4122143  40.5548239  37.6318336  87.6102734
  41.5621662  36.6795230  88.2180119  94.0676785  86.8582630  11.4644015
  93.5619545  87.6536465  11.6312313  93.4586430  86.1437035  11.6507423
  91.8916035  33.8523889  92.8046894  92.1576214  34.3874145  92.0568752
  91.1910915  33.2960749  92.4640560  91.7559338  72.8627634  35.5636716
  92.2070217  73.5394144  36.0685468  91.4503479  73.3145666  34.7770810
  21.4835930 100.9227371  16.1766446  22.3329592 100.9307289  15.7353449
  20.8437586 100.9251690  15.4647183  96.3324261  70.3599405   0.6254763
  96.7353439  71.2281847   0.6189898  96.6179943  69.9695396   1.4514738
  10.9785986  70.3921318  52.1390200  10.1447332  70.1048803  51.7670155
  11.1929452  71.1912966  51.6577530 111.9790649  85.6941795  39.4998479
 112.0116615  86.3836861  40.1629829 112.7584362  85.1641655  39.6669054
 101.2020874  80.8557606   1.5446708 101.2318325  81.8125057   1.5446573
 102.0132446  80.5909252   1.9783974   9.1709071  12.4343860  11.5861952
   8.9614123  13.2647610  11.1586213   8.4433734  11.8563819  11.3563299
   4.6819434 104.1004658   9.5553434   5.2828926 103.3616066   9.6511400
   4.2281666 103.9345455   8.7290335  33.9542031   2.1580850  17.6684356
  33.2184887   1.6407616  17.9960513  34.4577956   2.3808907  18.4513700
  33.2928085  22.5410628  13.9983082  34.1161275  22.2900534  13.5795367
  33.4687757  22.4667716  14.9362576   4.1523564  99.4816399   5.2732605
   4.1367707  98.5279655   5.1926512   3.2303494  99.7383690   5.2582872
  57.1424437  18.9110196  13.3218372  57.0098782  19.0201795  14.2635059
  57.5663900  19.7229755  13.0439341  67.3402929  71.7046833  39.2192626
  67.3228025  71.6720104  38.2627797  66.7236137  71.0258770  39.4934177
  48.0611849   1.0306613  49.1702271  47.5742340   0.7472827  49.9440527
  48.0736542   1.9858113  49.2315817 109.7288132  94.1589642  28.4270906
 110.1901150  93.5072994  27.8991127 110.3260326  94.9062443  28.4607744
  75.7523680  85.6297302  23.3461237  76.5659666  85.1363754  23.2417822
  75.7330751  86.2216473  22.5941324  61.2981892  84.1877270  17.9119527
  61.9291019  83.9151001  17.2457290  61.7180443  83.9679623  18.7436104
 112.5393295  15.2361691   1.9355065 113.3585739  15.7041073   1.7739475
 112.2684002  15.5217934   2.8080022  27.0056152   4.1484347  53.8190460
  26.7527223   3.2436159  54.0022993  27.1636510   4.1664767  52.8751564
 105.9589100  82.9903316   3.7604433 105.8738518  83.5644913   2.9992959
 105.4961300  83.4506321   4.4605792  48.1589985  15.6580329  14.5294535
  48.7030363  15.7433915  15.3123772  48.6347818  15.0411654  13.9732718
  87.2025681  72.6041842   8.5602826  87.8916740  72.2550344   7.9950702
  87.3483276  72.1797705   9.4057775  52.7586508  50.8651590  92.1668148
  51.8576097  51.0501528  92.4316406  52.9651022  50.0301743  92.5868320
  11.9552493  26.7091966  13.1264925  11.1197257  26.7743564  12.6640141
  12.4184394  27.5153780  12.8989887  15.3168917  31.5533686   1.9900820
  15.3184259  30.9631038   2.7436188  16.2430453  31.7175412   1.8125501
  56.2207174  24.7023320  76.9424820  57.1041298  24.3353057  76.9091320
  56.3562012  25.6486368  76.9912910  84.8497677 106.4442825   4.4076446
  84.2822170 106.0457516   3.7478855  85.4303741 105.7352161   4.6839884
  46.4057207   5.3787893   7.3485315  46.6065550   4.4465524   7.2658783
  47.2043324   5.7648718   7.7082330   3.8006294  95.5156517  55.6463242
   4.4978493  95.2662754  56.2528944   4.1815522  95.3870678  54.7776508
  23.1228042   1.1491174  12.1478879  23.5761952   1.9595882  12.3798478
  22.8489852   1.2792717  11.2399697  72.5050592  84.6982288  21.6947985
  72.5470448  85.6539631  21.6623235  72.1303558  84.5040035  22.5539303
 101.9105244 104.7152615  26.2762785 101.9082928 104.3449306  27.1589351
 101.8705463 105.6617260  26.4135432  49.3541527  28.5451388  76.3908815
  49.6185875  27.6992536  76.0292435  49.6781778  29.1874218  75.7594490
  54.9251938  24.5826054  32.2564983  54.1154623  24.4330525  32.7445555
  54.7721720  25.4006052  31.7835379  99.6233177 105.2807999  24.0776706
  99.6469116 105.6871128  24.9440336 100.5173683 105.3690052  23.7473321
  85.8276653  19.7953045  32.8334713  85.1730728  20.4719901  33.0062270
  85.3948021  19.1919947  32.2294164 108.3899784 100.3131485  14.8990631
 107.7161407 100.7438755  14.3730891 109.2164898 100.5969048  14.5084453
  33.1203079 106.2122822  30.1738143  33.5931444 105.3845215  30.0873709
  32.8205585 106.4106655  29.2866707  68.3875036  15.2272332   3.0258107
  67.9109478  15.2865124   2.1977931  68.5242033  14.2889500   3.1568408
   6.6730422  98.2199383   7.0892042   6.0886741  97.6073360   6.6425872
   6.0858303  98.8515472   7.5045109  14.7838318  31.0065246  42.9148674
  14.2981291  30.4238057  43.4986162  15.6288767  30.5737138  42.7931929
  93.8936996  49.9074984  85.4068089  94.0243244  50.6030083  84.7622681
  93.0243015  49.5587349  85.2099609  56.1784077  32.2555351  75.2775574
  56.8213654  32.8968501  74.9749804  55.4367876  32.3603630  74.6815348
 108.4212017   1.2329452  36.5289426 108.3537865   0.3512084  36.8953133
 109.0782261   1.6683817  37.0720315  16.7101169   6.0874987   6.8122399
  17.6515305   6.2605757   6.8080419  16.6416883   5.1339293   6.7647654
 113.4015369  95.3866100  13.8497686 113.4986115  95.6216526  14.7725713
 113.9960670  94.6465015  13.7272882  79.8690939  36.7855000  88.1273937
  79.7994709  36.9544625  87.1877956  79.2351055  36.0877156  88.2928848
  92.4645233 108.5141642   0.2366655  92.3232745 108.5989840  -0.7062514
  92.9705190 109.2912848   0.4739110  97.6325607  80.4223442   6.8960482
  97.3324776  79.5420170   7.1223104  97.0440197  80.7033157   6.1953992
  60.8236980  92.3084831   3.4616593  60.1103497  92.1569824   4.0816692
  61.0820770  93.2179070   3.6113951  81.7492580 108.5197353  12.2531903
  81.4080524 108.5425568  13.1472206  81.1472511 107.9439545  11.7817008
  37.8064680  92.3660183  92.3585224  37.0489621  92.8127098  91.9805241
  37.8258610  92.6571178  93.2701778  66.3907862  77.0272875  82.6057148
  65.6009054  76.5028095  82.7370071  66.7785883  77.0987034  83.4779167
  92.0431614  67.2434473  74.2227316  91.2400436  66.9830179  73.7717390
  91.7695808  67.9458189  74.8126936  15.4850888   8.3657581   5.4331070
  16.0847664   8.2182825   4.7017589  15.7123780   7.6879591   6.0696292
  59.2715216  78.8857031  12.7098930  59.5654297  79.6886683  13.1401193
  59.9722672  78.6741638  12.0930982  12.3895764  97.3617172  54.9753094
  12.9185653  96.6073322  54.7158861  11.4872372  97.0913887  54.8051977
  33.6905837  31.5415072  82.1028900  34.3465996  32.2313809  82.0031452
  32.9673028  31.8154240  81.5389156  25.4193902   5.2834558  14.5179963
  24.4705892   5.3928798  14.4544733  25.7787824   6.0043854  14.0009582
  91.5273952  93.1177902  30.7376456  92.2057819  93.2520485  30.0758266
  91.7268753  92.2608948  31.1146951  34.2811847   5.2898031  33.3816576
  34.5016646   5.1654029  34.3047738  34.1318297   4.4045281  33.0496740
  15.9019506  16.4285672   2.1520683  16.4911592  17.1462965   2.3842938
  16.4146888  15.8804166   1.5580462  77.3422670  84.8109722   7.5289893
  77.1315765  85.7428741   7.5872821  78.0262756  84.7613716   6.8612301
  24.4220928  84.9833877   0.1356427  25.0866893  85.6395824  -0.0740226
  23.6521724  85.4938824   0.3863256  89.8578453  80.0007725  23.5767889
  89.4511414  80.0395679  24.4424200  89.1614532  80.2594185  22.9731560
   9.7699261  96.4897060  54.8865128   9.2317790  96.4691257  55.6778479
  10.2167523  95.6432343  54.8786497  90.9663963  95.0844383  33.1016755
  90.6784153  94.8251438  32.2264242  91.6623878  95.7227421  32.9455090
  93.4068584 108.6224461  24.8548293  93.5395241 108.7628078  23.9173174
  92.7649689 109.2859077  25.1078725 101.7361832  73.8053751  16.9927979
 101.7829704  74.0787315  17.9089415 101.2689018  72.9702950  17.0155871
  80.9453869  74.5904064  15.2611232  81.7161369  74.7077465  15.8164668
  81.1362171  75.1024723  14.4752467  21.9797349   4.1605100  22.0360827
  22.5988388   3.4471321  21.8810582  22.1220064   4.7638518  21.3067198
  12.6044869   8.8056248  16.0398817  11.9361413   9.4298947  16.3224292
  12.2663391   8.4479123  15.2189505  44.5846987  29.4901752  23.4868813
  43.9865541  30.1242256  23.0913639  45.3569460  30.0042248  23.7227201
  50.2469587  14.7801781  20.2747107  50.7411385  14.0059590  20.0052595
  49.8183823  15.0815368  19.4736266  92.7105904  16.9259238  27.3170424
  93.2498550  16.3967812  26.7293143  92.8524876  16.5424931  28.1825352
  11.5716374  86.5575409  20.9805512  11.7266870  87.4582958  20.6962514
  12.3229766  86.3489151  21.5357041   7.0913762 101.5760136  10.9433854
   6.1620122 101.6611004  11.1561620   7.4690133 101.1222076  11.6968322
  64.5004845  29.8970294  81.4429283  64.1133213  30.5543017  82.0211315
  64.0643072  29.0796542  81.6835022   8.1392092  13.8034296   9.4035256
   7.6067841  14.1935194   8.7102824   9.0191621  13.7532377   9.0301681
 105.1611328  37.9233074  78.2146788 104.3543625  38.4285855  78.3149672
 104.9346447  37.2312832  77.5933599  18.4610796  69.8307562  19.8128450
  18.4003234  68.9922142  19.3552601  17.5953364  70.2249575  19.7064245
 107.5643063  98.9430428  38.5339594 108.1372547  99.6926308  38.3724737
 107.1453667  98.7755394  37.6897645  22.1973181   2.0528947  16.2688923
  22.9235101   1.9247022  15.6586111  21.5400219   1.4123905  15.9969604
  25.7655096  12.8466976  18.0978656  25.6983709  12.1543002  18.7553680
  26.2465620  13.5481334  18.5369647  33.9484835  15.4360914   5.8064592
  34.3926620  15.8471465   6.5480584  34.1377783  16.0112667   5.0651282
  19.1354740   1.6273993   1.1733054  19.9471867   1.2101772   0.8847228
  18.9589620   2.2932127   0.5086492  75.3150272  23.1914306  88.5726833
  75.2321815  23.5357809  87.6834202  75.9573936  22.4857879  88.4974003
  75.3100395 106.5869617   5.2819484  75.7418823 105.7687664   5.0363863
  75.1611328 106.5058327   6.2240088  52.9319191   8.8148320  20.1233602
  53.3745813   8.4035158  19.3809962  53.5567141   9.4650155  20.4444957
  92.3024273  80.2531242  39.8150182  91.5032959  80.4205894  40.3145933
  92.9123878  79.8860312  40.4548788   5.5056679   1.2067721  32.0173383
   5.0196660   0.7931010  31.3039589   5.7984900   2.0427242  31.6544747
 103.6410046 104.5707321   2.4009271 103.7204075 105.5183125   2.5105581
 103.5581589 104.4451046   1.4556317  92.7722740  68.2970715  92.5026417
  93.7230968  68.2017088  92.4470901  92.4343300  67.7402639  91.8012238
  19.7306693   9.7637087  29.6256208  20.1798868   9.0962243  29.1070652
  18.9637423   9.3147427  29.9812675   2.4112909  65.3993273  53.1633472
   2.4812607  66.1969471  52.6388168   2.7828953  65.6378031  54.0126276
  84.2775917  94.2512131  42.9396343  83.9155197  95.0878620  43.2314634
  85.2182865  94.4109058  42.8633356  98.4906673  70.7517242   3.0665737
  99.3221664  70.6740236   3.5343394  98.3281422  71.6939640   3.0218688
  36.9160771  40.8801556  26.6456676  36.9090486  41.1545944  25.7286811
  36.5105629  40.0131226  26.6393065  20.7009983   6.6155756   1.8875308
  20.8820534   7.5075787   2.1838100  19.9845409   6.3177866   2.4481033
  40.2447891  16.5076435  32.4797368  40.3047419  17.0061767  33.2946634
  39.3521476  16.1620903  32.4754739  87.8843212  54.0551138  92.4276733
  87.9469013  54.2302036  91.4887047  88.7187386  54.3597984  92.7842617
 107.1760750 108.2594681  27.3334289 107.8650665 108.7946415  26.9395900
 106.7581749 107.8228474  26.5911627  90.7739925  90.7808495  38.5169506
  90.1744175  90.5642033  39.2309570  90.7725143  91.7375088  38.4848857
  32.2548628   7.7030903  36.1218429  31.9542694   6.8836820  36.5148377
  32.0421553   7.6152897  35.1927137   8.1017220 100.6442547  44.3692684
   8.4409887  99.9501514  43.8041592   7.4802494 100.2007484  44.9465990
  96.9494629  18.8587749  93.6509991  96.8981838  19.3142080  92.8106594
  96.8818855  17.9310572  93.4251595  44.8317051  13.4301269  75.2637291
  44.0746641  13.7601757  74.7798014  45.2043867  12.7564192  74.6949911
  39.8223758   4.3442476   8.6792272  39.0065169   4.8446038   8.6635184
  39.5424032   3.4290439   8.6634737 110.5686378  62.9618835   5.8454323
 110.7876968  62.6691198   6.7300433 111.4159584  63.0945587   5.4203582
   0.5595846   4.6574694  35.8248687   0.9733702   4.1324845  36.5099978
   0.9696852   4.3583307  35.0133467  97.1559620  81.6926670  44.0043879
  97.2117043  80.7808685  43.7184906  96.5863705  82.1115971  43.3591795
   9.4102448  92.0916843   1.2409963   9.8937321  92.9149246   1.3099815
   8.9554477  92.0100594   2.0792848  41.0102081  18.1914425  67.0791769
  41.4406347  17.5504565  66.5134001  41.6307974  18.3352351  67.7936125
  21.3941574  76.7396450  11.2384331  20.6922078  76.7377424  11.8891978
  21.3346863  75.8810520  10.8194840  91.4619541  82.5122356   0.5827715
  92.0374107  81.7480564   0.5494837  90.6061745  82.1573257   0.8234298
 110.8022594  85.6895161  26.6628194 110.9277058  86.6238308  26.4968109
 109.9554729  85.6365681  27.1059537  88.1129360  49.5726871  21.2235403
  88.4499836  50.1680088  21.8930364  88.4980869  48.7240219  21.4418554
  87.6060581  97.5811672  29.7177148  88.1397343  98.3239651  29.9999833
  88.2002354  97.0452595  29.1923761  97.1743584 101.3114166   4.4362435
  96.7836285 101.4275360   3.5701752  97.9985809 100.8547592   4.2678744
  41.5064096  19.5847845  32.6624799  41.6829920  20.5017281  32.4520874
  41.8767643  19.0949607  31.9282174  91.2370491 106.3226032   1.4439622
  91.4439487 107.0095348   0.8102743  91.8739033 106.4463139   2.1477729
  51.3926125  17.4354815  91.8869019  51.9391108  17.4661624  92.6721668
  51.7175007  16.6791463  91.3983917  34.1672826   1.1917990  59.0357637
  33.5352707   0.7658523  58.4566593  33.6688685   1.3926010  59.8279095
  23.9535952  69.6150923   4.5740387  24.6720552  70.1241970   4.9493471
  23.8040066  70.0093508   3.7147272 114.2828751 106.4478111  20.9195137
 114.8223686 105.7182598  20.6146598 114.8343945 107.2206688  20.7980442
  48.8405228  11.4883292  88.7384129  49.6104431  11.8519342  88.3010960
  49.1949177  11.0051370  89.4848442 101.2543297  97.2636890  48.4773731
 100.9601402  98.1259918  48.1839323 102.2098351  97.3177814  48.4596777
  12.0095897  96.4751148  12.2349286  12.1826553  96.4125061  11.2955880
  11.3132322  95.8377171  12.3931801  91.3303471  31.4805770  91.6501999
  90.8298588  30.8053875  91.1920929  92.2019386  31.4411926  91.2564754
  26.8016911  27.4684906   8.5605812  26.4360404  28.0205369   7.8693682
  26.7398095  26.5783548   8.2140791 111.0858536  87.7744865  14.8755431
 111.9978714  87.5179768  14.7389615 111.1359406  88.6737442  15.1996768
  15.9190822  80.4267216  15.8737576  16.2157333  79.5937443  15.5071950
  15.0354636  80.5411911  15.5239749   9.5477617   3.3373964  22.5353932
   8.9237493   4.0583611  22.6193571   9.5280641   2.9030433  23.3881426
   0.7849719  82.9643726   7.6345891   1.2372616  82.1773624   7.9383695
  -0.1191618  82.8489017   7.9268926  35.9032440  32.9195046  80.9670830
  36.2627053  32.9860044  80.0824451  35.9409547  33.8128662  81.3087177
   4.8260438 108.6728477  15.6625438   5.6810457 108.9559555  15.9866643
   4.1994140 109.0452385  16.2829447  93.5645103  90.0599766   5.1260316
  92.7051067  90.4812908   5.1379454  93.6999321  89.8179436   4.2098883
  73.9582014   4.0176016  35.0469303  73.0685616   3.9746064  34.6963310
  74.4689465   3.4445527  34.4751048   3.0222121  79.5462275  27.5060582
   2.9489112  78.8728237  28.1823659   2.1199314  79.8209572  27.3428273
  87.7657795  30.2176929  20.0705695  87.9105854  29.4905329  19.4651759
  88.3964539  30.0715590  20.7756448  51.5447235  16.4319241  22.1253490
  51.2444687  16.9855106  21.4045024  51.4983654  15.5409849  21.7784905
  98.6414528 102.9264355  30.2795911  99.3397331 102.6688480  30.8815002
  98.1754398 103.6253738  30.7384443  27.2480726   6.4925385  28.9016724
  27.7243829   5.6649065  28.8354564  27.2170782   6.6765994  29.8404956
  87.0335102  83.0784321  87.5035954  87.1721745  83.6904812  86.7808151
  86.0885429  83.0967331  87.6549911  91.0320091  79.4161654  15.0264239
  91.0137844  79.2265129  14.0883780  90.2777767  79.9878025  15.1699102
  51.9777489  96.9145966  18.0791950  52.3957634  97.6186371  18.5750008
  51.0591984  96.9460201  18.3466041  88.7604904 107.8501987   5.1040316
  89.6403408 107.9577351   5.4653192  88.7012100 106.9188881   4.8910242
  56.1222219   0.6200145  23.2117939  55.4847097   1.1960998  22.7899694
  56.8339777   1.2030385  23.4758353  23.6976194 102.0101738  29.3397069
  23.9871883 101.1232471  29.5535731  23.4913802 102.4055576  30.1866817
   1.4041367  93.8384056  15.5423391   0.9194472  93.0962753  15.1810360
   1.2262799  94.5582104  14.9369597  84.9612999 108.5665131   1.9032949
  84.8929882 108.1548023   2.7647260  85.6086063 108.0383682   1.4360714
  54.5203400   8.5373807  17.0636272  54.6880102   8.6457092  16.1274743
  54.7369385   9.3878579  17.4457335  67.1750689  36.8125415  88.0846024
  66.2568665  36.9484782  88.3183956  67.6329851  37.5609565  88.4672451
  50.7860136  53.0782318  91.7273808  51.6413069  53.4738302  91.8953133
  50.6105328  53.2692194  90.8059883  41.3450050  23.0898643  29.1762185
  40.8331919  23.1075740  28.3675361  41.9953585  22.4022794  29.0330505
 102.3384380 107.7167988  12.9513705 102.7273655 108.2090378  12.2284114
 102.4090576 106.8007755  12.6827919  40.8738947  23.5135651  26.7914820
  41.7531395  23.3093023  26.4729929  40.3065681  23.3769631  26.0327244
 105.4741001  80.3098392  92.9502010 105.4217434  79.3733644  93.1412983
 104.9406815  80.4239750  92.1636486  35.0183105  54.4314528  93.3071136
  34.7454095  54.2015028  92.4189186  35.2592492  55.3561783  93.2518005
  46.5113068  10.5686617  18.5102355  47.2637844  10.6322348  19.0984261
  46.3334465  11.4725602  18.2503009 112.6243210  43.4383392  79.0917635
 112.6259327  44.2466974  79.6043921 113.5416603  43.3037615  78.8538599
  89.5749950  81.6535091  91.5281963  89.4692612  81.3811207  90.6166840
  90.3519726  82.2125340  91.5225315  59.2369795  18.2456553  17.0721817
  59.9688816  17.9899263  16.5107930  58.6575365  17.4837649  17.0721912
  43.0884933  14.4134140  26.3187885  43.1705618  15.1107359  26.9693589
  42.3130894  14.6504939  25.8100867  27.5751853  60.8895445  17.0364499
  27.0466065  61.6767883  16.9057500  28.2547641  60.9430504  16.3644838
  16.3912952  92.4756813  14.6569324  16.4627957  92.6105022  13.7119758
  16.6195822  93.3236504  15.0378001  42.0443583  16.2575698  47.0380020
  42.1525812  16.5039980  46.1194181  41.7977285  17.0716655  47.4769258
  38.9696503  29.5598102  22.4084759  39.6882820  29.6756673  23.0300689
  39.3966746  29.5245385  21.5525317  16.2727869  -0.2793363   4.9243671
  15.8812439   0.5617284   5.1600283  17.2097957  -0.1588799   5.0784308
  37.5385785  24.7134781  13.7804723  38.2385850  24.7050047  13.1276679
  37.9775405  24.5047402  14.6050775  12.1780705  27.9305387  31.9210958
  12.3862767  26.9978666  31.9759059  11.3586581  27.9644203  31.4274883
  33.8617682  25.4335427  29.2888403  33.0759573  25.2631593  28.7695098
  33.6139965  26.1534309  29.8690152  12.8187406   2.9228979  10.2085984
  12.0479000   2.3695788  10.3345978  13.0334961   2.8267729   9.2807662
  96.5679169  33.2981753  19.9002969  95.9605885  33.7884784  20.4543686
  96.1520863  32.4434853  19.7870505  35.0334573  10.5023670   6.7573935
  34.8327732  10.8765662   5.8995283  34.3189049  10.7988107   7.3211050
   2.0529157  54.9774694  89.8012066   2.8225970  54.5254040  90.1468372
   1.3219985  54.3923473  90.0002575  59.4717312  85.7618713  89.6820641
  58.9330578  85.3336811  89.0166950  58.9577341  85.6936169  90.4866695
  43.0556774  22.5412273  59.6483612  42.1396542  22.4338984  59.9045134
  43.0168772  22.9790640  58.7980509 107.1097660   4.0303314  19.8906708
 107.5585079   3.2709432  19.5189214 107.7809334   4.4756693  20.4078245
 112.2438526  14.4676912  13.9527249 111.2940693  14.3561459  13.9939129
 112.5413895  13.7727451  13.3655667 113.8748932  14.9274492  16.2652969
 114.7417736  14.5218468  16.2805665 113.5773087  14.8226464  15.3615868
  38.4961677   6.3041788  24.2950940  38.5569477   6.4263910  25.2425122
  38.4674311   5.3546721  24.1774344  27.7003050  43.5684347  31.8169236
  28.3152270  42.8678131  31.5996027  27.6795411  43.5806227  32.7738190
  12.3756480  18.9890385  15.0819170  12.9183900  18.8552642  14.3048930
  12.2022963  19.9303353  15.0938261  36.6823936   8.1684774  15.1884198
  36.1259890   7.4990094  14.7903502  36.8916178   8.7646115  14.4693363
 109.7637272 107.9840565  47.7784395 110.1189137 108.4879589  47.0462179
 110.5010796 107.4572086  48.0866385  75.1070738  75.3966713   6.2535417
  74.1943359  75.3840446   6.5416205  75.1611710  76.1472750   5.6620193
  44.4164515  42.1256161  21.6514468  44.4627476  42.0090055  20.7025051
  45.2471113  42.5413847  21.8824768  41.9506359   2.8072634   0.5823689
  42.4430990   2.0572990   0.9159320  42.1822071   3.5264227   1.1700901
  41.5771103  10.6573510  92.8284931  41.6230392  10.9537721  93.7374783
  42.3275137  10.0714207  92.7294350  89.3237591  95.5254841  12.9680681
  88.7310696  96.1934853  13.3126354  89.8397255  95.2493572  13.7255406
  14.6150768  17.8721309  12.5503838  14.7644353  17.7323115  11.6153038
  15.4557812  18.1866717  12.8828144  54.6996784  23.4016633  50.0778103
  53.8594913  22.9562688  49.9685335  54.5755625  24.2533159  49.6588707
 105.4134655 104.8230171  11.0449302 105.0190926 104.5501041  11.8733144
 104.7748280 105.4246807  10.6623518   7.2569531  16.5469360   1.2285190
   7.6565140  16.8119228   0.4000474   6.7015707  15.8018589   0.9990799
  27.0651150  18.0080438  25.1536107  27.1663499  17.5552535  25.9908462
  26.1617160  18.3243632  25.1600838   9.5912719  86.5474510  45.7647610
   9.8270053  86.7146397  46.6772890  10.1620114  87.1267986  45.2599382
  17.0737207 105.7617664   3.8415787  17.7676547 105.8278942   4.4975623
  17.0643437 104.8368549   3.5952389  73.2754469  46.1917257  94.5530224
  73.5580158  45.7692719  93.7419033  72.5824451  45.6238985  94.8899937
 106.9786167  83.1693363   6.4902848 107.6531696  83.0961990   5.8151084
 106.8834972  82.2799587   6.8311429  82.3159695  82.7835274   0.6043549
  81.5438557  83.2362270   0.9436649  82.4788380  82.0821476   1.2350479
 111.7541504  97.1213341  15.5072391 112.0921326  96.7509937  16.3226211
 110.8203602  97.2517586  15.6723666  23.7111616  23.9550877  35.9972954
  24.6400738  23.9753866  36.2273884  23.2643485  23.7629032  36.8217063
 111.5911579 102.3609924  25.6574321 110.8999157 103.0107975  25.5302858
 112.3185539 102.8557777  26.0346937   0.8279642  98.2478428   1.5297765
   1.5903121  98.0998993   0.9701603   0.3267072  97.4344635   1.4716367
  27.0127320  25.2489591  20.9200597  26.8254018  25.0973487  21.8464279
  26.2856436  25.7912540  20.6142974  20.9675980  23.1834316  40.5236721
  20.0286698  23.0246902  40.4264784  21.1415100  23.0303431  41.4524078
  92.4158478  80.2179432  11.5741193  91.6508293  79.6725607  11.3909817
  92.9709911  79.6724796  12.1313524  48.0050850  24.4207191  61.1260605
  47.0639324  24.2887807  61.2403536  48.2549715  24.9996614  61.8462086
 113.9838600   1.1534217  73.5938644 113.7829018   1.2800664  72.6666069
 113.6191368   0.2934236  73.8026953  40.4291630  17.2148418   9.6404320
  40.2526665  17.1073997   8.7058002  39.8785305  16.5571845  10.0653112
   1.1660677  91.0599518   7.2063220   1.6014808  90.2081013   7.1747220
   0.2972822  90.8718491   7.5613695  34.6399641   3.6942482  74.3067837
  34.9915957   3.1334740  73.6153221  34.9481940   4.5723790  74.0829277
   3.1210351  36.8083787   6.1589152   3.3728898  36.5403032   7.0426214
   2.5848413  36.0855246   5.8330178  22.9874206  23.3224106  33.4503388
  23.1310177  23.6867952  34.3237424  22.7478242  22.4092293  33.6082196
   4.7202137  85.7666874   8.0025804   4.8633394  85.8972549   7.0651919
   3.7692311  85.7068920   8.0936247   6.1983430  26.0950351  60.2380180
   5.4190433  25.9224081  60.7663393   6.8333399  26.4537811  60.8579493
 104.7801876  39.0722346  58.8107395 104.2115784  38.9685607  59.5737457
 105.0759125  38.1842709  58.6099958  24.2522526  13.4182870  49.4780445
  24.3884873  13.1281352  50.3799820  24.1282082  14.3648994  49.5471191
  75.2587891  41.7776155  88.6222839  74.8426008  41.1923981  87.9894066
  75.7949877  42.3645687  88.0891800  46.4242983   7.3668861  47.3558760
  45.5844116   7.4380583  46.9022751  47.0458031   7.1185648  46.6715479
  75.3889799  97.4874496  22.8276515  75.7764912  97.7146339  23.6729050
  74.5052385  97.8534603  22.8631997 103.6131573 106.6451263   6.5439981
 102.9858494 105.9390450   6.3885808 104.4594765 106.2030602   6.6115248
  16.5966165  26.6315460  33.8315988  16.5712702  27.2226691  33.0791593
  17.4258745  26.8318367  34.2657018  29.2159438 104.6861649   7.8234267
  28.6515784 105.3728580   7.4682128  28.7151885 104.3170738   8.5509211
   0.4290884 108.3771324  20.7900262   0.4544495 108.7259865  19.8990214
   0.2864019 109.1447258  21.3438058  21.3668680   8.0845791   5.1804495
  21.4352298   8.6752272   5.9305787  21.0228181   8.6323309   4.4748789
  23.1222510  23.8696003  44.7517014  22.9970527  23.6914253  45.6838036
  23.3428359  24.8002434  44.7132683  82.6771069 100.3717613   9.3389010
  82.2186565 100.5995846   8.5301006  82.7267647 101.1943150   9.8259020
  88.1770325   7.2054899  10.3957450  87.3988247   6.6840911  10.5926454
  88.7886429   6.9992596  11.1025846  12.0255423   6.4714932   8.0374062
  11.7568016   7.3891968   8.0801934  12.9159164   6.4660293   8.3887404
  72.1901846 101.1317825  61.2902689  71.9669437 101.3853836  60.3946781
  73.0600882 100.7389641  61.2181902  97.8720951  96.4499187  10.1104009
  97.7691555  97.1455765  10.7597792  98.6866379  96.6650486   9.6560115
  44.2363739  19.9772453  17.7318084  43.9012289  19.7239840  18.5919070
  45.0983000  20.3527021  17.9116702  28.6660385  10.1620853  23.6411667
  28.5758066   9.2111135  23.5800028  27.8611636  10.4519153  24.0705991
  22.9030871  47.2406578   2.3823532  22.4183750  47.3772717   1.5683374
  23.7281895  47.7077818   2.2510789  39.9794173   7.4204785   7.6184773
  39.2264891   7.2859162   8.1939971  40.7277441   7.1055782   8.1255031
  17.6685679  24.3397141   3.8233149  17.1168327  25.0965619   3.6258280
  18.5525024  24.6999073   3.8950920  38.6308241  10.8440542  32.3933101
  39.5683265  11.0367942  32.4063921  38.4140158  10.6473041  33.3046365
  80.5754280  86.2276173  91.0686111  79.9946499  85.8705521  91.7404938
  80.8956146  87.0493031  91.4408302 115.4222393  81.4935970  12.1850097
 114.4688416  81.4796162  12.2690964 115.6502247  82.4231529  12.1979845
  24.4027448  12.3904526  16.0136998  23.8802814  11.6266155  16.2582779
  24.9007988  12.6026869  16.8030858  41.1967611   3.7461510  15.6248021
  41.3834429   4.5544267  15.1472342  40.2887249   3.5407546  15.4022753
  89.1506100  81.6529751  88.8303566  88.7573814  81.4390278  87.9842854
  89.1432571  82.6095963  88.8628387  76.2637615  98.3722496  69.0063381
  76.1645937  99.1566086  69.5459509  75.6621552  98.5075760  68.2742214
  53.3484983  18.1476796  33.4103823  53.5526705  17.6833880  32.5986052
  52.6271915  18.7320983  33.1771278  37.8134894  20.5596852   1.9566569
  38.4526014  20.5596519   2.6692361  38.3036160  20.8701944   1.1953459
  55.7092381  61.5785170  94.0495777  56.6217518  61.3756704  93.8436604
  55.3235340  61.8265629  93.2093811  28.8183522  53.7270880   5.7176656
  28.3413506  53.8297653   6.5411705  29.4423246  54.4529247   5.7101953
  72.5271606  94.1111279  28.5332131  73.3121157  93.7136173  28.1562996
  71.8005133  93.6735630  28.0896497  96.1781406  91.8480301  28.5273576
  96.3468933  92.7896500  28.5606599  95.4786301  91.7527771  27.8809452
  21.8930745   1.7242593  33.0432558  21.4025354   2.5280255  32.8713202
  22.0213246   1.7202069  33.9918160  76.2102985  21.9628763  20.2271843
  76.3439226  21.0710120  19.9063194  76.0528517  21.8587375  21.1655855
  17.3527288  91.3163376  22.4986649  16.4915931  90.9603977  22.2796035
  17.2174406  92.2630787  22.5387502  10.1615214 103.4580517  31.4825463
   9.9139637 102.6939964  32.0032835   9.4473821 103.5607815  30.8535099
  42.1848059   8.8799256  12.7523363  42.7670765   8.4276354  12.1419036
  41.3133526   8.5407537  12.5479650  34.1110516  11.6703451  10.3437150
  34.9721551  11.6134167  10.7578301  33.5921192  12.2069001  10.9429204
  66.7257071  14.8766804  21.7279315  66.4688301  15.6891978  21.2919712
  65.9019852  14.4102025  21.8697643  98.4016132  93.9657307  11.4332855
  98.1230831  94.7783184  11.0109568  99.3544579  93.9628220  11.3421226
  55.2792549  13.0836594  32.3134947  55.0671721  13.2583213  31.3965726
  56.2295723  12.9693735  32.3219490  76.7178297  45.9400654  86.2499142
  77.2843504  46.3645411  85.6056309  75.8499670  46.3089561  86.0856819
  31.3075113  28.9566565   2.1113594  32.0927715  29.4986057   2.1880965
  30.6860471  29.3470883   2.7258316  20.3091693  18.4012246  25.1890182
  19.7762060  17.6798975  25.5234838  19.9821317  19.1741335  25.6493306
  49.7763014   7.8091383   1.6807450  50.2841473   8.4256017   2.2082864
  49.3377209   8.3561808   1.0291149  17.4179089  97.6119804   3.3607709
  18.0390334  97.7241135   4.0803975  17.4713790  96.6819000   3.1409663
  42.5233841   4.2329907   2.8770006  43.2868290   3.7037921   3.1079358
  42.6341486   5.0431508   3.3745995  58.4272385  14.9832273  86.7751312
  57.5023508  14.9998605  87.0211792  58.6703730  15.9055543  86.6949558
 101.0892010  87.9804707  19.6359348 101.5522766  88.5457706  19.0176892
 101.6881752  87.8954983  20.3777122  41.1286926  64.5688295   7.1428502
  41.2632179  65.1313162   7.9055703  41.8712664  64.7603846   6.5700287
  24.4915438  14.0983999   7.3686028  23.6387181  13.7391603   7.6132751
  25.0830412  13.8041389   8.0612594  34.1755223  35.6525207  20.9849477
  34.3744063  35.8922815  20.0798559  34.8952675  35.0771046  21.2439775
  30.7894015  17.0983887  17.7439225  31.4839983  17.4598777  18.2944608
  30.8869433  17.5519073  16.9066429  50.7076836   9.8067641  33.9837360
  50.0005484   9.7682202  33.3397651  51.4363527  10.2139223  33.5152340
   4.9375874  72.1732950  82.9865646   5.2155942  71.4666271  82.4038315
   5.0359923  72.9683781  82.4627399  20.7430315  13.0559790  13.3609831
  21.3835025  12.3503673  13.2707512  20.8587694  13.5867262  12.5728571
  68.3794260 107.9200459  41.2807655  69.2709970 107.6084614  41.4365005
  68.0648947 107.3898315  40.5485249  29.9069643   3.9073044   7.4412906
  29.1723633   4.0452567   8.0392540  29.5143986   3.9368728   6.5687948
  18.1729424 101.3041496  20.9965873  18.1063521 102.2101784  20.6950593
  18.9625752 101.2891293  21.5374041  63.6482286  35.0371695  21.0084772
  64.1256952  35.8633518  20.9330940  64.3317461  34.3681931  21.0472441
  57.0632172  36.5066719   1.7002499  56.5769911  35.8300519   1.2290803
  57.6632261  36.0204983   2.2658113   9.8397696  10.5419719   8.5493773
  10.0623417  10.2432120   7.6676542  10.1518250  11.4462984   8.5817450
  41.7907906  22.0724821  10.2960825  41.6688442  21.1400294  10.1175094
  42.4594784  22.3507500   9.6702570  62.2991514  28.1387782  32.4653816
  61.6109514  28.1638503  33.1302023  62.1610689  27.3088455  32.0088983
  89.6779823  71.1559248  77.5980473  89.7254467  72.0937014  77.4121809
  89.6047401  71.1040401  78.5510302  12.9900730   8.5491806  48.9201403
  12.8567255   7.8390747  48.2922888  12.5203598   8.2664740  49.7047949
  41.0880804  34.2426777   2.5067249  41.9704247  34.6068573   2.5779647
  40.5232477  35.0056505   2.3839912  45.1171160  13.1266236  19.3325400
  44.1819334  13.3307528  19.3314481  45.2804565  12.7564549  20.2000237
 100.8107281  90.6624603   6.6400862 100.9300613  91.0665417   7.4995661
 100.9980583  89.7347832   6.7834806  45.9692621  40.0762463  25.2186608
  46.2298822  40.9834242  25.3778481  46.7913246  39.5859599  25.2266645
   5.4474741 100.4982376  15.0517356   5.7279408 100.9619236  15.8407640
   4.7396848 101.0360336  14.6967173  37.0385265  25.9541821  45.8811760
  36.2112331  25.8059502  46.3392591  37.7052641  25.6021857  46.4709091
  38.2346129 102.9153061   4.2415151  37.5631452 103.4576607   3.8277411
  38.3255482 102.1609974   3.6592981  45.2077961  28.7439680  29.1567850
  44.8507690  28.6066914  28.2793331  45.2642298  27.8654194  29.5325494
  31.1432147  32.4201798  19.3397880  31.4191961  33.0073094  20.0435948
  31.8702555  32.4341059  18.7173331  94.5537567 104.6893787   9.4503766
  95.4258728 105.0835609   9.4661939  94.7125816 103.7519360   9.5609099
  37.9326034   5.2294898  33.0190253  38.0031300   6.1725152  33.1672168
  38.8102031   4.8924369  33.1991553 115.0695324  56.4219999  90.7558632
 115.9502602  56.5971470  91.0873318 114.5513821  57.1735382  91.0438442
  64.7003174  46.5394688  12.0019150  63.9563799  46.4703894  11.4035702
  65.0582695  47.4121904  11.8392706 109.1147518 105.8194065  75.2633238
 108.4147358 106.4594078  75.1344728 109.8762226 106.3439083  75.5108976
  60.2418184  97.4076653  57.1714973  60.9533262  97.0137978  56.6666651
  59.6682739  96.6732216  57.3902893 103.3337402  97.5220013   7.4019486
 102.9071236  96.7843819   7.8380013 102.9985046  98.2951069   7.8559977
  86.2786865  25.1562572  84.0470600  85.6992054  25.0490880  84.8013401
  86.4028931  24.2681265  83.7123489   7.1028876  22.2504997  41.2860250
   7.8746706  21.8356013  40.9007406   6.4093184  22.1118283  40.6410694
  68.3844900 107.7963638   4.5455214  67.6944065 107.5282955   5.1522791
  68.2425833 107.2566509   3.7678307  67.6301098  70.3297806  33.2412958
  66.8117809  70.0054979  32.8652501  67.3992443  70.5828905  34.1350913
  46.2141180  16.9382441  26.4441061  46.7275953  17.7460325  26.4370918
  46.1795568  16.6844106  27.3663902 105.9491634  96.9509411   3.1249154
 106.7195225  96.3865280   3.1898236 105.9802246  97.4903870   3.9150244
  11.9284487  74.5622969  46.9469023  12.4745667  74.1987944  46.2498665
  12.4038267  75.3383350  47.2435617  67.3244143   3.6691529  12.0983350
  66.9834948   3.3545282  11.2610662  68.1664038   3.2245508  12.1963847
 110.4635620 108.9820671  21.2878871 111.2632561 109.4140053  20.9876418
 110.4938126 108.1146812  20.8842039  42.8051853   9.4189048  18.3663750
  43.1908369   8.9165282  19.0840971  42.6338863  10.2820063  18.7431288
  92.8555298  73.3376312  88.0480576  93.7743664  73.1962109  87.8200817
  92.5446892  73.9752245  87.4053478  51.8860054  26.6256475  32.7022147
  52.3121452  26.6752768  33.5578847  51.5757275  25.7221889  32.6412106
   5.2872187 106.6006470  22.6176691   4.7463074 105.9865952  22.1210933
   5.1012611 106.3966179  23.5342002  49.2882538  34.4687510  39.4258976
  49.5184135  34.2473817  38.5235357  48.9187908  33.6614966  39.7837639
  21.6972280   1.5542963  27.4199963  22.2759295   1.0151817  26.8808365
  21.9969320   2.4509588  27.2703099  84.6003914  95.2301979   5.3012061
  84.9855328  95.8589840   5.9115613  85.3514481  94.7744179   4.9212003
  40.9636497  35.5332279  10.9294665  40.3645706  35.3387547  10.2086890
  41.7491579  35.8750534  10.5024326  87.0354748  40.3317070  93.0257225
  87.9199600  40.1192713  93.3237171  86.9463062  39.8700714  92.1919537
  84.4907379  89.4188213  12.8847539  85.1843262  88.8014317  12.6523602
  84.5024300  90.0680161  12.1814513  60.8653021   0.3363314  11.3999259
  60.0221205   0.7108235  11.1449051  61.5073156   1.0025151  11.1544764
   3.9093572 106.0983562  45.8172226   4.3680775 105.3441143  45.4471779
   3.1560439 106.2269402  45.2408409  62.5647879  13.6967659   6.7917377
  63.2496214  14.2708194   6.4486754  62.8187847  13.5376477   7.7008021
  17.5888836  35.2753806  29.2969847  18.4223735  35.1138330  29.7390556
  17.2371817  34.4024062  29.1224694  37.6184058  56.2965965   2.0557159
  37.6895094  55.8194637   2.8824687  38.0775738  57.1212626   2.2148527
  99.3673038  60.7497311  85.3586769  98.5879993  60.3202438  85.7114697
  99.0336132  61.3202953  84.6663284  39.3857598  36.3100338  18.8707793
  38.9016533  37.1197534  18.7088382  38.8068843  35.6172061  18.5527754
  90.7267857  98.2379532  53.5754395  91.5992546  98.4521294  53.9058495
  90.8514595  98.1105232  52.6349831  51.4756870  16.0324287  13.1429195
  52.4131298  15.8520949  13.2130527  51.0646820  15.1679635  13.1449175
  37.2730184  58.7209749  20.8823442  37.1236873  59.0000105  21.7857122
  36.4567089  58.9310026  20.4287434  51.9482994   4.1690958   6.7041904
  52.0807838   3.2391921   6.5199131  51.7470503   4.2016307   7.6394296
 114.4204426  36.3742900  28.4675622 113.5001755  36.6372490  28.4813333
 114.5192528  35.8081532  29.2330408 112.6452541  10.5734456  43.9066553
 111.8794155  10.0041270  43.9815187 113.2350731  10.2736902  44.5983887
  35.3186369  31.0179591   6.0468280  35.7201505  30.1828671   6.2869138
  35.9718609  31.6753912   6.2862283  69.4730377   4.1282636   8.4939289
  68.6729431   3.6708549   8.7524855  69.3690920   5.0114638   8.8480252
  16.9001949  37.6473498   9.7286701  17.3642457  37.1165466  10.3760767
  16.4342225  37.0107460   9.1866028  32.0252371  44.3864250  56.1320162
  32.6147580  44.7091436  55.4504395  31.2195206  44.8883820  56.0091591
  41.8017673  50.9435463  12.2629225  41.3713074  50.8562231  11.4124465
  42.0247507  50.0465488  12.5117314  82.6655769  80.9422493  93.4603691
  83.2834625  80.5011272  94.0433407  82.9760551  81.8469143  93.4225845
  54.9972391  86.9612885  81.5725899  55.2083349  86.2762165  82.2069073
  54.2156315  87.3842812  81.9281101  34.8217821  26.8187451   9.2236423
  34.7628307  26.5240097  10.1324260  34.8630142  27.7731752   9.2835844
  18.0198419  22.1022558  24.3497753  17.1540523  21.6942096  24.3614554
  18.5955024  21.4321280  23.9812994  66.8902731   7.5755954   3.9328110
  67.1445370   6.7174882   4.2722690  67.6995802   7.9413259   3.5757512
  47.6117754  22.8245211  37.4386764  47.4931717  22.2437310  38.1902385
  46.7602873  23.2469416  37.3256969  10.5275273  47.7639914  12.2444844
  11.2598598  48.2400465  11.8529558  10.7632840  47.6795578  13.1683457
   8.2367492 104.1134548  10.9692454   8.2071888 103.2130241  11.2926328
   7.7132618 104.0974998  10.1680350  69.2075062   6.7203265   9.6359313
  69.9677896   6.8231577  10.2083123  68.5453892   7.3013091  10.0104928
  97.4455929 101.7169380  19.9884689  98.3788872 101.7799282  19.7854328
  97.2810841 102.4452782  20.5873752  92.2479248  82.7906132  69.6721220
  91.4035702  82.3424244  69.6227741  92.2142410  83.4426594  68.9721775
  97.1289635  66.6582155  92.4225044  97.9186058  67.1984863  92.4510002
  96.4163303  67.2648191  92.6235676   4.5601979   7.1111327  64.5298862
   3.8519287   7.6290655  64.1473532   5.2980483   7.2368056  63.9332199
  24.9266052  19.4047463  59.0988493  24.8704267  20.3596997  59.1326332
  24.6973228  19.1831124  58.1963301  68.0156040  13.6304152  27.7309251
  68.5454893  14.3982947  27.9449677  67.8270197  13.7223113  26.7969966
 114.5579624  34.7542453  77.7838326 113.7067127  34.9244285  78.1871319
 114.6221828  35.3986788  77.0789814  70.2500057  81.4098263  94.3407631
  69.6435213  82.0387745  93.9498234  71.1182308  81.7693520  94.1586781
  67.8556252   4.3730944  15.1174521  68.0957317   4.2497474  14.1991031
  67.2833872   5.1404065  15.1144218  95.7718849 103.6732197  79.8678684
  96.3342094 102.9818344  80.2171707  95.8525085 103.5903263  78.9176798
  69.3735504  79.1602993  86.2241650  69.2076254  78.2836962  85.8773708
  68.6588812  79.6943235  85.8773232  80.6799698   3.7647817  66.9658279
  80.4491138   3.5027605  66.0746002  81.1013794   4.6180588  66.8630457
  57.3394728   3.4404218   8.3424091  56.7039585   2.7460185   8.1687474
  56.8767357   4.2490190   8.1226814  29.7748041  43.7656546   8.3276260
  29.0307713  43.2986975   8.7078941  29.7243762  44.6440220   8.7046677
  70.3865957  16.5038252  20.4610872  71.0288906  15.7943535  20.4426575
  69.7674370  16.2845206  19.7648275  93.0781174  74.1068935  60.4385519
  92.5791359  74.9237156  60.4452991  93.7896252  74.2659950  59.8183203
  30.5006289   9.5903558  20.5488849  30.8125782  10.1306605  21.2748265
  31.1697745   8.9131451  20.4495668  13.8920474  24.7234082  10.6110096
  13.9922547  24.2817259   9.7677380  13.2418871  25.4066849  10.4477417
  14.3665946   3.5039729  32.1388507  13.7930441   3.6466122  32.8917956
  14.4626713   2.5529808  32.0877099  47.3932028  47.3113585  14.8736262
  47.0319414  46.7818499  15.5844975  46.6476202  47.8154421  14.5476925
  66.3378477  27.2203875  26.0265064  66.1795521  26.6635418  25.2642107
  65.5592775  27.7742100  26.0843706  50.0457335  36.5217113  19.3904328
  51.0025740  36.4966965  19.3828237  49.8302650  37.4538755  19.3609035
  25.6741071  55.3212786  24.9099541  26.5438342  54.9917746  25.1362991
  25.8180475  55.8648968  24.1353631  24.6022177   9.5805401  36.4331698
  24.3599868  10.5059087  36.4685011  23.8442874   9.1494650  36.0382700
  56.7652607   5.9240359  23.1802988  57.5452089   5.4435766  22.9026890
  56.8052769   6.7473418  22.6936793  57.1766424  29.9284077  36.3659120
  57.6294518  29.4452620  37.0571184  56.6920519  29.2585826  35.8834839
  42.8069925   3.3097053  50.8766890  43.5620928   2.9958069  50.3791714
  43.1621933   3.9924407  51.4458418  19.2168319  20.2597141  31.4837313
  18.4180510  19.8195255  31.7742729  19.9253976  19.6822309  31.7677736
  59.5049906  80.1949310  88.0581379  59.5678473  79.3196917  87.6757240
  60.4139090  80.4641724  88.1908417  50.1606321  11.5987861  36.4335942
  50.5560398  11.2103760  35.6531954  49.7448206  10.8629572  36.8829131
  65.4029083  28.3512712   9.4144017  66.2659216  28.7574005   9.4950205
  65.0578547  28.6844301   8.5860455  60.4754829   5.3671318  34.3281722
  60.1360178   5.6328666  35.1827955  61.3048840   5.8373463  34.2431545
  37.4398685  38.6650467  42.7175283  36.8955016  38.3558559  41.9934464
  38.1155920  39.1980433  42.2985458   9.1298741  43.5721588   5.2864236
   9.5335746  44.3268824   5.7149649   8.2245249  43.5762167   5.5971617
  41.5973234  42.7956676  36.2422562  41.6731691  43.1261396  35.3471208
  41.0123777  43.4157038  36.6777182  87.5492287  72.5384378  88.7638092
  87.4863434  73.1333828  88.0165958  86.7382622  72.6805592  89.2520428
  38.0973148  16.5456784  17.8468883  38.0325651  17.2457433  17.1973121
  37.5848722  16.8614018  18.5911691  14.3991530  22.7172422  35.9560418
  15.1929402  22.9411221  36.4418507  14.2806864  23.4429765  35.3432512
  31.2210250  26.9481397  17.1438491  31.3110638  26.0688376  16.7764878
  30.3246450  26.9773340  17.4783397  58.7749863  11.7287362   0.8320199
  58.7532473  12.6351094   1.1390156  59.5248270  11.6949725   0.2380242
  75.4332066  95.2362251  92.7331161  75.8996058  95.8653450  92.1827507
  76.0731459  94.5445538  92.9013348  82.1458149   8.1170136  17.5307143
  81.7348194   8.2352704  18.3870614  83.0700397   7.9644901  17.7276325
  79.2225599   6.3134181  32.1043849  79.2248821   7.2695965  32.0602322
  78.3493233   6.0618842  31.8036914   5.3801250  77.0550728  89.9005795
   5.6591403  76.7452669  90.7622051   5.4527181  78.0080366  89.9536419
  33.0705714  44.0546417  15.1163137  32.9748774  43.6689568  15.9871304
  32.7960467  43.3615494  14.5159054  92.0846081  73.4051514  80.3573132
  92.2541142  73.9507484  79.5893097  91.4841080  73.9243603  80.8921432
  38.9988971  28.7974811  13.2788026  39.6494031  29.4953680  13.2011509
  38.3325386  29.1553664  13.8654172  53.6108541  65.6928587   6.9493341
  53.2581472  66.5010786   6.5770286  54.3273926  65.4514980   6.3623470
 113.1651878  73.3386898  53.4724045 112.7085876  72.5000191  53.5386229
 112.9896927  73.6371374  52.5800133  11.7508888  66.6312790  87.2246361
  12.5937676  66.9230890  86.8773079  11.4613426  67.3503494  87.7861786
  16.8486810  32.7236319  32.6353264  17.2390938  33.5359836  32.9576540
  16.0457814  32.6242948  33.1469083  34.8861194  20.0835514  12.1489882
  35.5109978  19.4011116  11.9039726  35.1110911  20.3006768  13.0536842
  75.8648300   9.1833758  25.0299454  75.1674175   9.5948076  24.5194864
  76.2439299   8.5339493  24.4376922   9.3739146  47.6078939   7.9946756
   8.7543231  47.1609402   8.5713649   9.2938977  47.1512413   7.1572399
  77.2240257  12.6830876   4.2734319  76.8944168  11.9158638   3.8055044
  77.0977736  13.4088862   3.6622775  18.3504379 108.4601402  15.0744307
  18.9784336 107.8516197  14.6851230  18.3559740 108.2457829  16.0073054
  26.7383766   2.4335939  88.6920452  26.5237713   2.6295149  89.6040726
  27.3836660   1.7285158  88.7439728  90.7014465  70.1042557  93.0730438
  91.4824295  70.0879240  92.5198364  90.4546165  69.1841269  93.1661606
  51.2874794  25.1199722  41.4774895  50.6974840  24.7611427  40.8146334
  51.0496759  26.0454369  41.5340281  64.9901009  21.7754936   3.3538035
  64.2713261  21.9074535   3.9720145  65.3489542  22.6516652   3.2131627
  37.3811650  20.8704424  20.3803587  37.4688530  21.6082883  19.7769272
  38.1378078  20.9453511  20.9618330 107.3167324  81.2833118  86.5383625
 107.6291466  80.5181599  87.0212364 107.7258778  82.0280743  86.9790077
  15.5292594  91.5918446  29.6077967  15.7691240  92.1430683  28.8629150
  14.6425521  91.8706608  29.8363686  44.9585009  18.8731289  37.3621345
  45.2166271  17.9528499  37.3102689  45.6541777  19.3432808  36.9025469
  55.1279545  10.2259696  40.0985956  55.9014130  10.1190031  40.6522703
  54.9683428  11.1697280  40.0898266  52.7530813  15.2298474  18.0581892
  53.0302238  15.2473938  17.1421564  52.6997900  14.2989361  18.2745111
 101.4972210   8.9651972  18.4491181 101.4470005   9.4585323  19.2678547
 102.4333191   8.8153583  18.3168101  50.7492113  13.5908687  22.6433992
  50.2480412  13.9586258  21.9155169  50.1276493  13.5598886  23.3706808
  29.8129368  18.2634866   8.8976115  30.6858635  17.8916562   9.0240026
  29.6241260  18.1214952   7.9700226  64.1677189  28.8312483  17.1372664
  63.6390781  29.5240903  17.5331700  64.7250700  28.5184383  17.8498292
  86.2022972  96.5571404  75.0066710  85.5430031  95.8677959  74.9269104
  86.6009521  96.6089535  74.1379786  45.0950432   9.8446840  32.7034211
  45.5665970   9.0197790  32.8191781  44.7719145   9.8115396  31.8030190
  28.1405282  25.4883695  59.7731590  28.6710525  25.5434155  58.9783335
  27.2370982  25.4706287  59.4573545  23.1284475  39.4144821  81.4614964
  23.6387873  38.6805201  81.8036747  23.2804108  40.1237059  82.0861149
 103.6486816  93.6701393  86.7465973 104.0532303  94.3798161  86.2476540
 103.2767963  93.0912495  86.0811520  71.5975428  26.5919733  88.2507610
  72.0338202  27.1099114  88.9272404  71.3426733  25.7834578  88.6952496
  52.9980373  27.9504943  81.3439465  53.0477762  28.9030480  81.4239597
  52.5230980  27.6689386  82.1258640  72.8343296  56.3505173   0.3669755
  73.5092688  56.8452740   0.8316290  72.5756216  55.6633425   0.9810562
  55.2357388  18.1236672  60.6613159  55.2432966  18.2661939  59.7148132
  55.9865570  18.6217010  60.9845257  98.1799316  60.3638697   8.6811590
  97.4970245  60.5301428   9.3309438  98.0150604  61.0060263   7.9907364
  41.3244200  34.5416570  82.3803520  42.2321129  34.7942567  82.5492287
  41.0745001  34.0215373  83.1440639 104.4896317  24.3959832  12.7215016
 104.4507122  25.3415465  12.8651190 103.7229347  24.0523100  13.1800842
  55.0406313  10.1359427  75.7973528  54.9235964  10.6229675  76.6130400
  55.9605789   9.8716474  75.8060837   2.2406197  52.5340223   1.6793449
   3.1853437  52.5276518   1.8332547   2.1037549  51.8712187   1.0024432
  63.5286283  20.2951145  82.9221916  62.9053068  21.0081577  82.7833652
  63.9290905  20.1565552  82.0639038   4.6644899  95.8980465  65.5240250
   4.7483036  95.5174255  64.6497679   4.3466789  96.7874622  65.3685713
  80.3935814   7.7290404  78.1551838  80.0800228   6.8889439  77.8202963
  79.6038055   8.1744099  78.4619999  70.8237457  15.6744289  87.1942616
  70.7830524  16.3699651  86.5379047  69.9601507  15.2629232  87.1610260
  14.2426884   4.9481300  17.2789502  14.7754884   4.3515638  17.8047490
  14.5230007   4.7884822  16.3777471   2.1429655  94.1168880   2.9717109
   2.1404329  93.4684277   2.2676328   1.2267797  94.3803024   3.0580205
 116.0205746  97.3363590  73.9740229 115.7506561  96.4510155  74.2180586
 115.4354572  97.5755787  73.2552528  91.3857841  41.1311674  18.3733261
  91.4239693  40.7175303  17.5109589  91.7765236  41.9950724  18.2421064
  23.6214948  81.1546898  11.4032316  23.0406594  81.7747021  11.8441880
  24.4868135  81.5610123  11.4518130  27.7562475  94.2961693  90.9707546
  27.8753018  94.8790073  90.2208519  26.8568850  94.4551849  91.2572765
  99.0489864  92.8615093   7.6096219  99.4655895  92.8098106   6.7493910
  99.7486496  92.6501083   8.2276863  96.1028957  52.8145456   6.9975400
  96.8650246  53.3206034   6.7159408  95.6430721  52.6020670   6.1853540
 102.9458141 102.4563026  90.0800800 102.1789551 101.9899464  90.4127407
 103.5137463 101.7675877  89.7346115   1.8447216  87.9160213  82.3057842
   2.3089378  87.6235104  81.5214539   1.8810894  88.8715839  82.2632504
  57.8423834  13.3150911  64.8868179  57.3411989  12.9718018  65.6265450
  58.7088490  12.9191709  64.9802065  79.2063379  87.8875923   0.5539740
  79.0198374  87.2895336  -0.1697429  78.3454275  88.1122398   0.9069678
  16.1791623  95.5652905  91.8397522  16.9914305  95.2682877  91.4295864
  15.9667051  94.8804474  92.4738598 109.4699669  64.3294096   3.5804343
 110.0592327  65.0834894   3.5994437 109.7200012  63.8107157   4.3450716
  57.7986765  34.2281890  21.3695335  57.2004271  33.7336421  21.9296718
  57.3048353  35.0103331  21.1233544  50.4476929   6.4086866  84.6862793
  49.6510315   6.8774319  84.9349594  50.2336884   5.4852611  84.8194027
  91.9771576  26.4084196  82.8005981  92.7339840  26.6679573  83.3260345
  91.7490864  25.5366325  83.1234074  24.2776752   6.4382285  83.1275272
  24.9526048   7.1099120  83.2252312  23.5745287   6.8735588  82.6455498
  40.8541155  13.3577454  63.8841724  41.6388083  12.8907073  64.1711617
  40.4568720  12.7804995  63.2320833  41.3754654   5.5590242  89.5602798
  41.9794750   5.1598138  88.9341545  40.8015108   6.1060238  89.0239906
  86.9531059   6.5061390  88.1034946  87.2502232   6.0354972  88.8822460
  87.6063919   6.2996483  87.4350643 107.0742702  25.0275469  -0.1227193
 107.3663998  24.7159100   0.7338858 107.6987934  25.7153821  -0.3531071
  41.3125420   5.5669254  67.9604530  41.3506651   4.6170133  67.8488922
  41.9381618   5.7511002  68.6610985 115.1685524  71.8220758  12.0677292
 114.9880409  72.1969557  12.9297686 115.6336975  71.0064650  12.2538686
  97.9575157  61.6725922   5.1189649  97.2664070  61.3751078   5.7106608
  97.5764179  61.5899086   4.2448029  97.0894337  55.0714540  10.8438838
  97.3027802  55.2832460  11.7526519  96.1831474  55.3603363  10.7370448
  61.3040304  66.7895651  18.2884884  60.8264923  66.9314003  19.1058433
  61.8836832  66.0509777  18.4748280 101.9134617 104.9221134   5.1804042
 101.5619373 105.7735634   4.9202132 101.9457626 104.4177723   4.3674892
  71.4781713  50.9186554   9.2376083  71.7457867  50.5360937   8.4019911
  70.6358719  51.3338232   9.0521377  98.3301735  87.4509716  17.1206045
  97.6351166  87.6287460  16.4869452  98.2706642  86.5096283  17.2835910
  93.9043999  29.3208814  22.8542209  93.4351826  28.5645366  23.2063794
  93.9972115  29.1316772  21.9205070  59.9256563  12.4756992  82.7326965
  60.6648111  11.9575214  83.0510998  59.3842363  12.6224136  83.5083103
 110.9545422  82.4036312  75.9177017 111.8899822  82.2377014  76.0345221
 110.5532837  82.0951176  76.7301321  43.0866385  92.4051762  84.3024063
  42.9480505  93.0688667  83.6267376  42.8350210  92.8378391  85.1183224
  51.1323023 109.2677879  79.9583197  51.5561485 109.3071556  80.8156681
  51.0209703 108.3323002  79.7889090  67.1209049  80.6543922  16.3878226
  66.1961222  80.6481552  16.1409080  67.2503138  81.5035725  16.8101823
  68.7642193  94.9826813  35.2762508  69.6303844  95.2712154  35.5638981
  68.4267473  95.7151604  34.7606802  55.2533293  83.9443588  12.9467571
  56.0451078  83.7076187  13.4297371  55.5757523  84.3162441  12.1257961
  94.1067696  70.0994205  24.4407558  94.3683338  70.9447145  24.0756726
  94.3921757  69.4586086  23.7895012  94.8458862  50.3069592  20.5992937
  94.4118690  49.5886326  21.0595870  95.7504940  50.0122070  20.4942083
   5.1423419  82.0343971  38.1783819   6.0787719  81.8360901  38.1798458
   4.7991085  81.5641022  37.4186158 103.0844021  33.8449955  34.6102071
 103.8523769  34.0989494  34.0983915 102.5482273  33.3368564  34.0014839
  56.4453650  84.4603348  10.5358672  56.9969559  84.9744320  11.1255062
  56.6388321  84.8061562   9.6645427  79.5965338  35.5863976  23.7370110
  79.8125219  35.4946208  24.6649981  79.5642614  36.5318418  23.5909748
  64.4917440  24.5689702  75.4998827  63.9984465  24.0203428  76.1097145
  64.0874720  24.4035983  74.6481514 113.2585430  63.0371237   4.3862435
 113.0231380  63.9646006   4.3617219 113.6698151  62.9169559   5.2421939
  10.0157285  24.8583627  15.1510751  10.4165733  24.2141128  14.5675516
   9.6596462  25.5248499  14.5635104  85.1479530  56.2586498  12.6982105
  85.4801083  55.3926373  12.4617243  84.7374916  56.1323452  13.5536683
  46.7394733  16.2665606  80.7427120  47.1689415  17.0974517  80.9462070
  46.2654686  16.4350843  79.9283695  82.6272964 101.8135834  74.1202450
  83.2705784 101.3926411  74.6905231  83.1203938 102.4971390  73.6665535
  93.2232952  40.7536840   7.3189318  92.6548481  40.2606392   6.7273223
  93.0025864  40.4266787   8.1910479  72.5776672  75.5766392   7.0400178
  72.5573397  76.5299702   7.1235663  71.6679287  75.3059101   7.1637499
  85.4937553  28.7615919  18.8483846  85.5482578  29.6370983  19.2314649
  86.2619591  28.7003374  18.2806265  89.8821831  89.2071819  89.0888214
  89.6306705  90.0837994  89.3795300  90.6717587  89.3456650  88.5657310
  58.9333344   2.5809562  52.3530340  59.5310688   3.2235190  52.7352095
  58.0834341   2.7816567  52.7449751  84.6784782  57.1260452   5.8091724
  84.1897106  57.7775764   6.3120139  85.0330544  57.6138544   5.0658345
  58.7430334   5.9486657  93.5652065  58.2497549   5.1710516  93.8263988
  59.4856119   5.6054878  93.0681705  13.4805775   7.3961395  90.4302120
  12.8148735   7.9575026  90.0327969  14.3123233   7.8065079  90.1935101
  56.6920137  18.2506466  68.1895733  56.3079882  19.1264629  68.1483269
  55.9426737  17.6655531  68.3008766  66.5872955  79.5778179   1.0908711
  65.9330702  79.5441437   0.3929532  66.2748098  78.9502192   1.7425668
  35.0976205  27.1485686  83.4911537  34.2946243  26.7457867  83.1607056
  35.0027514  28.0779529  83.2826424  57.1639299  30.5442500  11.6155434
  56.5914679  31.0899949  11.0763931  57.3075294  31.0591984  12.4095452
  52.5687885  26.8999004  83.6808681  52.3702526  26.3542366  84.4418335
  53.2246876  26.4015388  83.1933594  84.7172928  76.1906004  12.4961650
  85.3045654  75.6264782  11.9930685  85.2973366  76.8240738  12.9186475
  98.5775089 107.2939110  52.5330019  99.1396523 108.0237198  52.2730064
  99.0018845 106.9296360  53.3098173   7.7390492 106.1843491  87.3644447
   8.0534339 106.1231613  86.4624214   8.4005016 106.7107677  87.8134346
  58.7902498  30.0688887  93.3426476  58.7077808  30.9469604  92.9705906
  58.8973475  30.2160382  94.2823887  17.4664962 103.8216972  90.8225250
  17.1690559 103.5818863  91.7001629  16.9156492 104.5652676  90.5777836
  49.7526979  32.9955602  85.9341908  50.3390169  33.7025738  86.2036324
  49.6050930  32.4892759  86.7330170  70.0176191  90.7085800  61.2991476
  69.5050955  91.4826679  61.5322638  70.9105062  91.0361576  61.1910391
   1.5485069  98.7529945  71.0080099   2.3312929  99.1210270  71.4179230
   1.8766767  98.0350494  70.4666328 110.1692486  89.5612621  78.0828810
 110.4771328  88.6562538  78.1318140 110.9628963  90.0892925  78.1698084
   5.7822466  35.5383539  13.2724893   5.5964011  35.2351689  12.3837972
   4.9374092  35.8437777  13.6029410 107.5662708  39.1264701  12.2650146
 107.6479244  38.9904904  11.3210464 108.1036949  39.8982644  12.4431908
  24.3415332 102.2631264  92.1331978  25.1887083 102.0438004  91.7453480
  24.5396161 102.9522705  92.7672863  61.4302731  24.6822953  80.2693176
  61.0800266  24.0456438  79.6462250  61.9090080  24.1539598  80.9079933
  38.8260245  25.8035421  69.7070122  39.7391391  25.8777761  69.4296265
  38.8744521  25.6370854  70.6483841  83.2697773  75.8152008  16.3405061
  83.7485981  76.3479376  15.7055593  83.4778309  76.2081575  17.1881688
  86.9231224  55.2492571  18.5736716  87.3595810  54.4146299  18.7443328
  86.0387611  55.0055647  18.3002472  17.9792738 100.5251503  92.4096012
  17.7159107 101.4370918  92.5330067  18.7046123 100.5675507  91.7864513
  44.6247578  97.3559380  80.7996082  43.8118076  97.0734596  80.3806210
  44.8299122  98.1934834  80.3840733  55.6355572  30.8000326  68.6506557
  56.3864040  31.3842726  68.7561178  55.4767132  30.7821274  67.7068949
  10.5003870   6.9649714  35.7455683  10.1224339   6.0997093  35.9027410
  11.3702059   6.9221497  36.1428261  96.1012840  64.5372820  41.5951681
  96.2637043  65.4683018  41.4433193  95.2394390  64.3785906  41.2101030
  61.7978144  90.2873802   1.7608714  61.4517975  90.6038284   0.9263872
  61.4149284  90.8711433   2.4157394 104.7346973  46.2301922  14.8099422
 105.5961990  45.8394527  14.6637750 104.3866253  45.7649469  15.5706143
  80.7718849  89.5161629  19.8531580  80.7831001  88.5782337  19.6624017
  81.5182686  89.8681641  19.3681502 113.9219570  59.2125750  19.7804737
 114.1686344  60.1116848  19.5636988 114.4521904  58.9971018  20.5477142
  45.4440689   4.9037248  88.5966587  45.3797197   5.8503807  88.7228870
  45.0926304   4.5299065  89.4047356 104.8422909  72.0215797  17.7336001
 104.0121174  71.7745113  17.3261702 105.1034737  72.8222084  17.2786152
 105.5668640  82.9650021  17.4332082 105.8406067  83.2792091  16.5714788
 105.8220005  82.0425034  17.4439454  48.5635090  21.0498953  86.5324116
  48.9842319  21.8905258  86.7128563  48.5509062  20.9885097  85.5772591
   3.5076141  44.0958500  29.3711090   4.1910008  44.4663763  28.8126040
   3.9505947  43.9070225  30.1983595  55.6086969  15.9545898  83.7035275
  54.8803186  16.5008652  83.4080887  55.4555225  15.8377516  84.6411419
  89.0627766  81.3907528  15.2376544  88.2445335  81.0414886  15.5908060
  89.1262341  82.2716618  15.6067145 105.0851345  58.3979416  29.4992924
 105.1588535  58.7106895  28.5976338 105.6097507  59.0143251  30.0102496
  95.4584599  84.9521732  16.4476812  95.3493690  85.3850555  17.2944045
  94.7011852  84.3710613  16.3764465  51.4097023  42.9095888  85.7846165
  52.2216272  43.2266808  86.1801720  51.2732267  43.4798336  85.0280285
  94.9386883  75.1143742   1.0722654  95.4358959  74.3378830   0.8152066
  94.5199776  75.4092312   0.2635822  16.3971746  77.3620558   1.9834606
  15.9647691  78.2064199   1.8557627  16.9239187  77.2408152   1.1934781
  60.1023531   9.8010790  73.2302475  59.2256832  10.1577926  73.0872679
  60.4064131  10.2269244  74.0317678  93.1541252  83.2652760   6.4149851
  92.3157883  83.6613083   6.6528624  93.5185814  83.8545513   5.7545620
  83.1184864  96.2639523   3.5258013  82.3149490  95.8468723   3.2150021
  83.4636497  95.6592178   4.1825974   3.3295026  52.8960133  22.8796411
   3.2722446  52.4583912  23.7290192   4.0859345  53.4770250  22.9600692
  14.2826605  76.8934202  28.9191270  14.9583888  76.4603329  29.4407225
  14.7424388  77.6065159  28.4760356  34.7128844  97.4098682  87.5945091
  35.5580258  97.8358173  87.7378082  34.7952032  96.9976139  86.7345619
  45.6572342  80.3268051  18.8030815  45.6335831  79.8035669  19.6042645
  45.0970411  81.0796070  18.9920354  76.7889881  79.1957855  33.3763075
  76.4732552  79.2492056  34.2783546  76.4100790  78.3846664  33.0375624
  94.4922352  11.7231846  86.8596649  94.1087437  12.3126173  87.5090790
  94.2296124  12.0923519  86.0164738  62.2279978  32.9467678  90.6420422
  62.5463724  32.0789218  90.8904648  62.6768208  33.1399775  89.8189545
 111.2300968  50.1663256  36.5648723 111.8703270  49.9578667  35.8845210
 111.7203140  50.0977993  37.3841548  90.0953197  59.9942780  30.4272723
  89.2662334  60.4630661  30.5226302  89.9264908  59.1302299  30.8029819
  83.2317829  67.1056843  53.3051777  82.4245358  67.6101589  53.4056473
  83.4042931  66.7533827  54.1783094  41.6978359  33.9232063  86.0526180
  41.2938738  34.2956710  86.8363953  40.9587526  33.6574459  85.5054760
 111.3007545  83.9696884  15.4944694 111.0162354  83.7134075  16.3717389
 111.9514370  84.6554947  15.6445146  51.0827637 101.9363022  43.8330984
  50.8756161 101.9096184  42.8989649  50.2314186 102.0040131  44.2653751
 114.7919178  61.2388515  30.7832384 115.5503845  60.7018566  31.0125542
 114.5760918  61.7056894  31.5905261   0.3206105 101.6797256  20.1798534
   1.0509069 102.0245647  20.6936455   0.5122085 100.7464314  20.0877023
  47.7282238   4.2699832  27.4078655  48.0841637   4.4925550  26.5476322
  48.3970165   3.7136436  27.8071570  97.7036572  83.4105682  12.4246264
  97.9723835  83.4610748  11.5073109  97.0151806  84.0701771  12.5091839
   0.5941532  33.2650614  18.5451758   0.6013877  32.3528957  18.8352311
   1.1839151  33.2813931  17.7914214  39.5167685  96.1121941  87.3688030
  39.8016620  95.4051399  87.9477215  40.2066898  96.1734962  86.7081356
 103.4950447  94.5387554  24.7355795 103.0536175  94.5762062  25.5840898
 102.8928185  94.0511799  24.1736031  76.5385437  61.5291452  16.3907647
  77.3827457  61.2143373  16.0675871  76.5019178  62.4444056  16.1129260
  83.2509327  29.5383000  65.9382296  83.7911510  28.9119124  65.4565334
  83.7394428  29.7058606  66.7441511  80.8965683  74.5914507   1.2870111
  81.3789082  74.1158819   1.9633320  80.8637047  75.4934359   1.6057238
  91.0957336  68.5340881  66.2202740  91.2526798  68.6165857  65.2796364
  90.1496410  68.6437178  66.3157654  60.7153749   9.4138145  86.5234756
  60.8712149   8.6160564  87.0289803  61.4885712   9.9545068  86.6848755
  37.7017260  99.7141075  39.5861197  38.5162306  99.6944714  39.0836954
  37.1730924 100.3882122  39.1590905  93.0616760  75.3901243  27.1505046
  93.3905029  74.5030212  27.2959352  93.7898254  75.9593105  27.3996210
  74.8411560  85.0745106  13.9749920  74.5720720  85.9930611  13.9846814
  75.5471563  85.0385475  13.3296227  76.8418074  88.5462284   1.5555531
  76.5941620  88.1560421   2.3938015  76.8276072  89.4896030   1.7169787
  51.3606501  90.7855320  24.1859102  52.0006275  90.5462265  23.5155416
  51.8228197  91.4085197  24.7467256  51.2069321  12.5025463  87.2150135
  51.2607718  12.7328408  88.1425285  51.8856382  13.0324090  86.7968750
  92.5514221 103.0063629   8.2413757  93.3012390 102.6666927   8.7298840
  92.1039009 102.2253227   7.9159069  72.7472115  91.5909481  13.9581668
  73.3709288  91.6839504  14.6782804  72.6021719  90.6474590  13.8872766
 112.5365639  96.2584114  11.0906827 111.8367672  95.7124043  10.7323611
 112.8351021  95.7857609  11.8676698 112.5239944  77.7242231  21.0572171
 112.6943684  78.6594677  21.1691070 111.6844177  77.6868534  20.5990219
   7.9112881  93.5527420  29.1156387   8.5029042  93.0239868  29.6510243
   8.4291822  93.7855244  28.3450365  86.0721684  80.6947613   6.2850147
  86.4739513  81.5132999   5.9938246  86.4236832  80.5549240   7.1642828
  32.2641253  93.2085419  71.2880611  31.3827205  92.8398418  71.3465261
  32.5348926  93.3274174  72.1984339 101.4233780  68.9637995  38.1670189
 101.2017059  69.8543406  38.4391022 100.6858635  68.6892557  37.6221108
  32.4368262  82.9199409  90.4556561  33.1616426  82.2971344  90.5101967
  32.8103781  83.6843777  90.0170994  89.8086929  84.2925262   7.6420987
  89.6777153  83.8659382   6.7952794  90.4549694  84.9768543   7.4681437
 111.5330410  89.2788124  18.9583325 112.2439766  88.6624813  18.7824559
 110.9563065  88.8127804  19.5636630  60.0757122  37.9598522  91.4155769
  59.4317961  38.4881544  90.9438801  60.5387068  37.4781895  90.7301044
 101.4178085  57.6215553  86.8921375 102.0731735  58.3177280  86.8466187
 101.3863182  57.2638559  86.0048485  58.7305403  29.1000843  81.2569809
  57.9073334  29.1660476  80.7730293  58.4812880  29.2285061  82.1721935
 100.2536011 105.6386662  86.0924339 100.1036930 105.8231544  87.0196438
  99.3830490 105.6785965  85.6964874 100.7895184  61.4383698  23.8098335
 100.0671101  61.1822033  23.2364869 101.3713551  60.6783295  23.8161635
  58.7028837  20.7997870  92.8060627  59.1363811  20.7587385  93.6584854
  59.0828276  20.0753522  92.3090076  16.1740124   7.9349309  88.6761379
  16.9313705   8.0396795  89.2520428  16.5088797   8.1331921  87.8016090
  73.6207724  17.5413132  80.4989243  72.9699135  18.0217111  79.9872351
  73.7711287  16.7376375  80.0011921  18.6192596  93.5822201  84.1672993
  18.7049472  92.6600647  84.4091988  18.0525684  93.9552975  84.8425102
 113.0714130  94.2852879  16.4238465 112.8812885  93.5481358  15.8436012
 114.0246773  94.2822170  16.5105057 115.2340031   3.6063486  29.0430498
 116.1314201   3.2909116  29.1497064 114.6955490   2.9515234  29.4874644
  74.2567253  47.7523375  91.7349529  73.7661886  48.3577347  92.2909355
  74.2560673  48.1658936  90.8717060 110.7807827  66.3281918   0.7925656
 110.8355808  67.1596718   0.3215398 110.5308151  66.5735769   1.6833723
  48.8012505  16.5715349  93.6188507  49.0911913  16.2505269  92.7649689
  48.1141186  15.9601092  93.8838768  35.6055474 108.6827183  91.3790894
  35.1872373 108.1595516  92.0628643  34.8998952 108.8802719  90.7632542
  63.0151606  38.2449055  91.4916229  63.2719088  37.8744245  92.3360443
  62.0595312  38.2854676  91.5284824  61.0912752   0.2789133  79.1468954
  61.4049292   0.4464230  80.0356007  60.4074097   0.9338540  79.0068340
  78.4271765  59.8264647  12.9972005  78.2635307  58.9715338  12.5990200
  77.5766277  60.2652407  12.9804432  94.5132256  24.1628957  92.1158314
  93.8101768  24.8034954  92.0081806  95.3094196  24.6392918  91.8805695
  32.1672988   7.0026207  93.6344433  32.7699018   6.6208613  92.9961872
  31.3831902   6.4563119  93.5800934  25.9999180  99.1175842  34.1528440
  26.6990137  98.5706806  33.7945223  25.2932215  98.5032940  34.3514729
  71.7352581   2.3080425  67.6789570  71.3485432   3.0775869  67.2612429
  71.0834122   1.6174379  67.5589895 109.1094017  80.8580780  34.2791367
 108.5122681  80.2523994  34.7182441 108.5444546  81.3814163  33.7106395
  24.6296239  47.6331377  35.7544851  25.4367232  47.2142410  36.0533929
  24.7468805  48.5587931  35.9681273 101.1483097  88.0636406   7.5648659
 100.2967644  88.4027576   7.8407222 101.3675880  87.4034023   8.2223129
  92.0835781  34.7157478   1.8445061  91.8981647  33.7838554   1.7286037
  92.3370075  34.7969866   2.7639669  74.2224693  41.0600185  86.1998272
  74.8607349  41.0827112  85.4868507  73.6408091  41.7996550  86.0242081
  90.8977985 101.3946724  90.6704330  90.3464222 101.8286133  91.3215160
  91.4349651 100.7867050  91.1784172  37.3903966  97.0660496  81.4960384
  37.4094200  97.3101139  82.4214077  38.2993436  96.8515778  81.2861729
  59.9570751   1.9580847   4.5543250  60.6781149   2.5756657   4.4321352
  59.6790648   1.7356506   3.6658072  86.1463642  80.9308052  26.4944220
  85.4186440  81.4677620  26.8079805  85.7299614  80.1410484  26.1492705
 106.7772675  93.5797977  44.9315643 106.5921021  92.9952145  44.1965771
 105.9395790  94.0042400  45.1169395  93.4333324  64.9838114  23.3421588
  93.0848026  65.3997087  24.1306973  92.7390194  65.0851727  22.6910830
   9.3128049  72.7746582  24.5175552   8.5052854  73.2873058  24.5540905
   9.0860015  71.9408464  24.9293184  92.6960850  71.4137650   3.0389863
  93.1348896  71.3700914   2.1894139  92.2381783  72.2542715   3.0291206
  63.2323551  13.5612631  77.2468662  63.6709785  13.7215376  76.4113092
  62.3339987  13.8606799  77.1070862  72.0857048  58.0956125  17.6528144
  72.1637201  57.5457859  16.8731761  72.6304531  58.8593864  17.4627507
  86.5096474  19.7148967  82.7424145  86.1974525  19.1611123  83.4580135
  87.0113850  19.1224778  82.1824741  43.4792805  12.6128566  57.2213459
  44.1667795  12.2589529  57.7855539  42.7618980  12.8211999  57.8198338
  59.0255833  18.4916461  74.8981333  58.7482452  19.3854249  74.6969509
  59.1768694  18.0895436  74.0427637  94.7186089  64.2503881  13.6457813
  94.3871498  64.5449734  12.7974951  94.5328331  64.9767447  14.2408717
  60.8663177  50.7035732  93.7075520  61.0488415  51.2890387  94.4425011
  60.2541208  50.0584793  94.0615463  85.8480167  83.6909962   2.9759914
  86.7339039  83.9879608   2.7680165  85.2770615  84.3684864   2.6137057
 105.0237370  48.5635900  31.5394473 104.2919254  48.8566685  32.0824003
 105.7974434  48.7004471  32.0861483 102.9049206   3.7235308  14.7188997
 102.1237564   3.6700654  14.1682982 103.6359596   3.6571637  14.1045666
 101.7840862  65.0104523  42.4039364 100.9735966  64.7529793  42.8433084
 102.2507668  65.5379725  43.0521345  87.5154686  80.1467228  11.4467788
  87.7020359  80.9973812  11.0495222  86.8119335  79.7810841  10.9105229
  53.3214951  13.6414635  92.2514915  52.7176571  13.9490294  92.9275227
  53.3437395  14.3510234  91.6094112  74.1415882  16.0497963  84.6543694
  73.5782194  15.6731534  85.3303719  74.4734049  16.8592846  85.0427723
  86.9213295  22.1459198  87.2282982  86.2927628  22.0107698  86.5191650
  87.6057911  22.6915169  86.8409157  89.3785954  69.3448067  14.0833187
  88.7749577  68.6725426  13.7672246  89.1896439  70.1105309  13.5409141
  20.7725883  55.1210546   6.3279080  20.5945921  55.7408142   7.0353311
  20.2371240  54.3562651   6.5391171   4.6726972  42.5618458  16.7698705
   3.9857009  42.6810265  16.1140776   4.3271816  42.9815722  17.5577021
   5.1032454 107.6339340  42.4127293   5.8383459 107.3418713  42.9517651
   5.2761680 107.2597313  41.5488434 110.1025772  77.8694582  13.7393928
 110.0646877  77.0712471  13.2124579 109.8765659  77.5831842  14.6243787
  49.0264320  19.1445673  93.1786919  48.6327744  18.2836199  93.3202457
  49.9098396  18.9549708  92.8626728 106.3462543  42.5695658  12.2272277
 105.9395599  42.6901293  13.0853057 106.2818432  43.4281015  11.8088925
 110.9681892  51.0391378  13.5459828 110.0276852  51.0464954  13.3681023
 111.3334274  50.4570436  12.8796506 102.2722626  64.6911049  14.5850396
 102.4199677  63.8085270  14.2452347 101.3212776  64.7985888  14.5671833
  80.5276871  42.6866436  94.6577072  80.8714581  42.9901171  93.8174915
  80.0644588  41.8756437  94.4481182 112.7460003  90.3192902  22.2036576
 111.7978001  90.4453278  22.1680021 112.9228878  90.0891399  23.1157827
  73.3714724  29.2226791  87.1149921  74.2656517  29.1990352  86.7742252
  72.9322767  29.8909664  86.5889359  79.0540600 105.2078342  16.7390513
  78.3932543 105.2989864  17.4255347  79.7053099 105.8790779  16.9428492
  58.0379725  23.2660484  89.0692234  57.5361347  23.2590246  89.8842907
  57.6890755  22.5298047  88.5667801 111.4171696  92.0004368   4.1670534
 111.5309334  92.9234219   4.3937162 111.1533451  92.0105076   3.2469845
  90.3486919  63.5193968  37.3566747  90.5751038  63.6099005  36.4310503
  89.8116398  64.2882538  37.5481629   2.4746408  58.8706160  15.7158065
   1.8182813  58.8464451  16.4121115   2.1976979  59.5917225  15.1505280
 102.0966339  77.2858810  38.8661361 101.6132927  76.9753456  38.1005120
 101.5034008  77.1337843  39.6017814  91.7789936  98.7617683  19.7499549
  91.6153812  98.7613487  20.6930685  92.5096226  98.1544590  19.6333444
   1.6338058  79.8566198  23.8779664   1.3993806  79.9175358  24.8040152
   2.5889930  79.9178886  23.8681698  42.9246378  20.2121353  77.1912336
  43.2891273  21.0111833  77.5718927  43.4430122  20.0656986  76.3999891
  64.7476053  33.2908940  85.2720928  65.1395607  33.9357162  85.8609962
  63.9426899  33.0208826  85.7141781  51.4499998   9.9594069  92.9115677
  51.0765123   9.5278323  93.6800003  52.3629236   9.6720940  92.8955746
  33.4166265  34.3697000   9.0563291  33.1924534  34.1089606   9.9496335
  34.2470884  34.8374271   9.1446084  64.9918270  22.9740953  85.6605053
  65.6186199  22.4746180  85.1371670  65.5352020  23.5344625  86.2145519
  69.4949389  72.6665831  24.9345660  69.2512274  71.9373989  24.3643641
  68.7683535  73.2848263  24.8565674 107.8710651  55.3031397   1.1731994
 108.2805252  55.3932667   2.0336919 107.9933834  54.3815994   0.9450845
 100.9621620  77.4606848   4.5411524 101.4158821  77.0167303   5.2575845
 101.0613632  78.3926153   4.7358203  33.8218880  67.8033733  70.5613661
  34.0085602  67.7366447  69.6249199  32.8850508  67.6203156  70.6324816
  88.5513973  96.1405277  10.1117766  89.0814018  96.1245346  10.9086883
  89.1904831  96.1510563   9.3992567 110.1277542  61.2083864   0.0945195
 109.6880722  61.7461634   0.7530798 110.6981468  61.8194723  -0.3718010
   3.0863693  53.2849693  33.5107493   3.8403654  52.9438114  33.9917231
   3.4357545  53.5155773  32.6499462  91.0171318   0.6880194  74.8989582
  90.7593346   1.0253042  75.7568693  90.5041313   1.2021187  74.2754555
  74.1019487  26.1041927  89.5670795  74.1414165  25.2854919  89.0727139
  74.1642809  25.8340096  90.4832363 113.7943172  66.6587114  41.9386053
 114.5578861  66.2103891  41.5750170 113.4755898  67.2080374  41.2224483
  86.7090893  34.1436601   0.5985422  85.8459759  33.9350414   0.9559570
  86.7061806  33.7555838  -0.2764545  48.5399961  12.0362771  67.4001694
  48.3636808  11.9880128  68.3397484  47.6819992  11.9288194  66.9896412
  88.4379292  66.4325380  20.5448437  88.8576221  66.7856121  19.7603476
  88.1429577  67.2050571  21.0269642   0.6143687  96.0238647  56.7103767
   0.4136185  96.7405033  56.1084223   0.7200964  96.4486027  57.5616407
  42.6797199 108.8625240  73.4504890  42.5536156 108.1333733  74.0576792
  41.8273544 109.2968178  73.4174156  75.2209806 105.9825802   8.1471425
  75.7591963 105.2556515   8.4603834  74.6779966 106.2198639   8.8988709
  27.3719811   2.8965241   1.5104853  26.9891167   3.0324352   2.3771882
  27.3540807   1.9475079   1.3868758  57.4063492  39.5602846  92.9565907
  56.8726206  38.9413190  92.4583435  57.5779963  40.2756310  92.3441792
  19.2546844   0.7184904  11.0991132  18.7489033  -0.0648528  11.3154244
  20.0184393   0.3875183  10.6264961  69.2506695  73.6124134  10.4465246
  68.4250832  73.1323767  10.5113423  69.4323969  73.8983440  11.3417625
  19.8542631  96.0361290  93.6916733  18.9927840  96.4405537  93.5890865
  20.4478335  96.7718124  93.8422298  78.2362223  32.7972078  10.7427990
  77.8120756  31.9613576  10.5486619  78.9070368  32.8882670  10.0660825
  85.5964851  89.5415688   9.8655576  85.5305290  90.3947258   9.4365990
  84.6949196  89.2222691   9.9035901  77.6806927  87.3226166  14.3603468
  76.9672966  87.6210117  14.9244940  78.4621620  87.7421093  14.7202897
  17.8640425  93.5122204  79.1564798  17.3086846  94.2567825  78.9253187
  18.0808163  93.6521721  80.0782490 103.5643387  43.4335423  26.3319755
 102.6466179  43.3460808  26.5896034 103.9995861  43.7810373  27.1104670
  89.5548248  87.5367260  10.2444518  89.5345306  86.6189384   9.9733430
  89.6233845  87.5031567  11.1986029  26.1234069  46.4200497  23.2598758
  25.1726079  46.3594580  23.1674743  26.2628841  47.2031927  23.7922907
  59.7845268  58.0382729  11.6080821  60.5003643  57.4693584  11.3249779
  59.8206758  58.0109453  12.5642085  91.0824776  34.0464735  18.4575963
  90.2198410  33.7342668  18.7307608  91.6788197  33.7245393  19.1335845
  50.3310442  29.8489881  52.3622656  50.0528574  30.1269031  53.2349682
  49.6390581  30.1615620  51.7794418  91.3775921  62.9200315   2.5939688
  91.6317749  62.0835495   2.2042011  92.0882225  63.1272745   3.2008332
  37.4583220  93.8724804  21.0615039  38.2259798  94.3167591  21.4214349
  37.4529147  93.0173588  21.4915848  97.2932911  78.0505133   9.9708134
  97.1848774  78.9560127  10.2615893  96.7291546  77.9769802   9.2010230
  98.6009216  77.7358341  19.2287290  98.6549759  78.0843353  20.1185918
  98.7003231  78.5027838  18.6646903  75.0737381  27.0755816  79.9678707
  75.1651096  27.8263927  80.5545235  75.8651686  27.0943403  79.4298029
  13.8904762  41.0619068   9.4396663  13.5719788  40.1602077   9.3979979
  13.1335962  41.5700197   9.7315282  35.2412128   3.2458514  86.3186646
  34.3121243   3.2704550  86.5476227  35.2509499   3.1034675  85.3721619
  61.9286585  18.7059116  84.7865963  62.5664234  19.2062092  84.2774868
  62.0751858  18.9816451  85.6914330  64.5996571  15.3377450  67.3301315
  65.1670599  15.5821419  68.0612659  64.5799160  16.1151481  66.7720222
  55.7509279  24.3203688  73.6671305  56.6618204  24.3881416  73.9533329
  55.7961941  24.3628883  72.7119493  34.1182518 103.2396126  80.7197762
  33.4402561 102.8465843  80.1701546  34.4849610 103.9417744  80.1824379
  79.2836523  14.8398018  87.4050140  78.8929939  14.4287097  88.1761265
  79.7672129  15.5893421  87.7522755  78.1363058   3.0417544  93.1519508
  78.6463690   3.3801240  93.8878727  77.4148464   3.6632597  93.0546951
  84.6110344  78.1948757   6.5720004  84.0660000  78.8226986   7.0463526
  85.2826786  78.7311411   6.1506313  78.9627361 109.2929363  13.9842355
  78.3814335 108.6263275  13.6182439  79.7224426 108.8022423  14.2977536
 114.5262623 107.2855759  68.3284664 114.2030716 106.6560650  68.9730597
 113.8174725 107.9227352  68.2396889  44.1690922  21.1586165  93.2992172
  44.8779631  20.5704188  93.0389214  44.1728067  21.1294603  94.2559719
 102.0339394  58.5686874   2.6267380 102.5977325  59.3294668   2.4867919
 102.6097298  57.8159237   2.4923974  86.3467789  55.8778954  30.2424693
  86.3692570  56.6846943  30.7570577  85.4179001  55.6526995  30.1905942
 113.0320168  85.8981895  11.7813551 113.7711620  85.4748726  11.3446617
 112.6332188  86.4432144  11.1030161  58.9061213  14.6345794  72.6982975
  59.3727350  14.3798816  71.9022894  58.0472660  14.2201626  72.6154566
  -0.1374423  84.1682148  15.1122463   0.7021094  83.7177372  15.2042162
  -0.1515357  84.4651127  14.2023647  65.5985928  31.4467192  90.9389305
  65.2834368  30.7824230  91.5517998  64.9751997  31.4179635  90.2131271
  90.2859306  94.5263863  25.5522513  91.1056805  94.5093536  26.0461664
  90.5563927  94.4560528  24.6367574   9.5436996  10.5947351  13.4728014
   9.4550562   9.7262812  13.0801666   9.5213097  11.1971569  12.7292836
  87.6465225  93.4233475  13.3488774  88.1399632  94.1519833  12.9722798
  87.3666573  93.7417889  14.2070746  36.3049006  91.5034389  59.0155697
  36.1129475  92.3630333  59.3903685  36.9743395  91.1348915  59.5919895
 105.2225876  64.2548752  22.7584004 104.3345833  63.9882946  22.9963303
 105.0993156  64.9295807  22.0907092  94.7245121  71.8451691   9.8517078
  94.4877243  71.2279367   9.1594774  93.9198780  71.9577122  10.3577888
  42.9996252  97.6464176  91.2150383  43.8898277  97.5376511  91.5496063
  42.6225471  96.7672062  91.2472820  39.9959946 106.4642143  76.3876915
  39.0702105 106.2413597  76.2902737  40.0784969 106.7529297  77.2965765
  18.9212060  96.3462830  40.0169086  19.3073523  95.7372189  39.3874931
  18.5161412  95.7837486  40.6769896   5.0559533  90.7253647  20.4439545
   4.7106105  90.6324863  21.3318419   4.4081548  91.2645149  19.9901831
  94.8410416  90.3600025  16.5958488  95.5667973  90.5718517  17.1828949
  94.0656567  90.7029247  17.0401621  70.5392885   7.3411494  90.2269745
  71.4791393   7.1658021  90.2735043  70.4614687   8.0673039  89.6082020
  75.1505375  80.9716892  17.6087594  75.1791906  81.8627357  17.2602594
  74.8369932  80.4387093  16.8781066  20.8621168  64.5881748  22.3927355
  21.5185976  63.9008808  22.5062823  20.0293612  64.1185570  22.3457289
  90.8107185  71.1989689  28.0276680  91.4414692  70.4866934  27.9225969
  89.9706936  70.7581472  28.1552124   7.8712887   1.4255860  84.1941452
   7.3356622   1.1756970  84.9470711   8.7690264   1.2321223  84.4640923
  22.1816039  76.6174030   8.2156372  22.4758315  77.1751356   7.4955040
  21.3643265  76.2311029   7.9008919  97.0923138  47.7465057  14.0620947
  97.6179409  48.5464668  14.0581465  96.3169479  47.9719114  14.5761299
  20.1613903   0.0785462  16.8111730  19.3519032   0.5042380  17.0935726
  20.7286382   0.1075323  17.5816417  80.3576469  34.9651694  93.2312584
  81.2588978  35.0371313  93.5455990  79.9304295  34.3834352  93.8599873
  92.9028893  43.9886665  94.1539001  92.5517178  44.7952366  93.7765884
  92.1291733  43.4651041  94.3624210  57.4153996  31.7698431  89.8543739
  57.3781252  32.0199966  88.9311981  58.0867624  31.0885525  89.8910046
  60.1369047  30.9126687  79.5250845  60.8980322  30.5287957  79.0897083
  59.7883749  30.2045655  80.0667000   2.8748307  97.4257183  40.3141928
   3.4801152  96.7088985  40.5039883   2.5929537  97.7354336  41.1749220
  12.6242280 100.1212120  50.1248360  12.7146125 100.5791378  50.9605265
  12.1019006 100.7126045  49.5829344 103.7180710 101.5185165   0.4859389
 102.9772091 102.0436192   0.7886223 103.9281940 100.9509277   1.2275057
  16.8213344 102.0114517  16.7602897  16.7199767 102.5579453  17.5395870
  16.5068436 101.1486340  17.0302570 111.5845299  69.7756338  12.7400732
 112.3216152  69.1799259  12.6056302 111.8716717  70.3568316  13.4443402
  26.4597058  93.9429569   1.3612382  26.4282966  93.1457710   1.8901393
  26.8122411  93.6574459   0.5183664  84.9380016  84.0444469  18.6270249
  84.0617085  84.3961906  18.7838852  84.9189472  83.7514782  17.7159619
   5.5370533  79.3491888  10.2226663   6.4176065  79.3260384  10.5972612
   4.9754232  78.9881086  10.9085417  31.9415402 103.9719963  17.3087800
  31.1598301 103.9022350  16.7607868  32.6677704 103.7794781  16.7156887
  95.0341320  42.4280167  93.4330845  94.3633270  42.9752827  93.8414478
  95.4334927  42.9924965  92.7711964  17.7458000   1.5288544  21.0958934
  17.9150546   1.6827711  22.0253515  18.2243919   0.7245322  20.8952761
  95.5410290  68.1114531  17.6556611  96.3432217  68.6327934  17.6862729
  95.2633762  68.0452776  18.5693145  37.1506476  24.5039845  92.6743507
  37.1825051  24.8218822  93.5766506  36.9863439  23.5646224  92.7570152
  93.1761551 102.6604176  28.0752563  92.7346992 102.0776844  27.4573803
  93.0338764 103.5379314  27.7203465  41.4922285  51.7285967  93.7822437
  42.3965025  51.5019846  93.9994240  41.5499496  52.6042652  93.4000015
 109.7684574  89.4656277  24.7302890 109.7619629  90.2845669  24.2347789
 109.9604893  89.7313499  25.6295967  85.8505249  65.7128382  23.7830687
  85.8391380  66.1001778  24.6583247  84.9594116  65.3884315  23.6530995
 100.3953934  76.3528538  20.9487271 100.8471298  75.5232859  20.7938790
  99.7379780  76.4007807  20.2546525 103.7228870  55.0134230  84.8224449
 103.6948395  54.5898533  83.9645195 103.1270885  55.7581997  84.7414398
   2.9149300  77.2737598   1.4446422   2.7663249  78.2104445   1.3151641
   3.8638917  77.1927738   1.5402697  14.2403042  70.1717424  21.4536357
  13.3180559  70.0199652  21.2471104  14.3638992  69.7645569  22.3110485
 110.8270454  62.4852180  13.6611414 111.0732937  62.5339413  12.7374423
 111.4289188  63.0853081  14.1014481  94.7631073  44.0414095  88.2788754
  95.0298405  43.4943676  87.5400734  95.2259636  44.8683357  88.1440067
 103.1425476  90.7952976   2.1314083 102.5891685  90.2468586   1.5753363
 104.0237141  90.6870651   1.7735349  88.4462166 105.1817036   4.9392042
  88.4007645 104.8733425   5.8442318  87.9727077 104.5190430   4.4363165
  75.7228708  80.0512505  35.8264995  76.1706257  80.8341789  36.1470747
  75.6644487  79.4786692  36.5913320  17.0427322  88.9293957   3.0697700
  17.1325159  88.7817478   4.0112430  17.2643363  89.8528481   2.9499429
 115.3663826  59.0316153  75.5719328 115.0411987  58.2872534  75.0655603
 116.0626984  58.6647892  76.1167383   0.1623766  96.2860870  15.4330254
   0.2717814  96.9686508  16.0951245  -0.3165034  96.7149258  14.7237992
  87.6990795  40.4553747  88.4090805  88.6121845  40.7155371  88.5306835
  87.1926212  41.1993647  88.7349796  97.5329494  48.9277506  11.1347139
  96.8302536  48.7137699  11.7484379  97.1527672  49.5889854  10.5563927
 106.2016678  89.6831417   5.4303688 105.3770351  89.2986870   5.7277119
 106.8196011  89.5017433   6.1385250  18.2016432  90.2980995  40.0492811
  18.6108732  89.6430492  40.6146812  18.6725664  91.1087990  40.2422047
 100.8352470  95.3853893  46.6384220 101.0920334  96.0681725  47.2581863
 100.9561348  95.7857037  45.7773972   9.8451036 106.3877010  14.9573660
   9.8114860 105.7770443  15.6937039   8.9772093 106.3292408  14.5579004
   9.6670854  85.5171871   4.2542276   9.3154341  84.9721622   3.5502970
   8.9048624  85.7386780   4.7891963  86.9463634  94.1574192   4.4712502
  87.5666428  94.8857498   4.4390929  87.4378681  93.4418583   4.8745152
 113.7165451  92.4012280  10.7270312 112.9776001  91.9520760  10.3165936
 114.3991184  91.7329407  10.7880342  15.5508935  75.3455448  17.5171554
  15.5661106  75.3999424  16.5616238  16.0738826  76.0926437  17.8079474
 103.2235146  85.0326443   3.0568308 103.7961864  85.0517178   3.8235867
 103.5776234  85.7065487   2.4765885  17.3308003  34.2812157  24.5399880
  16.9208038  35.0859308  24.2228556  17.0535505  34.2151761  25.4537725
  54.5189095  34.1583085  21.4713168  54.7858858  34.5249653  20.6283951
  53.6936998  33.7097359  21.2868094 100.0659084  88.8448238  15.2349377
  99.5633698  88.5018635  15.9738994  99.4717216  88.7741756  14.4878209
  38.7026095   8.5283864  93.3175278  37.8716111   8.0818939  93.4797573
  38.5425663   9.0552515  92.5345707  38.7178421  67.8154182  13.7606609
  37.9443932  68.2711935  13.4285784  38.8104534  67.0531607  13.1891561
  98.2208061  16.1407709  83.7870312  98.8483810  15.5988634  83.3087730
  98.5445404  17.0349455  83.6780071   8.3008993  95.3642273  25.3622842
   7.7123696  94.8691750  25.9321856   9.1783702  95.1447392  25.6754947
  34.6324110  76.0299301  19.8748803  33.6986828  75.8205462  19.8515654
  34.6837234  76.9314098  19.5571935  27.4195051  78.6599684  10.9866810
  28.2720232  78.4968042  10.5831718  26.8378782  78.8478470  10.2500379
  97.0814419  51.1881018  84.1454601  96.5015888  51.7226171  84.6879482
  97.0875931  51.6284227  83.2955647  35.5308437  13.6818027   8.6050159
  35.6346607  13.0822563   9.3439335  34.7144055  14.1471350   8.7870234
  75.8797646  49.4689131  85.5072403  75.5815458  48.6537981  85.1036453
  76.5938854  49.7676802  84.9442005  72.3754597  37.6129627  84.3279934
  72.1965075  36.7772841  83.8968849  71.5304041  38.0623889  84.3393803
  88.2487106  31.5792871  88.4683418  88.1223392  30.9752464  89.2000484
  87.8894329  32.4103332  88.7790108  82.6713562  25.6818962  92.1695709
  82.2680855  26.5440392  92.0680141  83.1859970  25.5626726  91.3713455
  84.2055321  78.8028622  25.5799460  83.9552402  79.1154480  24.7105360
  83.4127617  78.9013147  26.1072659  60.8803320  39.6082544  93.7056732
  60.5325031  39.0772152  92.9892635  60.9760141  40.4836035  93.3303738
  72.7388859  40.8141613  90.1356411  72.1660042  40.1181412  89.8137856
  73.5537863  40.3670788  90.3642941  90.2802181  22.5039124  75.2847862
  89.3291092  22.3961115  75.2824116  90.6015015  21.7840624  75.8277655
  78.7982893  45.6807423  88.1007862  77.9525614  45.6192636  87.6567078
  79.2464066  46.4047003  87.6634026   7.7417833 109.3643570  19.5265889
   8.6729425 109.1427040  19.5198655   7.2956836 108.5288048  19.3884683
  37.1546102  29.3846774  70.6433487  37.7146578  30.0018072  70.1724672
  36.8130517  28.8041854  69.9632025 109.7295856  91.7512417   6.3589054
 109.1579914  92.5131321   6.4539796 110.3541088  92.0037365   5.6788719
  97.3681164  93.6799908   3.6589774  96.7812920  93.2322598   4.2684150
  97.0079803  93.4860802   2.7935672  94.7353077  72.8548574  26.1911917
  95.1200199  72.1222639  26.6723657  95.4626465  73.2177305  25.6856847
  -0.0008884  76.0413170   4.3451908   0.1746448  75.6197500   3.5039419
   0.8340709  76.0020828   4.8115978 111.0436249  92.0014286   1.3220777
 111.2367821  91.1707115   0.8875263 110.3561115  92.3975945   0.7867275
  57.2075224  58.1281996  94.0346050  57.6134586  58.9944839  94.0661621
  57.0892859  57.9529619  93.1010437  16.7240286  85.9789944   7.5946927
  16.3216460  86.3243103   8.3916080  16.0041749  85.5554962   7.1270460
  65.6403685   3.5606074  23.1675458  65.6599951   3.8631240  24.0754724
  64.7952604   3.1197020  23.0802107 115.8814868  91.3562107  15.1368475
 116.0620622  90.4977226  14.7539353 115.5691456  91.1632729  16.0208452
  95.6403065  75.5800056  48.5006952  95.7176495  75.6001425  49.4545507
  95.3290462  74.6964025  48.3042336  51.4672565   3.1405291  30.2929783
  50.9198809   3.8673431  29.9957371  51.9632816   2.8811142  29.5165157
   9.8025739  98.2546711  32.2809458  10.6583917  98.1082726  31.8779874
   9.9981898  98.7097645  33.1000066   1.9233516   0.3754421  31.1253667
   2.7341655  -0.0929455  30.9268260   1.4881423  -0.1671890  31.7829227
 113.9977169  82.7952003   5.6128186 114.3130684  83.6856270   5.7674819
 113.8883877  82.4243450   6.4884621  95.5377483  70.2492714  28.0794001
  95.5066109  69.6187401  28.7989092  96.2037849  69.9025679  27.4857569
  75.0468922  43.8949394  93.4042835  75.5609131  44.6889496  93.2574654
  75.2713442  43.3248997  92.6688194  11.7240012  88.0302048  23.6496043
  11.8763542  88.9751148  23.6366463  10.8769488  87.9182434  23.2180977
 112.3238468  75.4931688   2.2941373 112.6329327  74.9679232   1.5560186
 111.4975357  75.0834846   2.5502604  77.5955009  51.4366865  83.9480114
  78.4176970  51.5626478  83.4743404  77.0474529  52.1730089  83.6765289
  61.0929775  -0.1670279  14.1072702  61.0538340   0.0456875  13.1748259
  60.4652309   0.4292117  14.5155132 115.5901146 104.4654560  11.7540359
 115.4162312 104.3253231  10.8232510 116.4314270 104.0356255  11.9078922
 111.3923168  84.2001247  20.5745721 112.1196938  83.5994434  20.7368803
 110.6846237  83.8752270  21.1312008  86.7105198  83.0382729   9.4602251
  86.2062740  83.0985355  10.2716053  86.1453342  83.4344006   8.7969989
 114.9078655  60.2461052  12.6375210 114.5043468  61.0846376  12.8617370
 115.8293724  60.3530931  12.8733313  81.6545677  27.9356122  94.3075562
  81.9854450  28.7030888  94.7741699  81.7131233  28.1741309  93.3823967
  64.5274639   3.7195724  84.4153309  65.2207136   3.0654758  84.5036316
  64.3054008   3.7090352  83.4843063  81.6584682  53.9241743  11.6566408
  82.1579361  53.1083727  11.6918302  81.4009666  54.0866899  12.5641167
  37.3856544  14.4145834   6.2725556  36.5338469  13.9804733   6.2256235
  38.0085874  13.7039316   6.4247495   1.1753166  74.5005560  22.8765035
   0.8232119  73.6498356  22.6147175   1.5510528  74.8616123  22.0735788
  91.3629913  18.0860090  91.8753910  90.8051682  18.0217159  91.1001873
  92.1915340  17.6882732  91.6079044  15.2873373 108.0375957   6.7017484
  15.2386284 107.0816326   6.6994900  16.2138939 108.2305431   6.5585876
 101.9983292  51.6796017   9.8971456 102.5730801  51.0161972  10.2789652
 102.5748062  52.2055960   9.3428499  10.5554104 100.4460716  16.0030568
  10.0263500  99.8183155  16.4952469  11.0392570 100.9288883  16.6731441
  67.2458506  45.6901741  92.7625751  66.8403530  46.5402508  92.5917530
  66.9783878  45.4723167  93.6554527  87.2267437  87.9297543   7.6094013
  88.0581188  88.3364677   7.3652148  87.3508835  87.6583290   8.5188794
  81.1752796  31.7225957  91.6721439  80.5940628  31.4911771  92.3966217
  80.5989838  31.7733121  90.9095573 105.5330086  33.7397385   9.4714725
 105.1506233  32.8942847   9.2364681 105.2216530  34.3400288   8.7940192
   4.4779375 105.9853363  25.1134109   3.7424535 105.3955841  24.9476004
   4.4341159 106.1646652  26.0526419  46.1779070  98.5092449  10.1445699
  46.5030289  99.3868542   9.9437481  45.4231930  98.3954239   9.5669121
   9.2308080  96.6859245   8.1290835   8.4677362  97.1621513   7.8017318
   9.9709636  97.0642090   7.6544231 111.1783981  77.1437979  35.3349662
 110.3538513  76.9652748  34.8827696 111.0199356  77.9604292  35.8085012
  14.3760622  78.8777590   9.8641843  15.2258348  78.5351086  10.1411450
  14.5602369  79.3448973   9.0492654 107.0723534  88.5623646  23.8045764
 107.2119808  88.3219147  22.8886533 107.9528332  88.6068726  24.1774249
 108.3644485  93.9379215  15.9177852 109.1193581  93.9223671  15.3294814
 107.6091766  93.8213062  15.3414118  86.2592888  74.8556280  19.9376917
  86.3428497  73.9040184  19.8770130  85.4619980  74.9939299  20.4490066
  94.1336155  81.9616222  35.0507665  93.6590195  81.5835667  35.7910752
  93.9299488  82.8961754  35.0877666  62.4176216  16.5349591  83.4572506
  61.6375446  16.4526355  82.9086781  62.3251438  17.3895252  83.8784409
  74.9465513  87.0574093  18.2077873  75.2323055  86.1475754  18.2901835
  75.5794430  87.4539471  17.6090908 113.8514805 102.8448391   5.5748177
 113.7580872 103.2700157   6.4273059 113.6303997 103.5274220   4.9412298
  67.3256922   5.8005130  88.4315300  67.2783327   5.0347686  89.0039158
  68.2212496   5.7919890  88.0936909 108.3787346  75.1025677  44.5160913
 108.3679104  74.1541958  44.6453667 108.8462067  75.4429483  45.2788734
  62.7149010  10.5692852  89.4436646  63.0912018  10.2919161  88.6083889
  62.3348665   9.7716147  89.8118114 109.3412781  93.5925579  11.6090250
 109.5363426  94.1382217  12.3708868 109.6313000  94.1138840  10.8604634
  57.3949003  22.4113655  82.4789429  58.1821775  22.2298360  82.9922295
  56.7183256  22.5881982  83.1325531 102.7684784  85.6770897  15.3066301
 102.3733521  85.4780674  16.1554551 103.4827328  86.2808037  15.5105698
  19.8687506  97.5915241   0.8708189  20.1420212  96.8955898   1.4685079
  19.1571796  97.2039127   0.3612544  10.2560782  94.5681190  12.6863050
   9.5130181  94.4826412  13.2836211   9.8588884  94.7472095  11.8340135
  41.4139986  20.6950450  84.5118046  41.2823391  19.9500120  85.0981712
  40.6840515  20.6459570  83.8945484  65.1813936  24.5475793  79.2453384
  65.4585171  24.4236493  80.1531219  65.9988022  24.5907116  78.7491417
  36.6869593   4.8740062  15.5105126  36.3952923   5.4811120  14.8303771
  35.8781362   4.5034713  15.8636975  88.4378052  96.1405754   6.9154775
  87.5165653  96.2826633   7.1330851  88.6375141  95.2751732   7.2724503
  27.0735264  95.9437370  69.9576998  26.9581532  95.6013870  69.0712976
  27.8287482  96.5281963  69.8923111  63.1577969  23.2529974  77.5890589
  63.6692810  23.8569689  78.1274176  63.3778143  22.3851800  77.9277611
 105.8831882 103.1170845   0.6241575 105.1867580 102.5915718   0.2303808
 106.0731506 103.7908077  -0.0287098  12.3344290  97.7916908  31.5404224
  13.1854868  97.5387478  31.8981266  12.3870027  98.7428761  31.4470267
  93.7722206  92.4438667   1.2815826  93.0942535  92.4244976   0.6061469
  94.5954800  92.3902607   0.7961966  61.3727951  26.9524693  84.2896843
  60.6356335  26.9342446  84.9000072  61.7167616  27.8432608  84.3560886
  94.1643620  63.5726213  83.6516666  94.5960808  63.0211449  82.9991913
  94.1268826  64.4388437  83.2460976  32.8137326 101.0440540  18.6439419
  33.6398864 100.6983948  18.3059704  32.4840212 101.6053867  17.9422140
  86.7774296  66.6208172   0.9672298  87.2109032  66.8537998   0.1462251
  87.1355534  65.7620335   1.1918604  86.6233730  35.8715391  90.9965515
  87.4710655  35.4401422  90.8890820  86.4854813  35.8961105  91.9434452
  32.7268028   7.8817010  13.8048100  32.6187420   8.6665463  13.2676208
  32.8544211   8.2150614  14.6929634 115.9581835 109.4931316   3.1389987
 115.1203804 109.0314960   3.1737494 116.4393691 109.1739464   3.9024204
  13.7216449  92.7002144  17.6864970  13.5760617  93.5070038  17.1923935
  14.4758391  92.8932285  18.2434249  97.9586506  91.2591934  40.8865881
  97.3240471  90.8043385  41.4403152  98.5968494  90.5858707  40.6508684
 104.6107006 100.3153706   2.8876668 104.5947170 101.1100483   3.4210157
 104.2728615  99.6317577   3.4662586  95.2012348  64.9660730  17.4143386
  94.8750210  64.1617155  17.0108223  94.5466709  65.6281281  17.1919477
  88.9914989  23.6536860  86.1317062  88.4799957  24.3295240  85.6869030
  89.8841763  23.9988899  86.1450958  91.1484814  12.0032430  75.5494356
  90.4719925  12.3227465  76.1465311  91.3162899  11.1054873  75.8359814
 102.5258350  82.7363396  25.4149866 102.4817657  82.6645756  24.4614983
 102.2067070  83.6188126  25.6037617  84.5059586  45.0628424  85.5625153
  85.3059959  44.8145247  85.0993538  84.4226837  46.0039902  85.4090786
  36.7350769   3.4098253  11.7176402  36.8477583   3.5093716  10.7723224
  35.8353853   3.6918971  11.8826234   4.3844685  12.9536772  11.1824298
   4.1182068  12.9382801  12.1017230   3.9386329  12.2023439  10.7913280
  58.2327223   2.2104147  33.1630325  57.8407001   1.7493635  32.4214244
  57.5320673   2.2571029  33.8135195  98.9329529  99.3653011   8.2131243
  98.4075356  98.7979603   7.6489401  99.2796135 100.0348186   7.6233804
  82.8380299 107.1022797  40.6883860  83.3506203 107.7063847  40.1512289
  82.6896191 107.5762653  41.5066385  68.6907816  36.1465621  84.0865898
  69.5841360  35.8037972  84.1123676  68.2301950  35.6667519  84.7749710
  91.9412422  24.0275359  84.5164871  92.8260517  24.0301514  84.1513348
  91.8454742  23.1584549  84.9060535  34.1157055  32.5103235  88.2050228
  35.0439167  32.3633790  88.0231953  33.7330437  31.6330934  88.2213783
  18.9681149   5.1209921   3.1388623  18.0661297   5.1058966   2.8188220
  19.3889809   4.3793449   2.7040476   9.0672010  84.1090870  26.9395733
   9.7480834  83.7040710  27.4767804   8.2755220  84.0541363  27.4747896
  56.9184828  32.5282407  87.2879791  56.8812656  33.4758902  87.4176311
  56.5034389  32.3864150  86.4371777  81.1208153   3.9895475  16.6162634
  80.6967449   4.8466659  16.5745807  81.3856697   3.8976166  17.5314867
  50.6659985  32.0314670  80.2684307  50.4833698  31.2659216  79.7236156
  49.8123503  32.4463916  80.3923512 103.6231613 108.4297085  17.7018201
 104.3164635 108.0605984  18.2489216 103.4163570 107.7352810  17.0763350
  24.8426056  76.8184948   9.4701958  23.9736295  76.4937401   9.7060966
  25.0719547  76.3344860   8.6768717  32.1106339  93.6622334   1.5076265
  31.3231277  93.4162712   1.9929795  32.4703336  92.8310966   1.1976963
  59.7203016  35.8030176  93.3335495  59.0508080  35.7423735  94.0149689
  59.4973612  36.5977144  92.8487873   8.8765562  88.2468796   6.2170154
   8.6496854  88.9054966   5.5605203   9.8220736  88.1309891   6.1232179
  98.1431770  98.6183548  16.0982919  98.2240963  97.7226067  15.7706988
  98.2622528  98.5389233  17.0447302  87.4050426  79.7266960  17.0693958
  87.2653008  78.7811708  17.1212268  88.1546116  79.8897696  17.6419330
  19.1682196  80.1666832   0.5335920  19.4233537  80.7179165  -0.2061912
  19.9942338  79.9462032   0.9640819  68.0130482  31.4515471  87.4086380
  68.9247942  31.7110658  87.2759819  68.0121946  30.5035305  87.2763729
  17.5750816  12.6061189   8.1541419  18.1289697  12.4023843   7.4005300
  16.7268646  12.2176862   7.9399472  22.7820683  91.0810184  92.4436855
  23.5323119  91.0553551  91.8497944  22.3566866  91.9177532  92.2561932
  97.3811722  95.6109428  32.4340510  97.4476147  95.4346657  33.3725286
  96.7087364  96.2886238  32.3646617  86.5012932  42.6672363  89.6528912
  86.0766220  43.4024906  89.2109680  85.7780266  42.1075773  89.9355602
   2.0502490 108.6934280  25.3739977   1.1544549 108.6013603  25.6985092
   2.0533590 108.2203484  24.5418835  15.8622479  86.6307831   1.5388881
  16.1957121  87.5129604   1.7026018  15.7562077  86.2492657   2.4103400
  51.3269329  33.0440784  92.3145962  51.9855547  32.3690510  92.4782658
  50.7566166  33.0135012  93.0827332   9.9656057  79.2061377  22.6425648
  10.2785039  78.4455156  23.1322408   9.8151869  78.8755322  21.7569542
  96.0853577  24.6193194  88.6599064  96.3276482  24.0408063  87.9368210
  95.2208233  24.3122888  88.9329243  36.7582822  16.6197240   9.2795223
  37.3638821  16.0360205   9.7364384  36.6835165  16.2471962   8.4009635
  78.1528664  44.5617390  90.6800652  78.1507444  45.3582287  91.2109470
  78.4226561  44.8547554  89.8096657 101.7020321  31.8755865  91.5618134
 102.4644852  31.7229199  92.1200180 101.3664913  32.7270436  91.8422890
 100.1227093   9.3033481  79.3429947  99.8891163   8.6926693  78.6438942
  99.6994972  10.1251519  79.0944767   9.9241763  95.7034111   2.6073971
  10.4119980  96.3216305   3.1515181  10.5613029  95.0239658   2.3868236
  96.7451763  98.0136585   1.5002976  96.0227203  98.4818459   1.9187278
  97.2378826  97.6340199   2.2278653 109.5100021  61.2816668  34.8629093
 109.0874100  61.8860197  35.4731631 110.0876331  60.7516432  35.4121256
   9.2104846   1.2808946  20.9660697   9.5077354   2.1218099  21.3135386
   8.3852595   1.1120886  21.4207554  28.8520575  78.1101465  20.5138016
  28.0142760  78.0590248  20.0536489  29.1039109  79.0314913  20.4511285
   6.1507386  97.7444458  15.2448726   5.5714798  97.3068810  14.6209860
   5.9573412  98.6758709  15.1386583  94.9897861  22.6866603  81.4033699
  95.4624081  23.1390738  80.7046700  94.2646694  23.2726073  81.6204071
  10.1116455  25.0753641  21.9591308   9.3472797  25.4090047  21.4893842
   9.8389107  24.2160034  22.2806096  36.7336273  87.6089668   3.0914691
  37.3695183  87.9230309   3.7343001  36.9838476  86.6989231   2.9319292
  38.8885045   1.7677554   7.9039943  37.9527855   1.7901321   7.7035850
  39.1612506   0.8791982   7.6752859  67.4874926  79.9041224  89.1824627
  67.9482603  79.1617537  89.5733738  68.0762291  80.6473827  89.3135452
 113.9037323  87.3958874  13.9462638 113.9503098  88.2824230  13.5883176
 113.6670589  86.8476582  13.1981552   4.5817813 108.8097191  26.2646794
   3.7293458 108.4829617  25.9769034   4.5034969 109.7622395  26.2116861
  17.9250598  92.1842194   9.2007875  17.8330493  92.6700211   8.3811784
  17.5364780  91.3289261   9.0171748  19.2120266 106.1573792  40.0418663
  19.0102398 105.7310581  40.8747911  18.9300752 105.5292988  39.3768406
   4.6300778  92.0199394   2.3803917   5.0016505  92.6930237   1.8101943
   3.6958936  92.0182991   2.1717554  85.5230522  44.7966146  88.2917881
  85.1435280  44.6615171  87.4234867  85.1413059  45.6205559  88.5944843
 111.6973400  49.6688080  60.0938177 112.6502705  49.7383928  60.0361300
 111.4129925  49.5204544  59.1919518  84.2564964  47.3251343  88.4421444
  83.9535713  48.0701065  88.9612675  83.6244488  47.2591972  87.7263260
  80.6322861  14.2084730  37.6142955  80.1376343  13.4422314  37.9048562
  79.9655294  14.8183608  37.2985291 101.2339401  68.4957647  93.1011200
 101.3339996  68.0028248  92.2867298 102.0474815  68.3357620  93.5794353
  10.6922817 108.0812931   8.7952709  10.4246378 108.1764984   7.8811949
  10.5505121 107.1551323   8.9911294  54.6169472  30.4449534  91.6692829
  53.8980675  29.9667859  92.0825577  54.3700123  31.3661504  91.7508507
  88.5032558  15.9413481  87.8760719  87.7609634  16.5329933  87.9993248
  88.3796024  15.5817056  86.9976616   4.4410616  86.8342781   1.1160302
   4.3433863  87.7781010   1.2421023   3.6713913  86.4550400   1.5403180
  29.8017955  66.4386749  20.5167103  30.1610136  65.9484148  21.2561965
  29.9047399  65.8517838  19.7675812   2.4852023  49.0753841  80.4341125
   2.4955125  48.9776468  81.3862514   1.9448662  49.8500538  80.2786922
  51.4523649  34.2018032  24.2541480  51.7813396  33.6875057  24.9913764
  52.1512747  34.8290372  24.0688586  55.6086683  16.3938689   0.2081499
  55.2003765  17.2589958   0.1751633  56.3108397  16.4848137   0.8522849
  93.0260658  22.0682693  93.3981705  93.6773205  21.3743567  93.2952976
  93.4650803  22.8576565  93.0813694  62.9824543  42.3838568  92.5423431
  62.2677183  42.3913813  93.1789970  63.7477398  42.1041822  93.0446815
  48.1934977  50.6199408  25.2092218  48.0014277  51.0139465  24.3582797
  47.8824997  51.2628698  25.8465290  57.2214031  29.1208673  86.6503906
  56.3512754  28.9598989  87.0153427  57.7333879  29.4512558  87.3885918
   7.4767470  97.4897099  10.8813918   6.7278618  96.8959999  10.8274114
   8.1739086  97.0398808  10.4040539  93.8062859  62.1543503  77.2680712
  93.2926559  61.3988066  77.5536537  93.2464218  62.5974178  76.6305208
  40.2874517  28.4757638   0.3839913  40.0763273  28.5243082   1.3163540
  40.6208229  29.3467116   0.1682416  28.1025648  94.4015026  26.7334628
  27.5170064  94.8666191  27.3309755  27.8951073  94.7573948  25.8694363
  23.0631900 102.5216770  43.8187933  22.8459001 101.6517067  44.1537046
  23.8349891 102.3812771  43.2702971  21.8906021  83.5655308  16.8221986
  22.3159957  82.8360558  17.2729015  20.9871078  83.5479546  17.1378255
 111.4737129  64.8589659  88.9938641 111.9814491  65.6541014  88.8320255
 110.9745884  65.0509310  89.7877502  37.4624491   5.6124872  19.0827775
  37.5611782   4.6630880  19.0111828  38.0016351   5.9634829  18.3740377
  66.2446928  17.0036900  23.8027740  65.5209017  17.6071489  23.9707041
  66.3377523  17.0005035  22.8501153  10.1070499  57.9115391  77.4819660
   9.2202765  57.7707243  77.8136826  10.1688135  57.3428202  76.7145205
  17.7677393  84.3166065  22.1000004  17.0729935  83.6706924  21.9721293
  17.9559064  84.2834663  23.0379391  20.5549264  62.8373957   4.1678140
  21.1158013  62.1417189   3.8247561  21.1513424  63.4098768   4.6502900
  88.0535603  32.3773193  92.5552654  87.7602291  32.8881073  93.3097744
  88.5415840  33.0017185  92.0184326  20.2335763  94.8449802   2.7085602
  21.0294700  94.6704102   2.2062589  20.4999566  95.4913044   3.3624327
  80.8304501  14.9331796  20.1022768  81.7266178  14.7865021  20.4049492
  80.5236053  15.6806016  20.6155396  63.2295036  34.9843788  87.8632355
  63.6468554  35.8163095  88.0867004  63.9379072  34.3420386  87.9056072
  89.4353580  46.9967937  28.2641816  88.7203979  46.7591715  27.6737523
  89.6120453  47.9169083  28.0682135 100.4478264  67.5074673  14.9570084
 100.0942802  66.6183996  14.9851131 100.8513260  67.5775290  14.0918410
 111.9992733  56.5302992  64.4585466 111.7180920  55.6261301  64.3183565
 112.5146580  56.7441750  63.6808109  72.9499388  23.9161968  77.8999281
  73.0219603  24.5747900  77.2090578  72.0505619  23.5955882  77.8323841
  29.0202928 108.6140060  13.7151647  29.7853303 109.1415882  13.9445305
  29.1690993 108.3595943  12.8044713 106.6135216  95.2785110  18.9021504
 107.3081493  95.3865623  18.2524991 106.2695408  94.3998814  18.7411153
   2.2565033  82.7663803  10.4114008   1.8220234  83.5362339  10.0442719
   2.0791872  82.0680141   9.7812641 111.3248920  16.4673877  85.5519390
 110.8282089  16.6712344  84.7594833 111.7263794  15.6175077  85.3709793
  88.0970669  45.4698515  76.8628883  88.7781525  46.0409164  77.2181797
  88.2337379  44.6311998  77.3035812  95.2239323  56.0762119  76.3750219
  95.4684162  56.7312717  77.0287466  95.3537750  55.2369928  76.8167019
 105.8057499  40.1577282  81.9922829 106.0917473  40.7594872  81.3050175
 106.3407516  39.3746233  81.8628120 114.9519730  95.8031082   2.1764329
 114.5102787  94.9539757   2.1868661 114.7918510  96.1670876   3.0471316
  16.3706255  74.5402861  23.4984159  16.4052141  74.4892216  24.4536257
  15.4788041  74.2727184  23.2763934  58.6726522  48.5441589  93.8220119
  58.1176662  48.5721302  94.6013927  59.3884277  47.9543495  94.0587139
  19.6009803  75.0258923   1.7352174  19.2214537  74.3022203   1.2367295
  19.2370641  75.8128786   1.3296996 103.9388275  59.8770332  13.0793023
 104.7769070  60.3311348  12.9919088 104.1639805  59.0311623  13.4666443
  57.2878551   5.4160577   2.5197351  57.5161934   4.8777288   3.2775590
  57.9147434   6.1390752   2.5419304 101.4166546  82.5901413   5.5552071
 100.6511879  82.5193596   6.1255372 101.1348438  83.1689358   4.8468214
   3.8419953  56.9518328  63.7427330   3.4683755  56.7966986  62.8752232
   4.7754031  56.7674160  63.6379862  85.8922768   6.1945468  22.5845051
  86.0996628   5.8623350  21.7110872  86.5717506   6.8452871  22.7608109
  84.9056244  74.8164463   0.2857129  84.9585819  73.8657045   0.3832470
  85.7212925  75.0580072  -0.1530976  25.8604598   1.8595394   8.7207228
  25.9643888   1.1242135   8.1167972  25.0537777   2.2899534   8.4374553
  47.6941967   3.9493933  49.7393560  48.6468554   4.0220162  49.6810436
  47.3795748   4.8491269  49.6514702  57.8061819  17.0743787  30.5959034
  58.5150337  17.0393276  29.9536133  57.7595663  16.1862504  30.9498620
 101.3146591  76.5296745   0.0858116 101.5273952  75.9922838   0.8488228
 101.0544682  77.3745203   0.4529158  73.4444618  11.5645266   3.5386735
  73.2712078  12.4418283   3.8800752  72.5839615  11.1467028   3.5041466
 113.4264278  79.1665697  59.5476341 113.5146809  79.8706484  58.9052010
 114.2722797  79.1432047  59.9950838  63.8470888  14.6598506   2.6072863
  64.6494389  14.7262299   2.0895450  63.5403156  13.7651849   2.4599852
  74.8420572  12.2600281   1.5216868  75.6805658  11.8291771   1.3558635
  74.5366859  11.8806815   2.3457488  92.6130676  70.5722094  87.7844048
  92.9707813  71.4401865  87.9711914  93.1577873  69.9736071  88.2954693
  72.5048351  21.6346979  19.2358899  72.1782398  22.5298166  19.3271816
  73.3266258  21.6283631  19.7266495   2.7045745  93.4807873   7.3320931
   2.2229417  92.6581669   7.2451675   3.5372856  93.3187866   6.8887174
  52.8843832  20.8288479   1.6890481  52.0768881  21.2104535   1.3447261
  53.3633184  20.5404639   0.9120759  49.4846487  40.0471258  10.8112752
  49.2821884  40.6041050  11.5629482  50.0372934  39.3526316  11.1697388
  86.1569214  40.1085949  84.8669720  86.5771389  39.2722869  85.0675774
  85.3981304  40.1411963  85.4495525  61.9264984   3.5286316  15.4288805
  61.5795183   2.6374266  15.3890061  61.5167761   3.9784616  14.6899545
  55.1764584  13.3862209  24.4641638  54.5144033  13.2016206  23.7979484
  56.0084915  13.3457613  23.9926624  85.8154678  87.7133083  82.5763702
  85.3569698  88.2887173  81.9640732  86.6796970  87.5868130  82.1847820
  74.4972181  19.3899298  14.7510004  75.2296925  19.9618793  14.5216787
  74.8420095  18.5037005  14.6416974  33.3191538   9.1048783  10.0582886
  33.9709139   9.8030061  10.1219940  33.6998296   8.3763379  10.5487442
  43.7771797  37.9750037  40.7487965  43.1123352  38.3413625  40.1657057
  44.3870163  37.5251698  40.1639986  58.5926771 105.7424736   3.2912061
  57.9568768 106.1667156   2.7150047  58.0617046 105.2068233   3.8805938
  19.2783368  67.6830721   8.1123108  18.5310888  68.1960535   8.4200501
  19.9700379  68.3292055   7.9698485  16.5133619  92.3416710  18.8397932
  15.8932877  91.9865417  19.4766784  16.4580953  91.7450333  18.0933297
 114.9588871 108.4146976  43.9995575 114.1059303 108.8105488  43.8206768
 115.5921841 109.0890217  43.7537050  88.9038563   5.9660029   6.2202662
  88.8022614   6.7396319   5.6658214  88.7694550   5.2268839   5.6270790
   0.3152142  97.8669262  31.5163326   0.5731571  98.1059837  32.4065852
   1.0974815  98.0282688  30.9888315  33.2193518   2.5351167   4.5902947
  32.6986146   3.2054272   4.1478598  33.4702015   2.9369673   5.4220533
 100.6363869  62.0349884  92.1674538  99.8760223  62.5225544  91.8506622
 100.2763462  61.2031221  92.4750233   1.3329028 100.7437706  26.6691637
   2.0967123 100.6063271  27.2294641   1.5662859 100.3270912  25.8396220
  15.0893819   1.0911711  21.9681525  14.7250021   0.2306662  21.7608118
  16.0342717   0.9458975  22.0162392   2.2230101  96.9222832   5.4753858
   1.9729620  96.2586403   6.1182618   1.4263725  97.0758343   4.9674270
  42.2740889  13.3489704  19.4460094  41.4020920  13.6895037  19.2462790
  42.1231461  12.6821160  20.1159000  19.7831881  94.7974014  14.3882322
  20.2076292  95.6418991  14.5395803  18.8592100  94.9556255  14.5817816
 111.6595459  80.4243469  72.8700781 111.0541344  79.9471474  72.3026371
 111.0937500  80.9485912  73.4368896  56.7665529 106.7649937  73.7653446
  57.6863909 106.9074821  73.9885569  56.3169050 107.5433159  74.0943861
  73.8127279  50.4057169  83.8451099  72.9400444  50.1740408  84.1628838
  74.4115257  49.9356222  84.4253540  59.5576715  28.3399963  30.7182527
  60.3790903  28.5416627  30.2701044  58.9741850  28.0354047  30.0232720
  31.3632655  88.3512592  16.0708368  31.6429615  88.3857918  16.9856095
  32.0999861  87.9497433  15.6101167 113.9569187  77.8921080  85.3824139
 113.1079388  78.3270311  85.3029346 114.0615845  77.7409363  86.3217831
   8.2662231 108.9188766   3.9431226   8.7138581 109.6962929   3.6092427
   8.1837279 108.3445263   3.1818411  42.3987818  11.8538857   7.0807183
  41.9062233  11.2882066   7.6753801  42.1223021  12.7411008   7.3101503
  13.2933939  66.7176437  21.2376142  13.6116791  67.0718813  22.0679402
  12.7967656  67.4358463  20.8454704  98.9166546  40.4690123  68.0048132
  98.8196754  39.7591066  68.6395264  99.8565769  40.6493425  67.9889154
  21.2761211   7.4246216   9.1045338  20.6825590   7.7962321   9.7570825
  21.1974025   8.0077261   8.3495343  57.4069691  71.7353296  80.3917313
  57.2092390  71.0791254  79.7235012  57.9788876  72.3626900  79.9495125
  75.3296852  35.0765061  35.2196789  74.6998549  34.4149065  35.5057359
  76.1464453  34.8341560  35.6560302  89.9761200  82.3438168  79.4520712
  90.1633930  82.7132702  80.3150082  90.4124355  81.4918518  79.4564676
  49.8387527  23.9738178  89.4445419  49.0566015  23.7690830  89.9569511
  49.7391176  24.8975062  89.2141056   8.9857656  78.3987474  20.2693009
   9.3646628  77.7461672  19.6803999   8.5702854  79.0345383  19.6867406
  15.9905875 104.5894718   9.4600242  15.4206753 105.0854778  10.0477421
  16.8777645 104.8176861   9.7376376  52.9833221   4.7751355  16.6774976
  52.0366430   4.7127217  16.5504599  53.1435347   4.3274334  17.5082362
  50.6186581  16.0561991   8.6980432  51.2214231  15.9595370   9.4353116
  49.7552347  15.8745384   9.0691680  26.8047237  78.0127621   0.8911288
  27.4636650  77.4626923   1.3147479  26.8779778  77.8006792  -0.0394017
 104.3091106  63.2406950  88.3275795 103.9416313  64.1237688  88.2904434
 103.6526775  62.6899719  87.9009342  24.0358925  25.2878094  15.3482175
  24.6872115  25.9213042  15.0470519  23.4385085  25.1877403  14.6070349
  55.5761051  12.9073822   1.8401666  55.0453043  12.1396029   1.6280341
  55.2327394  13.5994947   1.2750909  44.8155212   2.6811016   2.1758443
  45.6828690   2.4058732   1.8788663  44.4386387   1.8965571   2.5741887
  45.1255083   2.5842011  22.5586462  44.5015907   1.9804166  22.1556544
  45.5498028   2.0680097  23.2440329 109.2726517  30.5625558  80.2725410
 109.8540878  31.3166785  80.1752663 109.6702766  29.8819256  79.7295284
  85.7801247  21.0996866   3.8551566  86.2365437  21.1926579   4.6913800
  86.2901020  21.6308594   3.2435894  51.7486954  39.7264981  30.9742856
  50.8300543  39.5112634  31.1355400  51.8947363  40.5355978  31.4644551
  47.1927977   8.2836562  17.1099889  47.2766161   7.7282685  17.8850698
  47.0264053   9.1590947  17.4594915  24.8607588  10.1044917  40.2397585
  25.2033854   9.4739008  39.6063614  23.9100909  10.0081348  40.1833963
  86.2243080  50.0848532  85.3610420  86.3176537  50.1768637  84.4128609
  86.6628933  49.2590761  85.5658722  87.6012993  64.1261768  22.3194551
  88.0108356  64.5286560  21.5536118  87.0776558  64.8273373  22.7072787
  66.9413090  27.8129840  84.9857044  67.0756769  27.8353572  85.9331608
  67.7478456  27.4321032  84.6383381  32.1079946 105.2842808   4.3282741
  31.2769771 105.7477760   4.4322655  32.7159405 105.7509995   4.9016911
 107.4484062  75.9599018  57.4164963 107.1466064  76.7591810  56.9848776
 108.1236076  76.2573242  58.0263090  96.7304993  36.6765380  77.3494148
  96.3326740  37.5188398  77.5696230  97.3491478  36.5105867  78.0607319
  72.0349550   6.5013599  24.0757275  72.6223898   6.8362856  23.3982491
  72.5204897   6.6173065  24.8924541  97.6288986  31.7789435  71.9534016
  98.1660557  32.5540662  71.7894363  97.1353722  31.9926763  72.7452230
   2.4691041  45.5970764  86.4278221   3.4242621  45.6408358  86.4724445
   2.1738480  45.9446383  87.2694016  89.1394711  34.4559622  90.9849167
  89.5514202  35.3024220  91.1581993  88.7655163  34.5465350  90.1084518
 100.8364677 102.3771954  31.8753171 101.4537621 101.9531250  31.2792087
 101.2067223 103.2472038  32.0244145  82.0935917  46.0858536  83.6568928
  81.8595314  46.1431551  82.7305222  82.7883720  46.7346716  83.7689590
 111.1839008  87.8525543  10.8147454 110.6889725  87.5055027  10.0725627
 110.7153320  87.5326729  11.5856886  94.9629402  74.2811441   7.6840693
  94.1591644  74.3459845   7.1683460  94.6615410  74.1188669   8.5779655
  58.7763071  20.0465775   9.6019936  58.0645514  19.4782472   9.3076593
  59.5202446  19.8037553   9.0507889  94.2728615  64.5643854  28.9362812
  94.1435242  63.6233902  29.0547514  93.4380913  64.8790789  28.5893464
 105.8795834  69.7267294  23.3645868 105.4370308  69.6982718  22.5163126
 105.8588791  70.6504536  23.6146665 103.0933094  43.8254023  87.8129196
 102.3820400  43.2968903  88.1748772 103.3575058  43.3600807  87.0192528
  89.0773869  29.7538185  67.3836470  88.4078598  29.1260314  67.6554155
  89.6419621  29.2596054  66.7893124  23.2428145 108.3013248  20.6293392
  23.5935640 109.0115356  20.0919390  23.9188218 107.6241875  20.6022739
 114.6906948  94.7622013   9.4848144 114.2212105  94.0022373   9.8287231
 114.4976234  95.4643059  10.1061118  28.3964825  90.1142979   9.8559892
  29.1953540  90.2138901  10.3737903  27.7039981  90.4693794  10.4133165
  25.1887274  79.3785572   4.6592182  26.1338353  79.3577957   4.5089865
  24.9708986  80.3102589   4.6861550  87.1008110  53.1641340  82.1648407
  87.1191216  54.1069698  82.3290348  88.0217552  52.9031754  82.1643543
 106.4555550  34.9214506  91.5534878 107.4071980  34.8984313  91.4531517
 106.1393261  35.3269005  90.7461166  93.8057613  14.7187293  94.6830750
  93.1207561  14.2529798  94.2034149  93.7026787  15.6333280  94.4201756
 104.9167061  59.0821648  83.9197540 105.4157162  58.6394787  83.2332802
 104.0323448  59.1586018  83.5615730  96.4232159  30.7228065  83.6341667
  96.2927151  29.9787354  83.0463219  96.2116051  31.4891672  83.1011105
  80.6572914  10.4293180  10.5737615  80.5421829  11.3342094  10.8638549
  80.9899998   9.9709129  11.3453853  38.5320401   1.7077994  34.1425800
  38.9302540   0.8504435  33.9922523  37.6344085   1.6142093  33.8236260
  44.7324848  94.3016243  11.0170853  43.9688969  94.0747833  11.5478456
  44.6134996  93.8105869  10.2040911 111.5489197  74.4799137   7.9369235
 110.6055927  74.3490934   8.0330551 111.6452122  75.4181957   7.7738726
  21.7727184  98.7622833  40.3967857  22.1415472  98.6304951  39.5233822
  20.8389449  98.9062405  40.2432299  65.2093506   2.4435441  16.7064583
  66.0310602   2.7883545  17.0559323  65.3805399   2.3164703  15.7733035
  13.7092197 108.9983177   4.1066721  13.2356310 108.1849670   4.2810276
  13.9937675 109.2994785   4.9695551 108.1757355  57.1408844  64.6529913
 107.9965496  56.6078091  63.8784266 109.1072845  57.0055389  64.8266220
  57.2712851  49.4094658  -0.1184888  57.4748421  49.6088982   0.7953077
  56.3148308  49.3941212  -0.1529704  32.0236182  39.8448348  17.1148145
  31.2701082  40.2750349  16.7106056  31.7345238  38.9443755  17.2625577
 108.3137131  13.7351644  26.5528512 108.9928246  14.1827869  26.0482025
 107.5408936  14.2925119  26.4615178  68.4168673  50.6600618   8.8517463
  68.0788660  51.1923647   8.1315809  67.7477455  50.7261896   9.5330179
 103.5783863  68.0270767  94.4104004 103.9416599  68.8989258  94.2550373
 104.2843819  67.4270964  94.1699505  20.4564571 108.8148499  21.3559198
  21.2258506 108.5700798  20.8417654  20.6967688 108.6091709  22.2593451
  65.0876522  19.1118169  32.3591924  65.5828953  18.2939434  32.4044704
  65.7191467  19.7880888  32.6043391   0.6195318  78.7500048  85.2101612
  -0.2283263  78.3169794  85.1108646   0.9342492  78.4663916  86.0685062
  39.7852159 100.7484818  26.2671733  39.4137120 100.1280880  25.6400180
  39.2160177 101.5159798  26.2106705 113.0947590  87.8561878  84.9542141
 112.3430157  87.3489952  84.6478176 113.6692810  87.2092819  85.3636932
  97.9204750  63.5204840  86.2994289  97.1802139  62.9518414  86.0875607
  98.6229610  63.2249212  85.7203102 106.0726643  76.7084265  90.3613472
 106.3255310  77.6171875  90.5239582 105.8678913  76.6803646  89.4267273
 100.2863407  69.9060249  57.3699856 100.0720215  70.5253077  58.0676937
 101.2023735  69.6765900  57.5264168 101.7603397  45.9600019  85.7596779
 101.4168739  46.8493176  85.8456135 101.2045383  45.4321527  86.3329887
   7.7017415 102.9456615   8.2688838   7.7580529 102.1579361   8.8097620
   8.4780484 102.9085350   7.7101332  40.1122618   3.1312695   3.2039800
  39.9510431   3.3289626   4.1265622  40.9226274   3.5969150   2.9973105
  51.3281155  30.4672289  20.7298350  51.1775541  30.5023408  19.7852039
  51.6022158  31.3545156  20.9618258  62.8508568  11.9371796   9.0648764
  62.6946402  11.0269856   8.8131362  63.7778282  12.0823550   8.8754499
 105.4115868  74.5129776  63.4371567 105.0146198  73.6656284  63.6387682
 104.9435997  74.8178291  62.6597977  43.1924582  21.2268901  28.3396292
  43.5683918  21.5550518  27.5227976  42.9151201  20.3341269  28.1339931
  37.3890591  36.5705633   3.5778430  38.1453276  36.7976046   3.0367860
  37.7570796  36.0696769   4.3057883  46.0884142  36.5516543  28.3901858
  46.4543438  36.0605502  29.1258097  45.2530956  36.1216426  28.2069778
   0.5815404  98.1639290  89.0060711  -0.0298993  98.8490868  88.7360191
   1.4073226  98.6247063  89.1543865  51.4300013   5.3114289   0.2009853
  50.6298637   5.5204993   0.6829652  51.4555836   4.3547443   0.1827756
  98.0178833 101.6717148  90.6172466  97.9106903 102.4749279  90.1077557
  98.8903713 101.7477512  91.0035324 107.6902962  58.5596132  88.0903530
 106.9825077  57.9345369  87.9337120 107.2455406  59.3968010  88.2228184
  39.0582514 105.0189114  12.8367257  38.5103703 105.3035831  13.5681772
  38.8043237 104.1081429  12.6875508  27.3062396  82.2825336  16.7018139
  26.8123579  82.4532318  15.8998322  27.4590349  83.1493187  17.0780754
   5.2505046  96.5120792   5.5600888   4.6033800  96.4535999   4.8572081
   5.9999353  96.0112667   5.2379489 100.5213356  17.1711397   3.5467497
  99.6764565  17.5317454   3.2777289 100.3560829  16.2356234   3.6639354
  23.3164859  93.4165382  14.8213995  22.5685501  92.9895782  15.2391720
  23.0956578  94.3478870  14.8291039  65.9743214  10.0789917  17.7001321
  66.7615986   9.9390376  17.1739745  65.2731848   9.6650082  17.1968842
  31.8228149  44.5892859  83.0353642  32.2203279  45.0858402  82.3200703
  30.9449506  44.9600649  83.1254101  78.9054346  18.4628057  14.0974748
  79.0499735  17.8387499  14.8087370  77.9575872  18.5956132  14.0842807
  73.7971497  98.8718128  87.3348331  73.5065699  99.6239090  86.8189335
  73.2203341  98.1578445  87.0632553  63.3831310  18.9147317  60.0998449
  62.4883032  19.2531180  60.1315689  63.3016014  18.0615890  59.6735430
  85.5720711  61.3446379  62.2086906  85.0097942  60.6175375  61.9414616
  85.9038544  61.0872316  63.0688620  64.1331339  35.2584720   3.0523953
  64.2588615  35.1422668   3.9941606  64.3653250  36.1729121   2.8907928
  59.1030455  32.3157144   4.6349469  59.5200729  33.0524993   5.0815654
  58.1968069  32.3309207   4.9427313  72.7503681   8.0237556   4.7295073
  71.9231892   8.4641904   4.9244946  73.4124470   8.7100893   4.8121449
  85.1583672  75.9810972  90.4618549  84.3827724  76.1297417  91.0027695
  85.8942318  76.0800028  91.0659695  47.5841999  12.3322046   7.0406550
  47.7692461  13.1881011   6.6540927  47.8262186  12.4280417   7.9617810
  81.6940403  91.2548351  78.3759499  82.1670532  90.4288769  78.2745790
  81.7397594  91.6646099  77.5121021  13.4356499  96.3860989   3.0596721
  13.5146105  95.5295944   3.4796694  13.3977628  96.1911201   2.1233076
   6.8604499  70.1536179  76.3591433   6.7978317  69.2005062  76.2967396
   5.9770906  70.4367304  76.5952682  91.1202335  14.6068203   3.1998894
  91.9545174  15.0408137   3.0214220  91.2452602  14.1884983   4.0517142
  35.1194549 104.3597126   5.8517224  34.8218608 105.2662849   5.9279031
  34.7532392 103.9220333   6.6201967  57.5101709  17.5654650  27.3414946
  58.0391264  17.1361506  26.6690922  57.2117329  16.8507850  27.9039907
  72.2989607  43.2875824   5.8602291  72.1988678  43.1507349   6.8022937
  73.1833220  42.9772425   5.6657493  97.1389103  93.8344479  56.3117504
  97.9008293  94.2500591  56.7154551  97.1357441  92.9450130  56.6655016
  76.5650940  43.2449293  86.6534138  76.6541243  44.1702223  86.4250755
  76.1010933  42.8585196  85.9107018  91.1762905  45.4966831  92.3742485
  90.5734730  46.1330462  91.9896889  92.0236588  45.6996775  91.9780350
  95.9204769  58.1613207  92.9039383  95.3882504  57.4238920  93.2025337
  96.5196419  57.7799416  92.2622395   3.2045022  61.8641996  73.1193972
   2.8043169  61.5443230  73.9279556   3.0288562  61.1767197  72.4769402
  44.7787571   6.6617721   1.1575098  44.0238523   6.5847182   1.7409633
  45.3152704   7.3506522   1.5497191  46.5102768  10.3763294   5.4375994
  47.0594025  10.9405899   5.9819335  47.0685959  10.1417792   4.6963200
  68.4402800   7.0576853  30.7264566  68.6177874   7.1992826  31.6563344
  67.7902460   6.3552254  30.7109642  39.3075371 108.5857010   5.1513082
  39.8425102 108.7522697   4.3752351  39.8243427 108.9341450   5.8777589
  91.9737816  16.4907897   9.8901623  91.2121487  16.9767344  10.2064002
  91.8731213  15.6164050  10.2663946   9.7863126  59.2413092  87.3539257
   9.1155863  59.9049330  87.5150681   9.9922305  58.8932991  88.2215214
  56.3842583  24.7241211  21.8516779  56.4635277  24.2777157  22.6946902
  57.1170616  24.3904138  21.3341093 102.5105667  66.2332153  64.6217155
 101.6126156  66.4295387  64.8888779 102.5553703  65.2770805  64.6167994
  60.8789158  14.5387125  17.0189786  60.4780531  15.0626659  17.7125299
  61.5506077  15.1093400  16.6455591  90.0750446  26.9618917   0.8861822
  89.7614193  27.8508186   0.7198095  89.5141888  26.6380239   1.5910098
 109.1036606  39.7201729  79.8489332 109.8821640  39.4377732  80.3289509
 109.4250107  40.3878069  79.2429352  34.4705415  89.3017864  20.5593324
  34.0458918  88.8687706  21.2998748  34.4912410  90.2272797  20.8027792
 101.3636017   8.7372631  76.4452028 101.1916256   9.0759653  75.5666065
 101.9669342   8.0071825  76.3066006 105.5012512  36.1271286  88.7477207
 104.6078777  35.8471489  88.5483837 106.0419464  35.6882739  88.0910015
  71.6858530  19.8959112  39.3087745  71.6643381  20.8179116  39.0524888
  72.6147366  19.7052240  39.4393396  27.0291924  92.5534534  13.5198283
  27.2503233  91.6259670  13.4355319  26.8765521  92.8459167  12.6212728
 103.0001068  57.0946789  77.7997303 103.1078339  56.7775440  78.6964178
 102.1445370  56.7615843  77.5290346  77.0745754  46.9697237  -0.0866401
  77.0397091  46.2582350   0.5527341  76.1605597  47.2257710  -0.2101269
  36.5597200  26.9466710  19.3129551  36.0968876  27.3233581  18.5645401
  35.8993268  26.4190865  19.7621393  34.3177080  36.4558935   3.0769023
  34.3496275  37.3572183   3.3975661  35.1871014  36.1032295   3.2666790
   3.9854157  40.2763700  78.9272070   3.1664336  40.1720428  78.4428358
   3.7330043  40.7351303  79.7284937  88.1135178  87.4633884  61.5040588
  88.1021976  87.7919102  62.4030447  88.9480972  87.7683353  61.1481047
  31.3979149  89.0238285  18.8310575  31.4186668  89.7254276  19.4818735
  30.5735016  88.5668659  18.9976919  35.6450415  24.3803644  17.6713383
  36.5946388  24.4271088  17.5603855  35.5216742  24.1885638  18.6009753
  69.6109104   3.6577290  20.0655794  70.1146603   4.2437816  20.6303883
  69.1846085   3.0502996  20.6701660  38.6274981   7.2224033   4.9921307
  38.5926056   8.1777334   5.0407004  39.1695356   6.9643170   5.7376635
 112.6718235  55.1414680  69.4425964 112.9281998  55.8922195  69.9782038
 113.0626106  54.3875313  69.8842955  58.6346579  50.1918030   6.6526908
  58.0255508  50.9184313   6.7839456  58.1977177  49.6248102   6.0172117
  47.8665972 109.2218876  27.2303796  48.4016562 108.8410378  26.5340352
  48.0452490 108.6754799  27.9957294  51.1625195   5.4689991   4.4686818
  51.5092421   5.2022809   5.3200793  50.7665920   4.6740353   4.1116041
  36.5448093  27.8068757   2.3285009  36.1003375  27.1212316   1.8299343
  37.2976112  27.3664546   2.7228978  98.1679344  69.3562174  72.5610781
  98.6430359  70.1767302  72.4296761  98.2497978  68.8956642  71.7259598
   5.6646276  34.5352459   5.3327292   5.0872332  34.4829488   6.0943806
   6.5166616  34.7791243   5.6943822  94.3044662  82.1589470  92.0783329
  94.0997696  82.6753616  91.2988091  95.0499153  82.6095486  92.4751949
  86.4128780  20.6861424   9.1471642  86.3989735  20.1021481   9.9054456
  86.1255836  21.5319991   9.4909948  29.6543503  27.5183606  10.2041900
  30.4402733  27.9180956   9.8316789  29.7002101  26.6016269   9.9326622
  82.2533512  74.8548794  81.1788559  82.5430012  75.2994442  80.3821754
  82.0369434  73.9674473  80.8927441  92.6101875  85.9829330  85.0258636
  92.5574207  85.3150177  84.3422413  92.4980640  86.8116665  84.5601940
  45.0040722  11.8310153  21.9304013  44.7656155  12.4723184  22.5998044
  45.8582544  11.5006363  22.2087049  94.1305542  84.9370289  51.9858217
  94.0898132  85.2124500  51.0700083  93.2693100  85.1573277  52.3407221
  91.8013000  27.1637273  70.0520086  92.4487209  27.5559163  70.6379032
  92.0812130  27.4268389  69.1752815  84.5621490  85.2927017  77.2426701
  83.8986015  85.6136036  76.6319656  84.7429848  84.3988419  76.9519043
  53.6065388  33.8520312  47.0335913  53.9344168  34.6571350  46.6329241
  52.8454018  33.6138344  46.5042830  95.6960773   7.2973329  92.0970058
  95.6398964   7.3086971  93.0524826  95.5895042   8.2131779  91.8398952
  37.2544265  12.8231788  18.5727191  37.5950408  12.2609329  19.2684877
  36.4879084  13.2458711  18.9600348  47.0620155  17.1445513   3.2280934
  46.2790298  16.6103220   3.0948120  47.3989677  17.2999787   2.3457450
  84.1255093 105.1630497  90.8630943  84.8288822 105.6518555  90.4358196
  84.1567707 104.2958641  90.4590702  36.2200046  32.4300194  13.7147212
  35.6858015  32.2153640  14.4794321  36.5103579  33.3287978  13.8700402
  74.1504383  34.9634099  16.6535556  73.7421656  35.8126163  16.4850497
  73.5652876  34.3297529  16.2384534   0.8716299  53.3672190  80.4700089
   1.4284728  53.2002831  81.2304592  -0.0201058  53.2386112  80.7932663
  23.6303496   4.7474086  47.7304840  23.5347533   3.8523191  48.0559206
  23.5489559   5.2959073  48.5107136 112.5784969  67.6319933  83.5852718
 112.0956993  67.7649450  82.7695084 112.9986763  66.7785931  83.4785461
 111.7096615  68.6113405  81.2563324 111.4291954  67.7906561  80.8513069
 111.3599968  69.2932510  80.6827831   9.8005968  94.6657467  90.2128315
  10.0105405  95.5748081  89.9989223   8.8482946  94.6561241  90.3090572
  69.9377871  63.3164835  60.5032158  70.3492498  62.5576878  60.0895071
  69.9641895  63.9987183  59.8323250  98.4519958  87.5965786  86.3329029
  97.6356506  88.0252266  86.5899563  98.4052181  87.5451756  85.3782272
  93.3786869  59.2793512  64.2945099  92.7858925  59.9551392  63.9656639
  92.9929924  59.0069389  65.1271343  58.3509588  25.9468365  10.7343984
  59.2324018  25.7065415  10.4488349  58.4869289  26.4336944  11.5472424
 100.5405807  55.8775043  77.5398922  99.7289753  56.0961103  77.9978609
 100.2750969  55.2483845  76.8691063  89.5974827  77.6927042  79.5930815
  88.8382530  77.8568935  80.1524067  89.8173618  76.7746115  79.7511673
 106.8047428  94.4909954  88.1463432 107.5765228  94.3056297  88.6813354
 106.5966797  93.6553478  87.7284431 107.8064919  71.0437059  87.6047325
 108.3338928  71.5113735  88.2523251 108.2322598  70.1906013  87.5200558
  39.8911953  23.6467934   7.1307218  39.4037032  23.2604790   7.8582829
  39.3176484  23.5359192   6.3724452  38.3596730  38.1133866  34.4732428
  39.0905356  37.8161550  35.0152063  38.1847715  39.0047932  34.7749662
 106.8217659  65.6078339  91.7096233 106.7586708  64.8500109  91.1282825
 105.9173965  65.9017372  91.8190193 104.2848396  50.3255463  85.8053398
 103.5952854  50.8039331  85.3450203 104.1843033  49.4197559  85.5126476
  43.6771917  16.3512003  28.3642220  42.9341269  16.8908489  28.0942845
  43.3536148  15.8578527  29.1179705   2.4297383 103.6839676  11.5184498
   2.6175818 104.5796680  11.2379730   3.2626548 103.2226086  11.4203227
  25.1009727  39.5487332  77.8724003  25.3601289  38.7353110  77.4394894
  24.3952513  39.2902589  78.4651709  60.4735851  38.2171416   7.6725692
  59.5622349  38.0832601   7.4122792  60.9812832  37.7190542   7.0319569
  40.3100872  22.7290773  45.1288271  40.2578402  23.6795592  45.0284100
  39.5089054  22.4007201  44.7207546  92.9345322  65.1965475  88.7850761
  92.9025269  64.3667889  88.3089352  93.8151264  65.5335426  88.6201096
  71.0925865  56.7667723  19.8322272  71.2153816  55.8640862  19.5384395
  71.7466450  57.2681761  19.3453622  70.2494621  28.7346435  31.1521316
  70.7727480  28.9381289  30.3768921  69.8747635  27.8731203  30.9688020
  46.1891222  26.0582352  20.2387309  45.6009197  25.9541631  19.4907880
  46.9112396  26.5895987  19.9034250  99.0730762  51.6626596  78.7601328
  98.2973480  52.1566629  79.0255404  99.1678238  51.8491745  77.8260708
   5.4193407  80.9108067  70.4592562   5.1589894  81.4262009  69.6958351
   4.7851998  81.1479378  71.1359167  51.9296980  20.6238317  20.1041365
  52.5884247  20.6260872  19.4096518  51.4516830  21.4443088  19.9835181
  50.1917791   4.1407815  16.7993915  50.4015017   4.6515676  16.0175049
  49.2351294   4.1152170  16.8193114  61.7765331  28.4181857  28.8389707
  61.7431879  27.7082729  28.1977654  62.6963663  28.6824751  28.8560724
  86.8055534  82.3040199  45.2547503  87.6654911  82.2933578  45.6750202
  86.2525558  81.7723560  45.8272505  81.3211632  43.7395954  91.8998528
  80.5830193  43.5946846  91.3079262  81.9170284  44.3030167  91.4061546
  75.0609398  39.7598529   9.7110498  75.0816011  39.4519639  10.6171453
  75.3494692  39.0067101   9.1955346  39.3601608  26.2931991  20.1687956
  39.9009347  27.0798993  20.2387834  38.5865140  26.5769100  19.6817493
  35.1130724 108.8107014  32.2061110  35.7791162 108.2697487  32.6303530
  34.3410516 108.7223053  32.7650380  54.9237204  50.0955963  20.7840466
  54.2487812  50.6555319  20.4004240  55.6219101  50.0792694  20.1294518
  42.2696400  30.1426220   3.8897109  42.9180622  30.6958389   4.3252891
  42.7695322  29.3887091   3.5767332 105.3456211  56.3425159  76.6934013
 104.5351124  56.6969156  77.0590687 105.1298904  56.1419439  75.7826519
   4.8662090  13.6709857  83.2393074   5.1688755  13.8304508  82.3453236
   5.2566051  14.3773735  83.7539291  38.7295389  31.4885402   4.7513354
  38.2438111  32.3043537   4.6298927  38.2067251  30.8284783   4.2961255
  93.1305122  68.7360477  78.2191420  93.3041382  69.1939259  79.0415955
  93.2679939  67.8116369  78.4260035  90.6420708  71.4819479  83.2439232
  89.7251034  71.4082432  83.5084248  91.0601330  70.7021809  83.6091995
  77.1415472  47.0659971  10.1621163  77.1569443  47.6180267   9.3802881
  77.3745918  47.6575661  10.8776367  66.2990332  40.4452085  33.4539533
  66.8412256  40.7566404  34.1787076  66.8320370  39.7744155  33.0271292
  33.3222365   8.1091416   5.5618805  32.8626823   8.6870611   4.9527419
  33.9153862   8.6883771   6.0403061  85.4563046  62.4582243  93.4686947
  86.0124397  61.8219662  93.0191135  84.8081398  61.9260025  93.9300632
  62.6044607  24.7748876   8.4765112  62.6582575  23.8588881   8.7490559
  61.8372059  25.1166916   8.9355505  92.1710873  62.6857901  87.5513268
  91.6820145  62.0848656  86.9892502  92.2483253  62.2236967  88.3860397
 108.7060833   4.0667987  17.0081127 108.1008530   4.2356417  16.2860227
 109.1203690   3.2336298  16.7835498  51.9179249  54.9723577   8.9211434
  51.4768028  55.6073809   9.4854039  51.9748545  55.4069853   8.0702096
  65.9596014  44.0697002   6.6554552  66.7898607  43.7130880   6.3396603
  65.3059006  43.4203911   6.3960254  10.6150365  95.8828354  29.9734354
  10.1142514  95.3036404  30.5478692  10.9463489  96.5679836  30.5539918
  94.0792942  58.7021732  82.3695755  94.6399117  57.9325771  82.4678421
  93.3564186  58.5512543  82.9785919  39.6828270  24.8809528  89.8589611
  39.2597365  25.3066778  89.1133213  40.3128338  24.2778039  89.4645882
 103.3244514  57.7849150  62.2617960 102.5919914  57.9923248  61.6815186
 103.2093048  58.3693027  63.0111027  53.3555222  38.8347793   7.5765347
  52.4656534  38.9771557   7.2538996  53.2388639  38.3593130   8.3990639
  53.1127167  39.8229241  16.3412976  53.8142824  39.1729045  16.3024545
  53.5124445  40.5816412  16.7665005   7.2438371 107.3167896   6.4489239
   6.8509704 106.7434788   5.7907456   7.5112277 106.7255783   7.1526289
  99.5462322  32.4169827  85.6778336  99.3348694  32.4409676  84.7445774
  99.7280407  33.3287024  85.9057522  40.7141018   7.9147017  21.6936040
  40.6418848   7.6934427  20.7651329  39.8593426   7.6892453  22.0607400
 107.1714878  65.4681301  94.6166801 107.1514893  65.7205391  93.6935806
 106.2621212  65.2554464  94.8265839   3.2409579  39.5373917  70.5495977
   3.9512694  39.1369867  71.0509634   3.4223241  39.2947626  69.6415997
 114.4464302  63.0021191  89.1642094 114.4533253  63.7977457  88.6320877
 115.1727295  63.1174612  89.7769260  55.7522488  29.0835381   7.1192074
  55.9846163  29.1768646   8.0430728  56.0806847  29.8829246   6.7076939
  32.5179529  39.2225099   8.6339360  32.2036433  40.0754452   8.3340275
  31.7759180  38.6329889   8.4994602   6.0434657  58.9125395   4.0638158
   5.1048428  59.0717745   4.1631332   6.0966933  58.1145382   3.5378990
  47.0784283   5.2359980   1.1691938  46.1552048   5.4733253   1.0822313
  47.0779419   4.4860452   1.7640072 110.6356621  91.9845486  51.3905239
 111.5085697  91.7855358  51.0519266 110.7867718  92.6389122  52.0725870
  48.1956291   2.4410824  29.9287486  47.2549295   2.4897285  29.7586012
  48.2942820   2.7660963  30.8236599  15.4314709  73.1901550  75.9627390
  15.6814432  72.5467062  76.6258526  14.5337605  72.9554462  75.7276630
  19.6053159  75.9522915   4.4321191  20.4004741  76.4735699   4.5426732
  19.5981228  75.7204103   3.5034573  84.4057178  59.7071886  81.3160419
  84.4568920  58.7702131  81.1271191  85.2032852  60.0726271  80.9331894
   2.0077941  35.5272961  60.1313972   2.2347197  36.1829352  59.4719458
   2.7666217  34.9445915  60.1608372 112.1564770  46.7550135  45.6424761
 112.5940037  47.6019573  45.5559683 111.3148403  46.8741560  45.2023697
  48.0934334  30.4252768  11.7151749  48.3552599  30.2844071  12.6250291
  47.2384357  30.0009227  11.6435385   5.6325263 103.8894939  29.0612078
   5.3660285 104.6786594  28.5895824   5.0836378 103.8822556  29.8453641
  13.8275993 108.7831211  15.4406011  13.8277113 108.5746479  16.3748229
  14.4082081 109.5402622  15.3640866 110.9068775 103.9695358  49.3845367
 110.5609989 104.7692394  49.7808599 110.8765888 104.1366100  48.4425163
   6.1845666  97.4255657  89.5520115   6.0751325  97.6341629  88.6242485
   5.3693569  97.7165031  89.9606991  85.6960297   5.0655067  20.0342345
  86.3616848   4.8736015  19.3736935  84.8775768   5.1195312  19.5408332
  55.6478357   4.7276852  27.7955174  54.7453022   4.8184019  28.1011987
  56.1648655   4.6444547  28.5967588  90.0151920  71.4593840  80.4488945
  90.7400894  71.9906712  80.1195145  90.1079178  71.4916563  81.4010525
  92.8669071  91.0393429  60.8084631  92.9275513  91.9824982  60.6567907
  92.7053833  90.9578037  61.7484045  32.3070955  29.5682478   6.7611027
  32.5093746  30.0662923   5.9691000  31.7149162  30.1348257   7.2556162
  62.5535917  32.0677567  13.4897995  62.5016594  32.7700543  12.8414834
  63.4760571  31.8122530  13.4927535  93.8041687  40.3933573  71.4333582
  93.0637360  40.1705456  71.9975805  93.5229015  41.1818790  70.9693050
  75.9709406  22.0225263  35.2334547  75.0559139  22.2324920  35.4202008
  76.4669275  22.5018334  35.8971524  41.5624189  26.9322181  11.2105823
  40.7348442  26.5382504  10.9346473  41.9138765  27.3327851  10.4154372
 100.3807545  62.2650051  63.7940741 101.2420654  61.8691778  63.9270973
 100.5370045  62.9749107  63.1712961  54.2221355  36.5337920  19.2910969
  55.0051689  36.7026424  19.8151004  53.5175991  36.9773316  19.7634661
  96.8730450  40.3121853  81.6250706  96.6772366  40.0172281  82.5143909
  96.4361095  41.1607456  81.5525055   8.7097585  40.4244947  90.1772022
   9.1267365  39.9771738  90.9135914   9.3926477  40.4721928  89.5081615
  92.1550751  90.5832005  53.2278872  91.7637348  90.8545208  52.3975468
  92.2470665  89.6335888  53.1503344  39.7478628  95.7523346  12.8419602
  39.3847108  95.0781727  13.4163010  40.6049681  95.9516144  13.2186460
  99.8367691  86.6261482   5.3874165  99.5425987  85.9110260   4.8232412
  99.3951511  86.4698601   6.2221515  50.6977844  11.3291538  11.5887916
  51.4494610  11.6858673  12.0620453  50.5616617  10.4631984  11.9732690
  72.5592804  44.1697931  31.6610479  73.1577253  43.6992836  32.2413182
  71.7397738  43.6778307  31.7122197  74.5177174  30.7198048  11.6874790
  74.1524076  29.9429750  12.1109378  74.4731998  31.4014030  12.3580563
   4.9019158  47.8517389  67.3817873   5.0161278  47.4975109  66.4999056
   5.2680981  48.7348604  67.3344564  77.4013901  24.1918540  15.6365645
  76.6245937  24.0904450  15.0865328  78.0348969  24.6399212  15.0760841
  90.9510136  73.9758110  63.5796309  91.8762207  74.2197227  63.6068344
  90.4942703  74.7259092  63.9603806  70.0749302   0.3286768  14.2286670
  70.2637959  -0.1930308  15.0086570  70.6704903  -0.0132261  13.5618484
 103.4517097  57.7496099  49.8012304 103.2918262  57.2335863  50.5914116
 104.4044876  57.7586555  49.7097826  91.9123745  86.8346214  73.6505842
  91.4292336  86.3144970  74.2926741  92.8022003  86.4829445  73.6782074
  91.0904312  81.6899300  58.2876444  91.4862823  80.8504868  58.0534124
  90.1476479  81.5335846  58.2334280 104.7217941  71.4872932  57.2754002
 105.5989647  71.8555307  57.3812437 104.4267178  71.3108301  58.1687212
  47.1072149  22.6938438  12.4115622  47.8019953  22.5581193  13.0558431
  47.5653791  22.7467608  11.5728009  94.1271400  76.9762993  85.2327919
  93.1830120  76.8411541  85.1516342  94.2173862  77.6207542  85.9347630
  44.0265989  37.9702783  21.1069369  44.4263363  38.1435204  20.2546310
  43.1704235  38.3958030  21.0608649  96.8672657  42.2166872  89.8713875
  96.2741947  41.5374136  90.1924610  97.7297592  41.9525194  90.1916218
  87.9286289  25.3417802  30.4463816  88.1768608  26.0351253  31.0578442
  88.5238838  24.6198988  30.6483388  61.0386372  46.0723877   6.5073097
  60.2304411  45.8573389   6.0416830  61.0718489  47.0289850   6.5002269
  96.4152431  73.8260603  93.9677906  96.6528988  73.0412245  93.4740448
  97.2217751  74.3403625  94.0028191  53.8391924  61.7510891  18.1519961
  53.8886213  61.2964249  17.3111224  52.9232359  61.6662312  18.4166837
  14.7357762  51.3442135  68.6386013  14.9690402  50.8619595  67.8453493
  13.7897456  51.2246847  68.7220955  77.5333786  97.8696918  88.9777374
  78.1789064  97.7677345  89.6771145  76.8003035  98.3241558  89.3928146
  54.5329428  -0.0525981   2.2788806  53.9266109  -0.3913292   2.9375601
  54.7716141   0.8176795   2.5980720 101.5839005  67.0100355  90.6398106
 101.3614750  67.8766775  90.2996826 101.0142231  66.4102554  90.1581860
 106.9835567  77.9759121  74.4804239 107.5121212  77.6691389  73.7437105
 107.0354271  78.9304447  74.4313622 105.9417439 104.6047401  57.3337126
 105.7598686 104.9276924  58.2162380 105.1011753 104.6627140  56.8794966
 104.2406845  88.8666058  86.1447430 104.5986652  89.7370720  85.9704590
 104.1601086  88.4633064  85.2803993  97.4646473  31.5134096   6.9555575
  97.9026413  30.8435988   6.4304423  97.9218864  31.4955592   7.7962983
  78.3386564  50.6457567  15.2471912  78.1130981  50.8914375  14.3499744
  78.0579281  49.7338438  15.3235888  54.1883707   2.9651597   8.9271396
  53.7640572   3.3600032   9.6889061  55.0140858   2.6189196   9.2655790
  85.9888649  95.9910488  57.7225924  85.8399200  95.7870197  58.6458588
  85.5602264  96.8369007  57.5920534   4.3867710  82.7525520  93.7194252
   4.7774053  83.5975647  93.4967327   4.7468269  82.5418282  94.5809269
 103.2511234   8.7271959   4.1345486 102.5936317   8.1003255   4.4361547
 102.8052521   9.2340869   3.4559569  75.5039310  74.9189377  23.7590528
  75.1281118  74.5875311  24.5746279  76.4425182  74.9818707  23.9360285
  76.8451786  14.2839205   2.0004822  76.7844629  15.1960838   2.2842132
  75.9723949  14.0787721   1.6652213   5.3047204  42.6937628  66.6097450
   5.3522927  41.8578148  66.1458921   5.6818461  42.5118494  67.4705124
 102.8905392  91.1118889  78.5804033 103.5428905  91.2213898  77.8885412
 103.2983112  91.4952469  79.3569279   4.8314226  51.9054508  75.3322458
   5.1269215  52.1874142  76.1979294   4.1408432  52.5265646  75.1008368
  24.9249339  79.3790865  59.3535995  25.1064634  80.3185368  59.3804169
  24.6795440  79.2084217  58.4442663  97.8869057  33.0518889   2.6864800
  98.7203598  33.3096313   3.0803740  97.5494099  32.3686099   3.2656676
  12.0164537  41.7912054  81.0950279  12.2050047  42.6383543  80.6912708
  11.0608661  41.7520237  81.1343861   8.9036483  71.0451603  82.7581120
   8.4820753  71.6369343  83.3812523   8.7045050  71.4195204  81.8999577
  10.5105698  24.4031906  53.8088179  10.8953297  24.0090203  54.5916462
   9.7986764  24.9499822  54.1411734 110.7327843  74.1810465  78.8860607
 109.9022198  74.2917728  79.3488026 110.6544781  73.3307457  78.4535265
 100.4798985  47.2003603  91.9015503  99.7482681  47.1570635  91.2858582
 101.2434483  46.9433975  91.3846493  45.9136438  45.6600094   6.6455841
  45.6490231  45.0437164   7.3285127  46.8632793  45.5565977   6.5845257
  49.0366936  32.7911878   8.6286771  49.8394012  33.2974243   8.5037124
  48.7536621  33.0064750   9.5173717  72.3110151  23.7709498  23.8789964
  71.7119694  23.9647889  24.5999670  72.5513840  22.8533649  24.0074301
  57.3081636  12.4751091   4.2927167  56.8116188  12.3732138   3.4807485
  57.7352667  11.6280150   4.4201854  11.9171453  74.4938326  90.9893703
  12.3956406  75.0909710  90.4143047  12.4475300  74.4511700  91.7850494
  22.3338532  52.1019077  92.4199104  21.8738723  52.3653650  91.6228962
  21.9256544  52.6192427  93.1141567  42.9654503  27.3029041  20.1076579
  42.7340555  26.6648126  19.4327331  43.9102983  27.4218321  20.0109720
  63.7439013  29.8545074   4.7963390  63.4883976  30.5099535   4.1472301
  62.9214621  29.5961189   5.2123499  28.7905407  95.9527874  11.6544306
  28.1911397  96.5175056  11.1665285  28.2286835  95.4827785  12.2705805
  91.5325832  94.7903633  91.4103794  92.4886703  94.8338604  91.4257812
  91.3341808  94.1071701  90.7699776   1.3241039  82.3478127  66.9648314
   1.6102019  81.6632462  66.3600588   0.7219303  81.9036674  67.5617886
   0.6225894  50.8387280  79.3844318  -0.3013145  50.7633162  79.1457987
   0.7296150  51.7545700  79.6413565  72.5998592  37.1328187  16.3859653
  72.9705858  37.8757644  15.9097004  71.6574574  37.3002243  16.3949168
  44.7612810  92.0208931  63.2647991  44.9978399  91.2206650  62.7958632
  44.3293333  92.5653839  62.6066351  65.1528835  10.4328859  30.1635194
  64.7577477  10.4213750  31.0352802  64.9282885   9.5817709  29.7874951
  60.7489491  19.7499132   8.1262958  61.1479855  18.9511061   7.7814639
  60.5485868  20.2721453   7.3495328  64.1829729  40.2868319   3.0063841
  63.3039474  40.5329561   2.7183524  64.7695637  40.7558823   2.4129687
  88.4393978   4.4982946   4.0133110  88.7492371   4.7492969   3.1431234
  87.9195023   3.7086034   3.8638726 110.6469536  82.1522427  91.2779808
 109.9051380  82.7531338  91.2082481 111.1086845  82.2440052  90.4445457
   5.9388298  56.8050623  46.0693979   6.1699831  56.1885786  46.7641973
   6.6190869  57.4772739  46.1095619  52.8965139  24.4845891  19.3812263
  52.2325277  24.9747539  19.8660898  52.5452852  24.4195366  18.4931731
  64.7144270  30.5626416  11.0717857  64.9699879  29.7061658  10.7291949
  64.6871471  31.1302781  10.3015411  99.9707413  73.8902712  77.8446722
 100.3880501  73.0575752  77.6240063  99.2756748  73.9896536  77.1941090
 110.7164860  48.8260078  16.7453861 111.5007877  49.2541265  16.4021206
 111.0476017  48.2011318  17.3904598 104.5549107  71.5891886  63.5201597
 105.5103970  71.6343975  63.4848881 104.3470478  70.6963491  63.2447290
 111.6710281 105.9671783  20.8859944 112.5657177 106.2212849  20.6597304
 111.5389442 105.1314640  20.4383779  99.7522259 105.8776379  62.4027300
  99.8983192 105.4575539  63.2503271  99.2500687 106.6658783  62.6094723
  53.2281208  47.7843523  15.0984216  53.0424881  48.2886600  14.3063056
  52.3881912  47.3901606  15.3337216  81.4407730 105.8796978  75.4514456
  82.2646618 105.4541779  75.6888819  81.3451481 106.5883732  76.0877419
  73.7640619  82.1147728  75.0601864  73.4825087  82.8771400  75.5659199
  74.5531893  81.8088722  75.5073214 107.7552509  64.2870951  46.2065315
 107.4604797  63.7676954  46.9545698 108.0008984  63.6386919  45.5466318
   2.1553512  51.1147928  63.4270477   2.8082466  50.9437513  64.1058016
   2.1655984  52.0658255  63.3190775  76.4340305  39.0559626  18.8691711
  76.2437344  38.2206082  19.2960227  76.7959023  38.8125730  18.0170882
  87.4728107  37.7879882  21.1320448  86.7078781  37.7516937  21.7063165
  87.2688103  38.4817815  20.5049372 112.2656345  66.2811613  75.4454851
 112.4715519  66.7084837  74.6140862 112.2727966  65.3458118  75.2422619
  33.6281443 106.5740776   6.4308172  34.0779090 107.3912239   6.6458023
  32.9917574 106.4581585   7.1363711  49.5886374  23.7840223  72.1690083
  50.1226425  23.1742692  71.6598225  49.8620081  23.6425495  73.0753708
  60.6556749  36.7055655  15.9914362  60.7998466  35.7702899  15.8475423
  61.4425945  37.1254420  15.6440341  92.6558876  11.3225353  37.9790211
  93.2307053  11.0543752  38.6958933  91.9905376  10.6357443  37.9358077
  99.0331364  85.9668159  91.9387627  98.3419704  86.3013840  92.5102329
  98.8513088  85.0298500  91.8662262  96.3455200  81.8626785  67.3822260
  96.1982441  81.3106251  66.6142511  96.4964199  81.2438011  68.0966854
 115.6290913  80.9939480  94.5273209 115.5914116  81.9204617  94.2898750
 114.7159863  80.7069397  94.5178509  35.5641603  69.1969824   2.9652950
  36.2433410  69.8666430   2.8846869  35.2424693  69.0734005   2.0722812
  82.3967075  36.6555738  22.3998475  82.1421051  36.0151100  21.7356110
  81.7101860  37.3217273  22.3658347  90.0798416  54.5741558  93.9377975
  89.9617290  53.9100361  94.6169376  90.9310722  54.3712997  93.5498905
  94.9380589  40.4095411  13.6937439  94.9751568  40.5173349  14.6441317
  94.3840313  39.6402693  13.5613990  32.1897578  27.7851176   8.9075482
  32.2766423  28.3493567   8.1392276  33.0854726  27.5132394   9.1075701
  49.6088743 103.2975960   3.1429887  49.2288876 102.5291348   3.5687804
  49.3568563 104.0312576   3.7037539  85.3822041  14.9168658  13.1349814
  84.5457840  15.1826310  13.5170805  85.2805042  13.9806533  12.9635310
   0.8985421  75.3676701  86.7317486   1.5983152  74.7198296  86.8145370
   0.6145676  75.2983379  85.8202744  80.7084274 107.8579426  77.1498251
  80.1817131 107.8343391  77.9487324  80.6209183 108.7564850  76.8317127
   0.7055248  66.4985704  79.0430212   0.1026536  66.9537973  78.4551907
   0.1365684  66.0204268  79.6462631 108.4213257  53.8790894  17.6073623
 108.8826466  53.9278364  16.7700815 107.5797558  54.3042183  17.4422479
 115.4231167  61.1444855  93.2059193 114.8407173  60.6478357  92.6311398
 116.1541557  60.5507565  93.3770847  49.4770765 101.7814350  13.1940269
  50.2028322 101.4418602  13.7176657  49.1458368 102.5250721  13.6975348
  71.3937998   5.3210533  21.5142798  71.3834524   5.9206581  20.7682252
  71.1646271   5.8688587  22.2650266  99.0804291   2.9845315  24.6543336
  99.6133900   2.8636682  25.4401922  98.2086372   2.6807070  24.9071169
  33.4137702  79.9862242  61.0327291  33.6784863  80.3744507  61.8666553
  33.6154222  80.6578064  60.3811550 100.3081131  99.8564148  68.3564186
 101.1938858  99.5023632  68.4357405  99.9868488  99.9019527  69.2569447
 111.5494442  58.9854479  84.0765572 111.3432884  58.9773512  85.0112629
 112.3216820  58.4255314  83.9967537  88.3159161  39.8281169  13.3761513
  87.7688122  40.1750278  12.6714778  87.7184772  39.7314405  14.1177428
  41.9569397  12.4184513  49.9973774  41.0191965  12.5258183  49.8381901
  42.0848083  11.4710426  50.0452995  48.3378935  15.0089586  59.0313816
  47.6638460  15.6827080  58.9422178  48.0762291  14.3252790  58.4146595
  99.0892410   1.4857756  51.5088797  99.8128986   1.8066628  52.0470095
  99.0380764   2.1061449  50.7817268  38.7709212  83.8014221  71.0248518
  39.3175125  83.6176586  70.2608490  38.8136816  84.7522163  71.1268234
 108.3199406  95.0783730  61.9236660 108.7970734  95.8980179  61.7942381
 108.7287235  94.6822262  62.6932144  28.0240393  86.6972256  71.9509363
  28.6201715  86.0592461  71.5587091  28.1058836  87.4735928  71.3970423
  88.7739658  29.8801994  58.2773781  88.0124283  30.4567266  58.3399630
  88.5793114  29.1602802  58.8774252  41.2143278  91.6563702  80.0326729
  40.8351851  92.3780632  79.5310211  40.8404016  91.7511940  80.9086990
  98.5230541  29.5773983  22.4763775  98.2713318  28.9660048  23.1685233
  98.6852837  30.4027557  22.9332137 100.1817417  65.0294065  17.2569966
  99.6617317  64.2772579  17.5399995  99.9839878  65.1202154  16.3248610
  67.1175480  73.3411551  14.7404230  67.5578308  73.8239574  14.0409350
  67.8298521  73.0027723  15.2829647  29.7707582  77.7818251  70.6228733
  29.0114927  78.2983017  70.3526831  30.5163908  78.3690166  70.4985094
  87.0660400   2.0098817  75.4598475  86.4877701   2.7220410  75.7330990
  86.5265942   1.4724770  74.8798275  55.0198269  42.0714903  86.0924816
  54.3282175  42.2936535  86.7158222  54.5523643  41.7705536  85.3132820
 115.5051041  62.1074772   1.6152863 116.3548088  61.8630886   1.9820252
 115.3499794  62.9942751   1.9404994  82.6722240   4.7462866  64.1276884
  82.0463371   4.0553683  64.3447733  82.2281933   5.2710623  63.4615993
  47.7073002   0.7891172  40.0967884  47.4724483   0.9510777  39.1830921
  48.5506535   1.2278283  40.2086973  72.8896523  12.0370615  20.6751537
  73.4756947  12.2072947  21.4125872  72.0371294  11.8751132  21.0791492
 106.7384052  28.4302545  21.6613507 106.3214302  27.7305245  21.1586213
 107.4990940  28.0136323  22.0663309  77.8454969 109.3954904  16.8135297
  77.0551280 108.8626906  16.9011247  78.0560036 109.3601079  15.8804345
  96.3547611  84.6350861  67.8496027  95.7750416  83.8757133  67.9088926
  97.1204472  84.3151951  67.3724890  35.9455967 101.2549305  81.4074326
  35.4258108 101.9991302  81.1037540  36.6894102 101.6514683  81.8610096
  18.7079215  15.6430769  58.6320400  19.3144333  15.3180408  59.2974138
  19.2691588  15.8932781  57.8981161  44.3299246  20.4676890  74.8588657
  43.7373018  21.1963844  74.6743822  45.1072359  20.6517076  74.3314552
  64.0455246  72.1222591  13.7902713  64.8726082  72.0443058  13.3147800
  63.5547829  71.3370943  13.5475361  65.9096861  92.2348404   2.1931759
  65.8710957  92.9755783   1.5881467  66.1404037  91.4870930   1.6419266
  65.8772039  59.6033049  31.2768745  65.5464983  59.1763353  30.4865789
  66.2817383  58.8963318  31.7796373 104.9242687  95.9888172  30.5013037
 104.6777344  96.5642834  31.2253881 104.2889214  95.2737522  30.5366564
  34.5109200   2.4849856  89.5609188  34.4677758   2.9685548  90.3858566
  33.7847829   2.8311273  89.0421295  84.0950489   2.6404580  71.2007809
  83.7370300   3.0280679  71.9994116  83.3260155   2.3548779  70.7075644
  48.1950092 105.9996700  69.1007948  47.5333214 106.0197258  68.4094191
  48.9031601 105.4667568  68.7391949  68.6061573  22.5237107  82.9263401
  69.3060398  22.4621177  83.5764217  67.9316378  21.9228649  83.2429504
  80.5869484   1.1874826  49.2660236  81.2391186   1.0320000  48.5828447
  79.8152685   0.7012784  48.9756060  56.8474340  13.2845187  60.8188391
  57.5455427  13.2582033  60.1644850  57.1126842  13.9767814  61.4243507
  76.7421961   8.1492734  81.4798260  77.4568653   8.7067801  81.7875099
  77.1102619   7.2656697  81.4808273   8.5471547  99.6197224  64.4210339
   8.1011146  99.7022343  65.2639294   8.8475072  98.7111855  64.3969202
  72.6828527   5.5213577  72.0971012  73.0968666   5.2826154  72.9264545
  72.4968433   6.4564019  72.1826935  30.1376605  24.5722246  89.2066002
  29.9055481  24.2333484  90.0711918  30.2827978  23.7902927  88.6739254
  74.2288637  36.6869426   2.5514066  74.3001366  36.2367892   1.7096750
  74.9105263  37.3583055   2.5224519  56.1236382   7.4566895  64.3181419
  56.7291594   6.9960588  63.7372828  56.0104752   8.3165121  63.9130116
 107.4452019  39.2746711  17.3044586 108.1558609  38.7824535  17.7154553
 107.4145889  38.9460087  16.4059734 107.3666477  32.5860834  14.7320402
 106.8080425  32.1610641  14.0812337 107.2073746  32.0978951  15.5398381
  75.0193644  22.1954417  68.7453461  74.1761494  22.6167178  68.5787773
  74.8691320  21.2714863  68.5454226  41.6676188 108.8487720  85.6084442
  41.4839888 109.7543335  85.3584957  42.0042133 108.9106083  86.5023804
  32.6329565  89.2231846  47.3999023  33.4919357  89.2754555  46.9807959
  32.7942634  89.4756413  48.3090115  71.6711998  46.5904617  11.5542996
  72.0242357  47.1322012  12.2600710  70.8951187  47.0637369  11.2543905
  60.5797148  89.9364758  83.1467724  59.6494007  90.1568985  83.1931877
  61.0304260  90.7695389  83.2849789  42.3889923   8.9186043  87.1802616
  42.2924042   9.0887213  88.1172562  41.5502977   9.1817552  86.8013477
  27.8642321  90.9863377  84.5912933  27.2152686  90.3187084  84.3691349
  28.6338210  90.7546520  84.0713978  13.5648274 100.8716679  82.3313713
  14.2343938 101.5042782  82.0711517  12.9925084 100.8007622  81.5673923
  77.6698971 100.7308006  54.8999643  78.1142235 100.5842018  55.7350159
  76.7506123 100.8545017  55.1362848  71.3213158  81.7618275  38.2434773
  71.2603331  82.3297501  37.4753761  72.1826935  81.3509369  38.1697631
  80.3399849  32.4232125   4.2267981  81.1900997  32.3085451   4.6515152
  80.3690338  31.8370628   3.4706131  72.3468828  27.8255343  79.0438414
  72.5849771  27.5068665  78.1732130  73.1322622  27.6861405  79.5729733
  34.3029356  83.0568218  70.8483362  33.3676457  83.1290627  70.6579542
  34.4045758  83.4650230  71.7081451  55.9896088  35.0164771  82.8009987
  55.2101469  34.8118520  83.3175278  56.6828918  35.1349258  83.4502792
  83.1065464 105.8154964  80.6005764  82.5973320 105.6318855  79.8111391
  82.6282787 106.5215588  81.0352707  69.0551233  13.3154881  59.6678925
  69.4360256  14.1503751  59.3956614  69.4781971  12.6650882  59.1073418
 114.4885349  70.5486250   9.6359515 113.9602375  71.0796976   9.0400571
 114.5267105  71.0610533  10.4435337  63.6690187  33.3508706  57.1954584
  63.1700611  32.9096699  56.5079927  64.4632244  32.8250051  57.2900057
  58.9113855   2.4398689  85.9089851  59.0599585   2.5145602  86.8516350
  57.9592705   2.4653338  85.8138275  30.5377221  81.3687611   6.8849826
  30.3511047  81.7417717   7.7465349  29.6925473  81.3691616   6.4356369
  45.6373930  99.6812725  66.0203695  46.5223360  99.5206261  66.3479328
  45.2434683  98.8111210  65.9579563  15.0895369  92.7379608  78.6792278
  15.8282995  92.2616196  78.3003378  15.4917884  93.3652020  79.2800570
   7.2687483  91.9615364  76.6354799   8.1673247  91.8326759  76.9391060
   6.7537248  92.0410919  77.4383831  99.2674732  68.1338549  40.5752707
  99.6594429  67.5187492  39.9553990  99.9206161  68.2234144  41.2692547
  91.3734245  12.7492285  90.9267998  90.8964539  12.7162087  90.0975609
  90.6894588  12.7558243  91.5964222  96.0851955  13.4425962  93.6737728
  95.2112293  13.7539744  93.9092922  96.0935974  12.5246966  93.9451027
  56.7005920  11.4321268  89.8539734  56.4765596  12.1587968  90.4353428
  57.5292015  11.0975885  90.1970768  57.0892096  28.3766532  56.3398170
  56.4488316  28.0617070  55.7018805  57.7395248  28.8441110  55.8156013
  21.2854218 103.4360790  64.6510649  21.3590312 104.0374947  65.3920794
  21.6687489 103.9140606  63.9156580  25.9990001  91.3730431  57.5912285
  25.5900025  90.7147121  57.0294905  26.9261861  91.1355019  57.6026726
  59.0521860  26.8239284  86.4619255  58.2011795  27.2287369  86.2941265
  59.0166616  26.5645695  87.3826313 103.2567406  35.3605533   7.5969064
 103.2273865  36.2922835   7.8142715 103.1101227  35.3304338   6.6514814
  65.1748180   6.7456985  70.4629898  64.8712730   7.3781991  69.8118114
  64.4584417   6.1151171  70.5364990 104.2589760   3.1919396  56.7001724
 104.3960762   4.1380656  56.6524076 104.1597939   2.9179680  55.7883978
  80.6333828   3.0654353  64.3923283  80.4499054   2.1263261  64.3670082
  79.8754120   3.4690511  63.9694738  92.3703957  27.6370692  88.5357666
  93.0595493  27.6456738  89.2000198  91.5662384  27.8175449  89.0225887
  39.0174532  30.7128119  86.3705063  38.5510421  29.9317074  86.0729027
  39.6899462  30.8582997  85.7050610  70.8563375  23.6211324  45.4271698
  70.0121593  23.6313963  45.8782673  71.1258507  22.7028155  45.4441929
  54.5793867  14.1359901  47.1020746  55.4690027  13.9160120  47.3785114
  54.2606735  14.7362924  47.7760839  17.5330555 101.4355659  88.9041424
  17.2163951 102.1484089  89.4589424  17.6912832 100.7121658  89.5106792
  73.8383818  15.3541648  89.8563671  73.0888653  15.3609681  90.4516888
  74.4105482  14.6677685  90.1994705  87.7654171  59.6401691   6.3623172
  86.8222809  59.7043371   6.2119567  87.8446198  59.3860388   7.2817612
  40.7210827  37.7423620  78.8566875  41.2385130  38.1027389  79.5768452
  41.3411570  37.6648331  78.1316185  94.6589756  41.9293547   5.2132666
  94.4173431  41.4680624   6.0164207  95.0942326  42.7261496   5.5164069
  19.3990779  17.2848988  13.9056492  19.6355581  17.4160111  14.8238635
  19.3142807  16.3359451  13.8133085  68.9135981  67.1891308  21.3541269
  69.8133802  67.3630619  21.0777593  68.5238409  68.0568504  21.4608216
  51.5113449  65.8793879  91.0451221  52.0372105  65.0834560  91.1237812
  52.1462822  66.5671444  90.8449173  68.6410570   6.3262719  93.3811569
  68.8703728   6.0090131  92.5076580  69.3846846   6.0763657  93.9296055
   1.1741245  45.4733610   0.0470736   0.2916103  45.1645470   0.2520936
   1.7537701  44.8484564   0.4826586  78.6564732  15.5875564  50.9620380
  78.4471369  15.6154215  51.8956518  79.1049242  16.4159954  50.7923031
 111.9312000  65.0145102   7.4770260 112.8530979  65.1883936   7.2870409
 111.9443607  64.2387438   8.0376053  66.7758608  22.8610468  74.0594530
  67.0203829  22.3005533  73.3230495  65.9297276  23.2312775  73.8080311
  40.4558134  14.1760707  86.6968822  40.2776909  15.0744414  86.9751549
  39.7168088  13.6698425  87.0342731  72.8947306  30.7118559  79.7888279
  73.2468891  30.6533360  78.9006901  72.2464275  30.0092244  79.8361969
  75.4437208 103.7948608  24.6125793  75.9200954 103.5189724  25.3956389
  75.8389282 104.6336460  24.3748999   2.2598135  74.8606491   2.7161261
   2.9420671  74.4057226   3.2098889   2.6878765  75.6520414   2.3894897
  25.1402879  21.7069864  65.6738138  24.3077040  21.2546897  65.8096838
  25.5598974  21.2269759  64.9598455  49.5613337  99.9788666  76.8663263
  50.5029917  99.9972343  77.0371485  49.4321012 100.6202888  76.1676788
 103.7852859  52.3752022  32.7033377 103.4059334  52.7302742  31.8994379
 104.1772366  53.1325674  33.1380868 108.7757587  96.8268204  27.7825904
 108.9894104  96.8781853  26.8509531 109.0605545  95.9516716  28.0457330
  77.7220869  35.1332831  88.5053921  78.1627274  34.8106694  89.2915154
  76.8641090  35.4244351  88.8141632  60.7623672  30.3519130  70.7843018
  60.2110958  30.3694153  71.5666246  60.4885912  29.5632744  70.3159761
  93.5861301   9.2547315  89.3304443  93.2350540   8.4263545  89.0036869
  94.5048141   9.2481333  89.0617275  15.9134662  59.0335083  15.9056044
  15.4418826  59.0127277  15.0728917  15.2579081  58.7876511  16.5583146
  36.8474412  16.5783155  78.9162779  36.8917847  15.8475459  78.2996416
  37.4409938  16.3300288  79.6249962 104.8840904  69.1712236  20.8257699
 105.0618172  70.0195885  20.4196668 104.2501354  68.7544250  20.2421498
  20.8553910  26.6740131  82.3592758  20.3827190  26.3466597  83.1245613
  20.4205513  26.2597656  81.6139317  65.7751560  89.9065781  77.3570251
  66.1881638  90.7700825  77.3613882  64.8781252  90.0686455  77.6490927
  66.8258476  18.5933781  81.5539455  67.3555470  18.7600172  82.3336220
  67.3405266  18.9557076  80.8327961 111.2698555  47.6077700   3.3210653
 110.3473854  47.5983429   3.5763639 111.6468334  48.3378029   3.8121536
  61.0091972  35.6105757  83.5641956  61.2571669  35.2860022  84.4298744
  60.9086323  36.5551209  83.6823082  77.3810053  96.8245316   0.5974434
  77.1515369  97.1374035   1.4724779  77.8365183  97.5619125   0.1912393
  40.7741213 103.8714695  72.9144669  40.7692242 103.5312557  72.0197821
  40.5415630 104.7952461  72.8207159  62.2377491  76.1622667  80.5217266
  61.6991425  76.6026068  79.8642778  62.3337030  75.2683735  80.1931286
  85.4166508  22.7350378  68.1274891  84.5041466  22.9366374  68.3346987
  85.9163094  23.4448791  68.5308409 107.4357319  36.8243885  21.7938471
 106.5671635  37.2215939  21.8575358 107.6877022  36.6527152  22.7011871
 110.2320480   3.5755944  87.4808216 111.1234379   3.8215545  87.2335148
 109.7708893   3.4772262  86.6478252  84.4471550  97.4600506  14.6996975
  85.0846863  97.3325825  15.4022193  83.6948395  97.8665447  15.1298296
  71.0708904   0.3772506  69.9355221  70.4812193   1.1106794  69.7605991
  71.5370035   0.6295163  70.7325983  77.0861006  16.6855431  89.4453430
  76.1422634  16.7585802  89.5870018  77.2368383  17.1213734  88.6065578
   1.0764387  99.8214817  40.8564091   1.1748152  99.0349388  41.3929701
   1.4254442 100.5276203  41.4002800  75.5902052  41.3993311  84.0609741
  75.1340532  40.7230091  83.5602283  75.3195810  42.2222757  83.6538506
  29.3513584 101.9488716  31.8694544  28.4705067 102.2939396  32.0152664
  29.8585343 102.2628021  32.6180863  24.2475390  72.3119783   8.4436756
  24.5577979  71.7739439   9.1720229  25.0250173  72.7851534   8.1472588
  30.3112102  14.5988965  92.6393604  31.2284923  14.4282997  92.8531837
  29.8456264  14.4763076  93.4666634 105.4506779  20.7973218   0.5424549
 105.9721375  21.5119338   0.1768829 106.0944271  20.2073050   0.9344926
 109.4563198  99.4045067   0.4600887 108.7448025  99.8076248   0.9575510
 109.1113853  98.5511398   0.1973934  50.2394867 106.6991520  79.7022247
  50.5742502 106.1493874  80.4106903  49.3428755 106.3933849  79.5650196
  40.7753897 106.2825775  88.2318783  40.1439810 106.8042660  87.7365017
  41.2679911 105.8053207  87.5642014   0.5755205 104.5162487  15.9128046
   1.4218283 104.4077682  15.4789531   0.7019791 105.2599812  16.5019596
  92.1644688   8.6855447  94.5410538  92.7864456   9.4057024  94.6447277
  92.0509911   8.6014980  93.5943222 111.2647915  50.4527617  21.3198161
 110.9599972  50.4888916  20.4131579 110.5993080  49.9376106  21.7758679
 101.2843895  37.8879762   5.7083529 100.3613186  37.8104734   5.4671901
 101.2912273  38.5154748   6.4311457  51.5416622  22.0098948  54.7093678
  50.8197546  22.0705533  55.3349924  52.2956085  22.3676467  55.1782084
  19.6626461  52.5998497  16.3091660  19.3007302  52.2418261  15.4985702
  19.2095482  53.4349632  16.4254403  61.3721514  18.9014733  76.0865736
  61.6125154  19.7837305  75.8035946  60.5188942  18.7443852  75.6822205
  85.1563072  20.6817126  75.1841021  86.0806656  20.4615235  75.0687170
  84.6971893  19.8477387  75.0844526  35.0761843  42.5934315  74.2404509
  34.3709946  42.1757555  74.7349024  34.7711825  42.5832653  73.3332014
  83.5174847   9.9158531  66.2441349  83.8643456  10.7246280  65.8675623
  84.1953754   9.6258765  66.8545532  10.2964103  13.8403034  75.9086132
   9.4120914  13.9793777  76.2475395  10.1979923  13.1411660  75.2622747
  71.7791843   3.1943184  90.8757591  72.2837591   3.1229860  90.0654793
  72.3657131   3.6435130  91.4843941   2.8548840  63.8438749   0.6175510
   2.5526044  63.3532190   1.3818273   3.1273362  63.1711721  -0.0065269
  65.4827547  96.1023235  21.4865518  66.1984873  96.0546589  20.8527589
  64.8555994  96.7098427  21.0943556  68.0011797   2.8600642  65.6679916
  68.7755537   3.0634767  65.1433945  67.5279665   3.6899227  65.7282639
 112.7917957  62.7865124   9.4807810 112.0124531  62.7312946  10.0337839
 113.3866787  62.1275902   9.8387808  20.2542520  77.9198503  16.0596633
  20.7657933  78.7164497  15.9182775  20.9043622  77.2174835  16.0760140
 107.2418213  77.9595232   2.8762010 108.0424404  77.4415970   2.7926075
 107.2816563  78.3208418   3.7616915 107.9974079  50.6338930  72.9349184
 107.6456165  51.3778210  73.4238434 107.8580284  50.8636045  72.0162058
  49.7628832  37.1917915  91.1236858  49.5427847  37.7117968  91.8965912
  49.7961521  37.8274965  90.4088402  64.1526508  90.7025814  80.4088497
  63.7625170  89.9768448  79.9216843  64.5380878  90.2917957  81.1827469
  48.1437492  13.0396211  78.0208063  48.1186914  13.9933741  78.0980015
  47.5769472  12.7272677  78.7260723  61.7272711  23.3733511  92.1366787
  62.2072935  22.5528955  92.2492027  61.0291624  23.1594539  91.5177059
  31.2075067  16.8848825  83.7515736  31.2095666  17.8041172  84.0184689
  31.6695571  16.4299953  84.4557095 114.3863964  77.0349741   0.1085636
 114.7193146  77.7140808   0.6952605 114.9670887  77.0694256  -0.6515929
  45.6761408  30.8873391  34.3561125  45.5606794  30.3504539  33.5721135
  45.8963203  30.2606153  35.0452948  94.2867470  85.2656555   4.9318644
  94.4303703  85.0585175   4.0084505  94.4652367  86.2037849   4.9974567
  33.6971998 109.1045666  89.3927383  33.3726573 108.2914448  89.0057755
  34.0019870 109.6201897  88.6460972  11.9905245  60.8972740   1.8590422
  12.8562200  61.0936165   1.5009198  12.1649694  60.3292656   2.6094860
  48.7535477  21.8324256  92.9729652  49.1755056  21.0490990  93.3259296
  48.3758545  21.5468144  92.1410942  35.0823021 108.9249611  82.9164124
  35.4624724 109.6067333  83.4703922  35.3292036 109.1745853  82.0259285
  33.5985112 105.2092743  70.1061726  33.5751867 104.7776985  69.2521095
  32.7247691 105.0671196  70.4703093  12.7203429  81.5279579   2.0014594
  12.6490486  82.3867035   1.5846640  11.8970704  81.0889053   1.7877306
  55.8294439   1.2851927  92.5243092  54.9878359   1.0706548  92.9266834
  56.4226770   0.5987012  92.8293324  37.4188852  65.5665207  59.1193485
  37.2301126  64.7724342  59.6193647  36.7541313  66.1931753  59.4050789
 101.9489384   6.1456573  65.1797342 101.8191051   5.3295130  65.6627274
 101.0680580   6.4091820  64.9135828  68.8742638   2.6509652  88.4988785
  69.3134832   3.2463562  89.1061974  68.3492994   2.0804933  89.0603161
  75.4111004  93.0547905   0.3659093  76.3606548  92.9594517   0.4400286
  75.2599430  93.2321930  -0.5624813  10.3482902  95.2459526  72.6383352
  10.8612514  95.3172970  71.8333387  10.7011414  95.9290600  73.2085133
   1.1753878   0.7188322   1.4793767   1.2799636   1.4770500   2.0541821
   0.6753781   1.0507385   0.7336821  96.5743351  16.6594374  88.4418488
  96.4413357  15.8722687  87.9137325  97.5166512  16.6794419  88.6088276
  78.8121986   5.8961809  84.2401695  78.7234116   6.8476647  84.1851521
  79.4871855   5.7566208  84.9043655  40.9020805   6.9824874  93.9816856
  40.1916361   7.6190877  93.9026737  40.7023191   6.3176268  93.3226776
   0.7514755  15.3751385  52.1651030   0.4400807  16.2771034  52.0894432
   0.1025452  14.9435401  52.7208424  69.2371655  14.8585308  43.2808352
  69.0507889  14.9456620  44.2156649  69.4416714  13.9309084  43.1628227
  66.9518471  11.1859345  86.8268394  67.4320173  11.0680747  86.0072231
  66.3133192  11.8724012  86.6337585  38.9298153   8.6302644  66.7542648
  39.3035364   9.3670517  66.2708330  39.3429351   8.6753333  67.6165485
  87.6612282   5.6492698  94.1013527  88.3859158   5.7874930  93.4914780
  88.0321026   5.8438206  94.9620628 106.8365002  74.4457102   6.5417010
 106.6698074  75.3880262   6.5196776 106.3369083  74.0967941   5.8035249
 113.4267044  24.2083383  62.6531410 112.8441715  23.4827232  62.8775740
 114.2378521  24.0189552  63.1247425  36.5997458  24.6259212  59.3102741
  36.8564677  24.2264485  58.4791613  35.8515644  25.1802707  59.0885687
  77.2247219   7.4177629  93.5672760  76.3618946   7.7361572  93.3019638
  77.1321678   7.2242266  94.5001221  77.0810604  42.4220467   4.1048265
  77.0379257  42.5419998   3.1561527  77.0862436  41.4725876   4.2261997
  74.2421675  14.4576216  67.0255899  73.9902592  13.6105728  66.6577864
  74.5506096  14.9631083  66.2735415  58.5884428  85.8982372  71.1586237
  58.3836937  85.4421616  70.3423500  59.5423317  85.8541298  71.2248611
  32.5071859  84.3834305  74.1359711  32.3324013  85.0629616  73.4848881
  32.2494316  83.5679245  73.7061453 100.3505325  72.5614119  53.2352924
  99.6799088  72.8995323  52.6418591 101.1525440  72.5570440  52.7128029
  69.9864006  22.5750971  75.5064678  70.0105095  21.8126535  74.9282551
  70.5008888  23.2395816  75.0482130 110.2173042  70.6254101  17.7272189
 110.3248405  69.9661732  17.0415986 109.3439579  70.4609108  18.0827963
 113.5118484  76.9263792  27.1341419 114.4515896  76.7964554  27.0067620
 113.3145428  77.7321005  26.6565275  22.4195576  65.2497721   1.7224714
  22.8861523  64.5375586   2.1598163  21.7114282  65.4776525   2.3248470
  49.1526079  91.0856247  13.0542219  49.4399881  91.9384193  12.7280641
  49.0441275  91.2137604  13.9965832   0.6752783  90.7436657   3.9047208
   0.6012543  91.5046024   4.4806832   0.2120763  91.0007572   3.1074876
  67.4363041  21.0509515  53.2260275  67.4915886  20.6877017  54.1098976
  67.7176285  21.9607282  53.3229446  70.9083033  24.5900583  89.8457241
  71.2069035  23.7035656  90.0487041  70.2663183  24.7885180  90.5274105
  50.1963043  27.1078801  71.8868637  50.8796453  26.9099569  72.5272608
  49.7491264  26.2730241  71.7480040  79.1168404  30.8613539  93.4487343
  78.5015106  30.5612063  92.7797699  78.6245441  30.8085990  94.2679405
 115.6741428  80.1615620   3.7419927 115.7006073  81.0322571   3.3452225
 115.9986115  79.5764542   3.0574578 105.9762955  52.8375435   1.6943440
 105.5933952  53.7070894   1.5781257 106.8104267  52.8786850   1.2266206
  43.4419012   2.8320286  74.3130445  43.1329727   3.7379819  74.3063784
  43.6864328   2.6556689  73.4045696  57.6867247  32.5579286  92.3615551
  57.4266624  33.4654760  92.2035694  57.7945471  32.1839786  91.4870453
  62.2348642  39.6668768  69.4877148  62.3404789  39.7647953  70.4340172
  61.5596437  40.3041267  69.2548609  59.6176624  27.3836470  77.4843502
  60.4321384  27.3601341  76.9820499  59.2251396  26.5218806  77.3446465
 103.5748577  76.3112831   5.6672102 103.7555599  77.1782732   6.0303956
 104.1538048  76.2442589   4.9078998  79.4471645  18.6946297  61.0607004
  78.6132812  18.2997549  61.3155413  79.4609356  18.6298704  60.1057959
  41.8554878   9.5635784  81.5081215  41.8341970  10.0977719  82.3021126
  40.9772110   9.6502602  81.1375046  84.6650410  31.0643482  76.4566040
  84.4973087  30.9899783  75.5171490  84.2867279  30.2688479  76.8311548
  22.7225161 106.9823933  71.4496613  22.5817442 106.4029026  70.7009268
  22.6353908 107.8648567  71.0892439 103.3558464  60.5293369   5.0553912
 102.5777721  60.9876728   4.7379705 103.8013935  60.2352667   4.2608845
  18.0560529  21.6607380  70.1247787  17.8021848  22.5797415  70.0398445
  17.9716647  21.3061595  69.2396879   4.1992071  21.7821407  84.6700287
   4.2096072  21.2241888  83.8923359   3.2823965  22.0391607  84.7681618
  98.5301781  44.5690346  12.4049866  97.8860378  44.9930525  11.8379545
  98.0094433  44.1673422  13.1004763 101.3640785   3.2653546  88.2908440
 102.0481586   3.5859212  88.8786316 100.5586910   3.6636570  88.6209106
  47.3984241 106.1173630  63.5717726  47.5330400 105.9802341  64.5094872
  47.2650194 107.0611858  63.4844494 102.8463268  91.7917919   4.7570857
 102.8445625  91.4540958   3.8614345 102.2239971  91.2345123   5.2243954
  40.1963377  96.1351967  80.6222153  40.4370928  97.0599651  80.5668640
  40.2768707  95.9219646  81.5518761  76.7920351  36.2457395  86.0131454
  77.2022104  35.7447720  86.7181396  75.9828472  35.7715702  85.8218098
  42.5144768   0.1089569  84.2853260  43.3089066   0.5023200  84.6464062
  42.7198553  -0.0416949  83.3626461  87.1153736  66.9178915   3.7484369
  86.8118668  66.9599056   2.8415993  86.6602802  67.6368523   4.1868681
  77.3211956  17.1984816  75.9518814  76.7947960  16.4424050  76.2116575
  76.6888714  17.9116690  75.8637667  31.9939947  33.5977912  92.0224380
  31.5187693  33.3395600  92.8121948  32.9031920  33.6865902  92.3082829
  73.4459496  83.4555912   0.6102589  73.7260723  83.7074566  -0.2697027
  72.7082586  82.8628731   0.4663165 108.6643124   9.2836040  72.6814079
 109.3971157   9.1074616  72.0913219 108.9655399   8.9752650  73.5360527
  11.5791786  13.5469210  87.2247696  10.7854879  14.0704274  87.3353481
  11.9192529  13.4370136  88.1127453 109.7342396  25.2531934  74.3006897
 109.9575043  26.1020684  73.9188528 108.9338398  25.4178476  74.7991610
  50.9561348   2.2580847  14.0836453  50.8651829   3.2088679  14.0206325
  51.8152428   2.1257024  14.4844484  13.8655698 100.5408192  91.0168076
  13.1677985 100.3439426  90.3918362  14.0596187  99.7003460  91.4317513
  90.5377960   0.5368629  88.6220837  91.2893391   1.1202215  88.7274742
  90.5658531  -0.0313696  89.3918514  49.5681620  37.2966743  81.2671375
  49.0932989  36.7745638  80.6204987  49.0757990  38.1156993  81.3219547
  79.5600891  13.8396025  68.6762524  80.2586651  13.1893706  68.6026239
  78.9126110  13.5703516  68.0247068   5.5153692  55.6896114   0.0700088
   5.5746144  54.9961090  -0.5870889   6.2637031  55.5373240   0.6471024
  93.6987114   5.6127203  44.9415350  94.0039444   6.3848788  45.4178095
  93.4045315   5.0105470  45.6249619  50.9654808  27.5712633  46.2139845
  50.6634760  27.4812174  45.3101492  50.7503033  26.7330503  46.6230440
  87.0038414  22.5067425  76.9511127  87.1856499  22.2884798  76.0370350
  87.2352123  21.7151332  77.4369669  75.8381319   8.7104547  85.4193115
  76.7821264   8.6172169  85.5474472  75.7377815   9.5581752  84.9862671
  96.9422913   7.8777057  84.7550106  97.3539829   7.9225290  83.8920403
  96.9821167   8.7748742  85.0862789 102.1870422  11.0336268  62.7775002
 102.1666050  11.8176806  62.2287989 102.1440887  10.3059471  62.1571207
  86.5182114  11.6084397  59.6932364  86.4189720  12.5097990  59.3867445
  86.0860062  11.5968895  60.5472231  69.2095423  18.7071097  92.0450878
  69.3265247  18.1137490  92.7870274  68.3172369  18.5388780  91.7422390
  78.6995649  15.1785815  58.3565807  77.9870224  14.5915639  58.6094141
  78.2809925  15.8398163  57.8054047  63.4956264  21.5743971  72.5345278
  63.7571859  22.4951220  72.5437593  63.9933014  21.1768484  73.2490253
  34.3456626  76.3380575   2.3741060  33.6678100  75.6951714   2.5825489
  34.5281053  76.7724562   3.2073191  31.9803548 107.5862408  43.7418890
  32.0823622 107.0127010  42.9823637  32.7775288 108.1160259  43.7507486
  92.5113583  67.7230835  30.6927419  91.7630386  68.3102417  30.7999873
  93.0495167  67.8766584  31.4692926  84.6619892  28.2825637  89.6864796
  84.1917896  28.6227250  88.9252758  84.3009377  27.4060297  89.8189831
  89.5260239  66.4463377   2.6916340  88.6475945  66.3761520   3.0653417
  89.7092533  67.3858166   2.6852784  80.8379555   4.0747640  72.4811316
  81.6189384   4.6152574  72.3621225  80.1489258   4.5422417  72.0089722
  76.7048025  13.1362891  81.6405964  77.5314665  12.7817392  81.3132477
  76.9114304  14.0381384  81.8859673  32.5452352  41.6323471  64.8688650
  32.7413535  41.0935402  65.6353235  32.2515726  42.4677992  65.2322054
  25.2539444  85.4468250   2.7485892  24.7483063  85.1655769   1.9860524
  24.6337891  85.4035282   3.4764385  55.3602648 104.9126816  72.4733782
  55.4480934 104.2232990  73.1316090  55.9894657 105.5820656  72.7421904
  57.9979467  85.2266312  86.9837189  57.7117872  85.3241444  86.0755157
  57.6415443  84.3815613  87.2577095 115.1699924  64.9213123   2.1004927
 114.4382763  65.0291443   2.7081114 115.0683498  65.6375551   1.4736773
   1.5853330  54.8865128  34.8815417   2.1882166  54.2586470  34.4833636
   0.7307180  54.6659708  34.5111012  22.7164531  81.3264275  18.4072816
  23.5513830  80.9046078  18.2043314  22.7629232  81.5105247  19.3454623
 108.0405903  67.9734707   1.5853503 108.3369064  68.8076067   1.9495524
 107.7385044  67.4745512   2.3443303  99.1255951  31.0691023  41.3039732
  99.7465801  31.7795873  41.1433125  98.8928509  30.7524729  40.4311562
  90.0440502  16.2693155  73.2867718  90.4316807  16.3895190  74.1536760
  90.4425716  15.4644501  72.9557133  48.0911112  14.8226380  91.1542606
  48.7592220  14.8927283  90.4723930  47.2602844  14.8673701  90.6810188
  54.5124674  15.9212720  79.8453712  53.7178230  15.5062401  80.1808071
  55.1730967  15.7515609  80.5169392  64.2369318  12.7998710  89.1234303
  65.0754356  12.6088881  89.5437527  63.7555885  11.9734347  89.1627121
  84.6710396   0.1551322  81.4486313  84.0751839   0.7585000  81.8926239
  84.2140007  -0.0825171  80.6418705  50.9882212  20.9923625  78.9975834
  50.9499598  21.7375755  78.3980608  50.0742722  20.8196545  79.2236376
  65.4081249   2.2527441  79.9641657  65.0500441   2.9661584  79.4359159
  64.8998785   2.2766256  80.7749367   1.2613808  23.0820918  60.5533409
   1.5741824  22.6492524  61.3477182   1.6501355  22.5792146  59.8376465
  83.8355350  18.5444391  62.5821161  84.5581150  19.1623569  62.4712610
  83.1828117  18.8213432  61.9390726  91.3129711   6.5439063  59.9440527
  90.4970455   6.6827714  60.4248953  91.5315723   7.4056566  59.5893192
  88.5367680  10.6155849  75.0340414  89.2812443  10.2811337  75.5341721
  88.5409355  11.5583038  75.1998615  60.2686691  99.9383354  64.4374895
  59.5979929 100.2218437  65.0588179  59.8323965  99.9639702  63.5858774
  98.8644600  68.3022261  30.8778071  99.0299606  69.0524197  31.4488196
  99.4240379  68.4530354  30.1159954 102.2263622  45.1091862   0.2049152
 101.6891479  45.2745914   0.9796881 103.0124187  44.6819639   0.5452527
  38.4632659  23.4432435  73.9212370  38.4191823  24.3489385  74.2278385
  39.3783879  23.3200216  73.6690521  64.3410969  16.4088082  49.7002649
  63.6005831  16.9377828  49.4035196  64.7850513  16.9589353  50.3456306
  50.8270073  25.0290561  76.0705376  51.4972258  24.3498373  75.9950161
  50.0705862  24.6719313  75.6052208  53.1506062  25.0873995  72.9420519
  54.0759039  25.1826835  73.1678295  53.1439352  24.4609523  72.2183418
  79.8671103  19.7686815  69.0361214  80.1945591  20.0635290  69.8858738
  79.7187614  18.8298380  69.1492510  65.8451223  26.3596702  77.2244120
  65.9556580  27.1637154  76.7169428  65.4897261  25.7284760  76.5986919
  78.2207870   7.7751184  51.8073750  78.7466526   8.4668404  52.2088909
  77.4327087   8.2220799  51.4985228  56.3600683   1.1112998  31.3494420
  56.6536951   0.3332494  30.8754683  55.6520367   0.7964300  31.9113874
  60.0928497   2.4420114  66.8660545  60.2124643   3.2744816  66.4089775
  59.3165731   2.0555940  66.4607096  79.8736095  17.6396310  54.3210125
  80.6348515  17.0639038  54.2484093  80.0919151  18.3952868  53.7755203
  74.0776539  67.5519609  10.6551695  73.6221838  67.4128437  11.4854860
  74.3491793  68.4694576  10.6817245  69.4376898  11.9065082  94.0580940
  70.3576279  11.6420376  94.0563965  69.3626881  12.5077200  94.7991467
   0.8397242 107.9378319  88.2095242   1.4295056 108.5172462  88.6918926
   1.1717105 107.9515457  87.3118496  55.9554720   8.9198047  86.0120010
  55.2820349   9.3896204  86.5039253  55.8917189   8.0162948  86.3215733
 111.9067383  15.2875578  73.2131386 111.9911098  14.5126605  72.6575804
 111.0053635  15.5808151  73.0798817  34.8169613  83.4160709   2.3801830
  34.1909885  83.8310337   2.9736468  34.3606877  83.3774471   1.5396151
  72.1424770 104.4076633  65.6674385  71.8960476 105.0416183  64.9939394
  72.1573734 103.5665894  65.2107048  68.6127377 100.6657505   2.0708862
  68.3314562 101.5725040   2.1930195  68.3769178 100.4616547   1.1659185
  72.8274107   4.3825814  78.5931635  73.1780529   3.7692609  79.2390156
  73.5712719   4.5836735  78.0253029  88.2388592  28.3185005  63.3124256
  88.4436131  27.4223280  63.5792351  88.9858055  28.8350344  63.6149168
  91.7998886   3.2512337  82.6136208  92.3280048   2.4564627  82.6888657
  90.8963013   2.9474443  82.7000237  24.3644285  82.6287365   3.9100465
  23.8496566  82.3782349   3.1429154  23.9397407  83.4228039   4.2345837
  75.6668472  90.5214310  12.5057352  75.9584188  91.1000633  11.8011737
  75.7422256  91.0525417  13.2984996 110.5108738  44.7160864  19.1332364
 111.1616898  44.2746687  19.6789610 109.6737099  44.5227861  19.5551658
  46.5206528   2.9878801  77.0696354  45.8115244   2.5148433  76.6341972
  46.2226009   3.8971749  77.0937157  82.6659679  16.6277182  86.6896915
  81.8185425  16.1832976  86.7139721  83.1425571  16.2758982  87.4415684
  16.2760496   5.0842029  75.2898598  16.1796093   6.0041559  75.5360651
  15.7508230   4.6078461  75.9328604 109.2177105 105.9955215  40.3835058
 110.0850010 105.7360172  40.0725412 108.8132954 105.1783085  40.6748009
  86.7518044  22.5497770  83.0893230  86.4811707  21.6332865  83.1444645
  87.7081394  22.5161576  83.0665112  13.8201833  30.9290600  38.2194901
  14.2840707  31.5645456  38.7646484  13.8979411  30.1026297  38.6961460
  24.1156173  77.6537085  18.0400443  23.7862492  77.1653032  17.2855854
  24.2072201  78.5520124  17.7224052  12.6572359  77.2689342   8.5514873
  12.8641295  77.0869541   7.6348037  13.3932161  77.7956676   8.8631260
  77.1812820  11.9745588  77.7781868  76.2409449  12.0601308  77.6210833
  77.4194431  12.7741110  78.2474709 105.7859230  53.3368397  25.2070975
 105.4567432  52.6681614  25.8077168 105.6548023  54.1626835  25.6729507
  28.8206506  66.9406557  32.9641557  28.6829162  66.1257029  33.4469724
  28.1431866  67.5314188  33.2932043  36.5764260 106.0396671  68.3323669
  36.3259721 106.5510464  69.1017723  35.9146953 106.2557507  67.6753664
  19.1316104  79.7544575  25.6161952  19.5564544  80.4524136  25.1175976
  18.2759237  80.1140022  25.8502007  45.5948257  16.3792145  77.9969120
  46.0829878  15.8641303  77.3545599  44.6763563  16.2460923  77.7625656
  97.4129200  11.4696407  81.5116501  97.9348850  11.5344894  82.3113823
  96.7214012  12.1219766  81.6234207 111.7831516  77.3219633   7.0227265
 112.0038223  77.5647736   6.1235178 112.6261234  77.2855330   7.4747252
  81.0072803  27.6842856  75.7505035  81.5110588  28.4895182  75.8689928
  81.4051628  27.0611787  76.3584995  39.2134571  12.1127772  21.7614365
  39.5575786  11.4124656  21.2070227  38.3075094  12.2234035  21.4728999
 115.6210327   7.9920185  90.4970646 116.2725353   8.2250607  89.8356533
 114.8005104   7.9187036  90.0096321  35.6966019  18.3383024  90.0946617
  36.5758467  18.0842602  90.3750515  35.8102036  18.6386597  89.1929340
  80.7843494  15.4600894  91.9680500  80.3888702  16.3300741  91.9137287
  80.3738880  15.0577593  92.7334690 115.3242493  91.0137177   1.3488483
 115.5407715  90.3561401   0.6878418 114.4284630  90.8027744   1.6121067
 107.2551727  20.8418655  90.2880859 107.7734280  20.2053475  89.7956467
 106.4017868  20.4223990  90.3977299  94.7451019   4.4555014  63.0997181
  94.0425014   4.8071855  63.6464310  94.9966621   5.1855469  62.5340462
   9.4297737  78.1987047  44.2646170   8.5871160  77.7572680  44.3708849
   9.4667494  78.4236813  43.3349657 110.5521584  89.0678883   4.5301279
 111.0320282  89.3311977   3.7448713 110.1658154  89.8798656   4.8582515
 104.4007683   0.6585652  81.9386768 104.5488834   0.1963170  81.1136818
 103.6503887   1.2264746  81.7636395  45.4680157  72.8067589  10.3333914
  45.8925295  72.2492743   9.6812940  45.8687544  73.6672592  10.2101946
  98.4972668  83.1778908  23.8398528  98.7530422  82.6484203  23.0845571
  97.9530048  83.8737106  23.4712958 101.1104965  16.3550675  93.1149673
 100.7786846  16.1007547  93.9760494 100.3342533  16.3740480  92.5552082
  78.4721756  10.0361276  82.3004246  78.7008762  10.8993399  81.9557571
  79.3044519   9.5647556  82.3372936  97.5205135  59.5468473  87.3054028
  96.8079472  59.5589638  86.6663933  97.7116203  58.6177015  87.4334621
  18.0085695  69.0640402   2.3913415  17.3146379  68.8897085   1.7554966
  18.8078213  68.7559986   1.9640924 105.6011200  81.6598606  14.4366574
 105.2752686  82.3135376  13.8179803 105.1188087  80.8623314  14.2186117
  76.1142111  15.2170646  69.3354511  75.6896830  15.2456617  68.4780169
  75.5414677  14.6651685  69.8679972 113.1105709  36.3156486  46.7568541
 114.0139961  36.0155344  46.8567371 112.7953720  36.4291477  47.6535177
  61.0295630 102.0596123  43.9972305  60.3890181 101.3613987  43.8614416
  60.6775475 102.5689316  44.7272348 105.0444889  33.6724162  53.4905052
 105.2977657  34.4226933  52.9527664 104.2396355  33.9514470  53.9270735
 103.1565189  18.0522943  66.4467382 104.0935707  18.1889713  66.5863323
 103.0515289  18.0663121  65.4954147 114.2186546  77.0088720   8.2489687
 115.1069832  77.1356297   7.9157567 114.2434025  76.1533403   8.6775523
  91.7410088  29.3440843  47.1037531  92.1459675  30.0492573  46.5988111
  91.0791779  29.7821760  47.6388216  89.8836899  28.9422989  83.4930992
  88.9797783  28.6288667  83.5238361  90.3249168  28.4705400  84.1994953
  74.5504427  26.3074589  36.7259812  75.2288294  26.9331670  36.9799805
  74.6292305  25.5971456  37.3627520   7.3172849  78.0667782   3.5414240
   7.8095096  77.8314590   4.3279174   6.4067638  77.8688860   3.7605649
  68.9763737 108.9947796  73.9505577  68.4610987 109.0651989  73.1469631
  69.8858595 108.9890385  73.6521769  43.4523344  90.3513718  76.5695047
  43.8773966  89.9299812  77.3164940  43.6217165  89.7625828  75.8340645
  83.4962177  15.8518887  66.9467402  83.2855034  14.9248970  67.0586443
  83.2427788  16.0479295  66.0447598  92.8912735  28.9111137  86.4019108
  92.0246696  28.7925220  86.0131264  92.8149891  28.5316801  87.2773743
 104.0699577  43.3337021  80.4668522 103.7343025  42.5411940  80.8857727
 103.6577320  44.0516043  80.9473991 111.0232925  14.4846296  59.2294025
 111.4738178  15.2385163  59.6100855 111.6982174  13.8087571  59.1668940
   0.1204463  32.9054761  60.5262136  -0.6776960  33.3688736  60.2723169
   0.7511993  33.6003685  60.7146406  64.8865986 104.9693584  72.2710228
  65.8402586 105.0112438  72.2002745  64.5739985 105.6905651  71.7247915
 108.2013035  89.7009850   7.7383786 108.3848381  90.5751801   7.3943812
 108.0655193  89.8362732   8.6761916  25.9964681  30.5428839  77.9343653
  25.9075165  30.9712195  77.0829821  25.2845788  30.9064412  78.4609318
  36.6973734  32.0316887  51.2376356  37.6187062  32.2320533  51.4026642
  36.6410971  31.9286871  50.2876568  85.3694820  15.0619698  79.2316008
  84.5146751  15.4661191  79.3805981  85.6937408  14.8572111  80.1086235
   8.9385605  49.3430042  15.8370173   9.5718294  49.9647331  16.1957037
   8.0856431  49.7008896  16.0833573  67.2968578  24.5098209  84.1067028
  67.9248095  25.1012063  84.5216370  67.8380489  23.8952971  83.6110115
  17.5420856  98.4092808  23.8384438  16.9066155  98.7035465  23.1858969
  17.9241276  99.2169285  24.1819358  64.0160894  22.9365611  88.7767220
  63.6988211  23.6642957  89.3114853  64.3725252  23.3534002  87.9922199
  81.4381409  40.5235863  89.8121166  80.5090904  40.5791378  90.0357437
  81.4477158  40.2553129  88.8933277  89.5096684   2.4833034  73.8716841
  89.0587616   3.2487479  73.5152960  88.8156223   1.9639599  74.2776537
  85.1858044  32.6782060  83.5669041  85.2708149  31.8271923  83.1370449
  85.7948494  32.6360607  84.3041420  69.4704723   4.3163741  91.7399693
  70.3740263   4.2194709  91.4392376  69.4663429   3.9282751  92.6149559
 101.2832832  42.3827505  89.1910076 100.3559589  42.5944138  89.2982864
 101.3014126  41.4312983  89.0878487  82.1903992  28.6516976  91.7006588
  81.6611385  28.8774204  90.9357071  83.0447578  29.0462732  91.5256786
  37.0600820  99.3809509  72.7109671  37.4993539 100.2070427  72.9130697
  37.7598143  98.8081169  72.3971701  99.9814510  50.8031416  86.1373520
  99.5042133  50.5367374  86.9231606  99.4587421  51.5157843  85.7697392
  16.0399473  56.9846582  22.3990989  16.4388120  57.8547812  22.3940778
  15.4956889  56.9752073  23.1864524   4.1271850  21.1495709  81.6612911
   4.4536602  22.0448923  81.5716076   3.1775656  21.2309098  81.5727615
  83.3755875  36.4920521  80.3575420  83.1523228  36.8916368  81.1982059
  82.6313305  36.6948318  79.7907925  70.7391357  63.1240606  17.5813532
  70.7841158  62.2950506  17.1049607  70.1532841  62.9460287  18.3170950
  51.8602514  94.4399261  92.3072243  52.7079821  94.1882801  91.9408131
  51.8803740  95.3967953  92.3223114  87.0287895  36.6017771  78.2964611
  86.7801762  37.4254417  78.7159824  87.0111465  36.7954755  77.3592281
 112.8371239  41.8250084   6.2657380 112.9510307  42.6270866   6.7755657
 112.3633671  42.1044111   5.4823369  89.4111156  29.6370625  51.5766430
  88.8467884  29.0584850  51.0637999  89.2335320  30.5121613  51.2318325
  96.4415073  27.9709482  82.3154449  97.0816422  28.2588577  82.9662609
  96.9639683  27.5354624  81.6419411   7.0822704 106.1409473  13.6315751
   7.0037204 107.0293140  13.2839179   7.2562975 105.5975056  12.8630555
  76.2480831  28.4835744  86.6036701  76.5483522  28.3720756  87.5056839
  76.4816236  29.3852901  86.3832188  80.6739902   8.6805689  82.7513885
  81.3858986   9.0858614  82.2562599  81.0387516   7.8511274  83.0599403
  73.3279419  20.2031898  92.4985027  73.6857653  21.0517812  92.2375584
  73.7484455  20.0136256  93.3372402 112.6398754  54.9892521  21.6974020
 111.9634533  55.6498289  21.8468213 112.2320747  54.1647243  21.9621539
  94.7884083  27.2379041  90.8840942  95.0979424  27.9236460  91.4758492
  95.4765892  27.1634769  90.2229500  87.5058556  37.3671627  61.6005278
  86.5777969  37.2769618  61.8168592  87.9609585  36.8892527  62.2938633
  70.4342985   0.5404053  91.3323975  71.0497427   0.3875671  90.6153870
  70.9615421   0.9523772  92.0168877  62.1892786  32.7414107  78.8554430
  61.4204597  32.1713066  78.8667727  62.0120907  33.3959246  79.5310545
  55.3126240 107.1439552  76.8012142  55.3359842 108.0624771  76.5328503
  54.7849751 106.7115974  76.1297417  88.6818123  18.3087862  67.3328972
  87.7811623  17.9900098  67.2742271  89.1981316  17.5305760  67.5427341
 115.8370589 103.3071899   8.9506507 116.2234663 102.5116825   8.5844636
 115.0513694 103.4559250   8.4245318  46.1749697  14.3572319  45.2289772
  46.3890362  15.0355124  44.5883989  47.0128679  14.1413748  45.6383181
  84.4298267   6.8402082  84.8469067  84.7192955   5.9572667  84.6170044
  83.6266518   6.9679874  84.3421268  82.1613026  37.6057005  82.4451447
  81.5857887  37.0092416  82.9239559  81.9535923  38.4718585  82.7956676
  51.4904594  19.5922613  75.7160091  52.0529318  19.6290565  76.4896393
  52.0884514  19.7164631  74.9789810  97.9374981  74.2947578  30.3544283
  97.6940346  74.0917873  29.4512367  97.1150684  74.2435598  30.8414698
  29.6317267  82.5173092   9.2934066  29.6135664  83.4599113   9.4589609
  28.7100554  82.2596169   9.2746848   2.0123830  80.5471516   8.5000300
   1.2868825  80.0189400   8.1670558   2.7561307  79.9450445   8.5231942
 101.7929554  28.1078768  59.3858671 102.2739029  28.5659313  60.0751495
 101.6393280  28.7751651  58.7170219  83.2230282  26.1716342  83.1462860
  83.9401245  25.6144357  82.8437424  82.4298382  25.7097530  82.8746986
   7.5119561  60.9723043   5.3197747   7.7887416  61.3986063   4.5086715
   7.2748768  60.0836849   5.0544828  21.6518164  98.5961151  37.4663496
  20.8211613  98.2634163  37.1264219  22.0677543  99.0160179  36.7134142
  36.2216854  94.1792393  16.2205958  35.6320405  94.0574551  15.4764724
  36.1444998  93.3679199  16.7226338 105.5999947 104.4178963  14.0858734
 106.2176132 103.6964226  13.9664793 105.9032154 104.8644257  14.8763800
  65.0203276  40.4376316  93.7371922  64.2671013  39.9120235  93.4677124
  65.1138973  40.2598953  94.6730804  20.2519894  99.9248981  12.0021999
  21.1154294 100.2731228  11.7798388  19.9813139  99.4398785  11.2226343
  96.8481731  44.0843058  84.2938709  97.7764606  43.9092731  84.4483662
  96.8359852  44.9239922  83.8345051 102.2186279  45.2688742  81.7337322
 102.2768402  44.9799156  82.6444149 102.5002670  46.1834764  81.7541885
  82.2937489  21.8462992  84.3764496  82.6194286  21.4165378  83.5855865
  81.6459179  21.2370992  84.7305965  76.6244793  11.5856636  83.8159752
  76.3267660  12.1038759  83.0682755  77.4979448  11.2843490  83.5659790
   8.8576233  67.2073936   5.3640133   8.2259750  67.0296764   4.6671146
   8.4461278  67.8921032   5.8913428 100.7795620  51.8456841  48.6581373
 101.5701294  52.3839903  48.6964989 100.2351093  52.2667885  47.9929543
  12.9833686  73.9921236   9.0898472  12.2219849  74.2746210   8.5831714
  13.7348235  74.3207741   8.5963523  31.6947341  91.6887188   5.7723600
  32.1546936  92.1801090   5.0917733  30.7928395  92.0064449   5.7290947
  40.1874638   9.0681410  14.7199953  40.9756136   9.5546657  14.4784522
  39.6201754   9.1345602  13.9518774  86.7603397  31.9664884  40.1532316
  85.8424282  31.7820525  39.9541163  86.7547607  32.2504520  41.0673237
  89.1100025 100.4956722  86.9773197  89.2175007 100.2929401  86.0480309
  88.4580803 101.1963177  86.9957542 100.6169128   9.6802753  81.9518948
 101.3226128   9.1060096  82.2492886 100.5630398   9.5249683  81.0089207
  63.9990330  98.7627983  75.6438017  63.1697369  99.0221596  75.2422619
  63.8801765  97.8387260  75.8633471  97.3155022  26.3231897  79.2071390
  97.3354149  26.1855245  78.2601023  97.8358650  27.1146584  79.3451118
  84.7828770  92.5617981  14.7548580  85.4330158  93.0922794  15.2154529
  85.0345230  91.6576767  14.9431920  52.7921104  21.3546371  52.4604893
  53.4986687  21.9743538  52.6420403  52.1709490  21.4828753  53.1773901
  64.5983553  21.7818046  68.7494087  64.9095631  22.0994091  69.5970583
  64.7516489  22.5115466  68.1492329  59.4392061 108.9718628  87.6002312
  59.7229910 108.6465836  88.4545612  60.1350164 109.5704746  87.3286724
  92.5727558  26.2742996  92.3104191  93.2584190  26.7528200  91.8444633
  91.7550468  26.6555643  91.9907093  29.3842793  92.0624733  86.9819546
  29.5966029  92.9937077  86.9189930  28.9393425  91.8620491  86.1584949
  84.4056034  22.7799106  60.1856279  83.4488201  22.7516460  60.1820946
  84.6191597  23.6081791  60.6152725 106.0221195  11.4797091  57.9766703
 106.8034554  11.7720580  58.4460115 106.0675144  10.5240953  58.0078745
  87.6136398  31.3751984  74.7998619  86.7866802  31.4049864  74.3187428
  87.3960400  30.9384513  75.6233501  56.7628479 102.7883148  65.8161831
  57.1944046 103.2877350  65.1229525  57.4729300 102.3102665  66.2445450
  83.1746483   6.8727320  53.9107037  84.0347385   6.4891708  53.7393570
  82.5566769   6.1631435  53.7351370  61.5089750  20.7814646  79.1285753
  61.9566870  20.4425430  79.9037647  62.0871782  20.5553460  78.4000254
  30.6333613  63.2746553  15.6836390  29.8045802  62.9740286  15.3108430
  31.1126828  62.4701548  15.8817780  97.7481461  17.6648211  64.0661430
  98.3913803  16.9930363  64.2923880  98.2681751  18.4553194  63.9215326
 110.8463669  41.0302877  57.7365685 111.7644501  41.2171936  57.9326105
 110.8764458  40.2845097  57.1372843  64.5719194   1.3521685  55.5403662
  64.4899035   1.1261205  56.4668703  64.8086214   0.5290075  55.1130390
  28.1101656   6.2025994   8.0647373  27.2925854   5.7535368   8.2795393
  28.0447102   6.3838094   7.1271288  87.1992016  44.6641588  84.6417141
  87.4961281  44.6358871  83.7321758  87.9443550  44.3393135  85.1471424
  40.7153797  64.1080904   0.3230646  40.3788614  64.3571186  -0.5377337
  40.4754210  64.8377180   0.8942866 106.4014435  14.3740273  65.1364660
 105.9084702  14.9841750  64.5878983 107.3158550  14.5181370  64.8929262
   1.4274979  92.2845554  47.8286409   2.2656810  92.4344063  48.2659340
   0.8176630  92.0893860  48.5401440   9.5908999  68.6992598  81.5958214
   8.9189869  68.6120176  80.9196949   9.3256563  69.4690228  82.0991611
  38.9744425  12.1652949  12.0805049  39.6655345  11.5146875  11.9566798
  39.1437483  12.5323832  12.9481530  43.4981966  98.6376572   8.9443392
  43.0093241  99.2149925   8.3578843  42.8894901  97.9258633   9.1419607
 100.2645779  42.7754784  70.9021759 100.1183510  42.6907301  69.9600124
 100.6069374  43.6625099  71.0125875 107.7192497  38.8309956  77.8134155
 106.9735527  38.2765150  78.0430317 108.1071186  39.0712881  78.6548710
  49.2085409   9.6003151   7.4274379  48.9652538  10.3665614   6.9079089
  49.1918039   8.8735747   6.8047011  44.7985840  87.2092533  14.7484148
  44.5976353  88.0250072  14.2897224  44.0478897  86.6428661  14.5698237
  92.2119141  32.3942828  60.3743696  93.0067539  32.8837371  60.1624918
  92.4524117  31.8643045  61.1343193  14.7771204  66.4125776  80.4910278
  15.6798959  66.5707064  80.7671165  14.3511045  66.0438490  81.2648392
  52.2597933  10.4112840   5.9316170  52.1092081  11.0016263   5.1933408
  52.0775652   9.5390910   5.5818969   7.4066377  95.2988434   3.6433896
   6.6832823  95.3200340   3.0168602   8.1944907  95.3010559   3.0997762
  87.9862976  52.1640778  79.5850658  88.8945389  52.4137354  79.4147539
  87.7593040  52.6232243  80.3936958  94.5941353  63.0740595  86.3402653
  93.6739826  63.0848360  86.6037750  94.5770073  63.2655907  85.4025841
  52.5507689  23.4901595  89.7639656  52.7461767  24.0183353  90.5379677
  51.6246748  23.6564422  89.5880985 111.6327000  65.4726791  81.3778114
 111.5904713  64.8620605  82.1137428 112.0690727  64.9801445  80.6826591
  48.7215376  11.6056311  25.1813054  47.9854727  11.3568902  25.7403851
  48.8491726  12.5383818  25.3542686  34.7634029  83.5825920   8.8030177
  34.8957753  83.5845280   9.7510183  35.5044341  84.0797520   8.4566975
  96.1599445  88.9182949  10.1424503  96.1743641  88.8924694  11.0991931
  95.7047462  89.7335243   9.9316919  20.2881455  98.3886433  27.7021480
  20.1778889  98.5998535  26.7750740  21.2360406  98.3815289  27.8350902
 115.7381058  38.9706922  82.3677731 115.3661251  38.1535673  82.0358562
 114.9896336  39.4448781  82.7299500  18.4480548  24.8134661  93.8304138
  19.0714490  25.3630447  93.3554649  17.6086736  24.9766946  93.4002686
 107.0790863  60.8669281  70.7481527 107.2109985  60.3487349  71.5420723
 106.1282158  60.9346628  70.6615782 106.6321659  64.8912859  80.5768394
 105.9141636  64.8970222  81.2098217 107.4215412  64.9899912  81.1091518
  79.3973684   8.6374915  85.4605579  80.2947044   8.9087987  85.2671146
  78.8919163   9.4501150  85.4407597  18.2018793 104.7651577  37.9678845
  17.4342906 104.8402596  38.5348058  17.8561389 104.4331455  37.1393514
  78.3721924  40.4392052  92.9000950  77.5146103  40.3074884  93.3043671
  78.6759710  39.5562053  92.6897144  33.7038732  81.6176605  12.4434829
  32.7866292  81.8902302  12.4679518  34.1934419  82.4334621  12.3384523
   2.4982823 106.1643124  29.6315455   2.7186415 107.0856285  29.7688603
   3.0739418 105.6885529  30.2302885   8.6864161  55.9447193  89.9280834
   8.7178099  55.8314133  90.8780384   9.5460314  55.6538439  89.6236420
  95.0572205  46.2414789  93.3835697  95.7964897  46.7185307  93.0065632
  95.0963497  45.3769779  92.9745007 113.4010506  54.5519161  67.0098591
 112.9186249  54.6945763  67.8241968 113.9124775  55.3522635  66.8910933
   0.6043470  58.7284279  17.6931393   0.9419546  59.1693830  18.4727621
  -0.1783031  59.2261124  17.4565005  10.4534829 107.9270649  12.7026975
  10.3169394 108.8248444  13.0053353  10.1738846 107.3813915  13.4377468
 108.8668919  38.0187392  72.9521132 109.6436119  38.4890699  73.2549858
 108.1981659  38.2126594  73.6089516 106.2841606  25.1916814  79.6303988
 107.0204067  25.7971048  79.5429707 106.6469955  24.3377733  79.3949747
  10.0044668  24.5046568  93.3076668  10.6392717  24.9530816  93.8663864
   9.1775072  24.5687962  93.7854290  85.3589153  29.7512460  79.1082287
  84.8140812  29.5027494  79.8549843  84.9915695  29.2636752  78.3709574
  71.8279696  19.7443700  82.7413845  71.0857582  19.1731119  82.5438690
  72.0749331  20.1174116  81.8951702 112.4705505 104.9984932  11.2314415
 113.3588982 104.6621990  11.3496876 112.5859833 105.8131599  10.7423413
 110.2054501 105.5612659  12.8088391 110.9963894 105.5088615  12.2722781
 109.5654678 105.0209236  12.3454928  20.9381223  93.7419510  20.9381795
  21.8392682  94.0442753  21.0511613  20.8485103  93.0187798  21.5588522
  78.3423281  26.7597222  58.9639997  77.6334763  26.1412501  59.1407871
  78.6533260  27.0216632  59.8305416  91.9926167  30.5864024  77.1348858
  91.6919899  31.3586903  76.6558981  91.3977814  29.8882151  76.8611526
   1.3956624  38.8806701  49.1069460   1.4346443  38.4798121  49.9752903
   2.3075289  38.9151549  48.8179111   7.7808720 100.7427216   0.8964185
   7.4238682 100.1590157   0.2270411   8.7296677 100.6834030   0.7846145
  14.4411325  76.9629669  79.7105455  14.0815032  76.8985128  78.8258171
  14.9882472  76.1831284  79.8040962  90.8494663  49.9334431  86.2966251
  90.9116554  49.5974731  85.4024792  90.3473568  50.7441282  86.2134933
  83.4308910  24.7641826  40.9947586  82.9696846  23.9317203  41.0973692
  83.4805775  25.1213479  41.8814373  35.6752992  80.5309868  14.2498422
  35.4045773  80.2199650  15.1136732  34.8908067  80.9418392  13.8865149
 105.2843189  26.9041681  65.0548077 104.9823475  27.6151633  65.6200790
 104.5564461  26.7516994  64.4521666  73.2813263  46.7342806  88.0623436
  74.2161894  46.6460943  88.2480431  73.1512785  46.2448597  87.2500706
  23.8835549  90.6229687   9.7585702  23.8099575  91.4192200  10.2846825
  23.2194996  90.0354004  10.1191664  95.5763149  46.8679142  83.4960938
  95.6409264  46.3700819  82.6810932  94.8084641  47.4265242  83.3753109
  72.8905582  42.7695608  94.5540142  72.1800327  43.4099722  94.5894909
  73.6513424  43.2718229  94.2621613  95.2002048  26.3992548  24.2718768
  95.5762386  25.7364392  24.8511052  94.4135475  26.6977215  24.7283077
 108.7782288  61.4155006  68.4460688 108.2094002  62.1678352  68.2827854
 108.4556770  61.0452223  69.2677069 110.4755688  50.9607506  78.3285236
 109.6824360  51.4845037  78.4419346 110.7488060  51.1319494  77.4272680
  81.3962364  16.6740465  76.1948013  82.2794437  16.3728416  76.4080000
  80.9703541  15.9105372  75.8050394 105.0518036  58.2774162  70.0841045
 105.2229595  59.1586924  69.7520018 105.9204292  57.8926659  70.2011204
  70.6118965  32.4094653  87.0000839  71.1997557  31.7437744  86.6429996
  71.1179590  32.8268194  87.6971912 101.2050629  48.2343912  59.5119715
 102.1100712  47.9328060  59.4328976 100.6792355  47.4993134  59.1967010
  28.2274413 107.5147247  22.3255229  27.9209876 108.2024860  21.7345095
  27.4744010 107.3274326  22.8859544 106.0460186  23.3113313  90.0539303
 106.6026115  22.5347161  89.9964809 105.1557255  22.9763699  89.9470901
  66.5111160 100.3239536  75.3178740  66.5195227  99.4133663  75.0229359
  65.6068897 100.4789162  75.5910015   8.6721689  89.6538162   4.0015104
   8.5522968  90.5403519   3.6610430   8.8190931  89.1162109   3.2232916
  99.3658733  47.1190596  86.8573093  98.7884331  47.4983788  86.1948013
  99.2929459  46.1737585  86.7256832   7.6165456  92.4232292   3.4716600
   7.3751247  93.3187294   3.7083569   6.7811799  91.9847012   3.3101463
 109.0007496  24.2105365  71.8402243 109.3829727  24.5157385  72.6630163
 108.1999493  23.7562585  72.1021032 100.6815815  34.9944735  85.5160141
 100.4754734  35.9022045  85.2929115 101.3909912  34.7562885  84.9191570
  46.0644579  87.0216465  34.8535228  45.6243467  86.1988926  35.0671029
  45.8553314  87.1728802  33.9317703 115.4677868  53.7617540  45.8047724
 115.1927853  54.3450022  45.0973701 115.9394264  54.3298578  46.4139128
  44.9632311  15.3624976   4.0555382  44.8895550  16.1765397   4.5536739
  45.2369642  14.7107244   4.7009015  38.3680844  81.9656754   0.2321004
  37.5869441  81.5733719  -0.1579655  39.0521383  81.3068771   0.1125340
 105.1798439  80.7233810   5.2001244 105.4978085  81.1831093   4.4230968
 104.8460484  81.4170551   5.7690024 101.7096424  60.8711100  59.1901302
 102.3781395  60.4748297  58.6312866 100.9424305  60.9540939  58.6237860
  96.2086868  61.8572521  78.6479330  95.4061031  61.9710493  78.1388712
  96.0650826  61.0516977  79.1446161 108.8426495  80.0272179  84.3543816
 108.2549095  80.4549694  84.9771404 109.7156620  80.1461506  84.7284698
  94.2863560  54.0953636  87.3534870  93.6084747  54.7322750  87.1275425
  94.3317413  54.1227579  88.3092213   9.2397112 106.8630600  23.8012576
   9.7079259 106.1827469  24.2851853   8.7571305 106.3871288  23.1253576
   5.3554803  69.1242790  56.4727402   5.2602446  68.3556366  55.9102869
   6.0919416  69.6064377  56.0967350  62.6441050  11.5126824   2.1388292
  62.6119184  11.9355667   2.9969460  61.9579792  10.8462012   2.1743697
  31.3578820  10.5560935  23.3504605  30.4401112  10.6805634  23.5921931
  31.8093348  10.4239309  24.1841006 107.8325939  62.8173351  91.1635208
 108.5056305  62.2954988  90.7265472 108.2101345  63.0285883  92.0173740
  94.4034195  40.9413099  90.6698608  93.9251804  40.9414387  91.4990330
  94.5867443  40.0174522  90.4992485  49.6156836  71.3980436   1.5294789
  49.3098450  70.8260679   0.8255345  50.4493666  71.0158157   1.8035312
  90.9991074  41.7641687  94.4633102  91.7869186  41.2214422  94.4953728
  90.7538700  41.7759514  93.5381317 101.7626286  38.3163834  81.9466591
 102.4118805  37.9395890  81.3527584 102.2627068  38.9191198  82.4969864
  21.1528373  96.8501854  15.9398925  21.6796446  97.5188828  16.3775611
  20.6732512  96.4212990  16.6486120  26.0898757  65.2329969  13.6483002
  25.9536242  65.3688526  12.7106369  27.0352364  65.3229284  13.7684631
  34.5508957  99.4031334   3.0995032  35.2461052  99.4970226   3.7507331
  35.0136900  99.3109703   2.2667003   7.7544051  85.6874657   6.3470614
   6.8988001  85.9191799   5.9858388   8.2093865  86.5243816   6.4408994
  66.5172148  10.4376698   2.6006052  65.7783747  10.4525483   1.9922280
  66.1361885  10.1591980   3.4333733  83.5439205  50.2151299  85.2999401
  83.1258392  50.3672314  86.1474705  84.4815445  50.2850723  85.4794025
  43.1352949   0.6000922  13.3087528  43.9378262   0.3858601  12.8330624
  43.1813717   0.0724639  14.1060710 110.2613258  29.3363881  54.5607233
 110.3245449  29.0846086  55.4820490 109.6309376  28.7206864  54.1868782
  56.3389111  10.8859158   8.1664705  55.6847239  11.3071442   7.6089412
  56.6114712  10.1121593   7.6732725  -0.1529672  45.0267792  94.1927433
   0.5223202  44.4005919  93.9317703  -0.0300919  45.7710123  93.6034679
  66.8495703 100.6591320  59.8698759  66.3222027 100.2094364  59.2096567
  66.2419176 100.8225727  60.5911779  99.6421814  69.4926023  67.3178768
 100.4528427  69.3414545  66.8318510  99.6242523  70.4381609  67.4656200
  58.1583691  14.0113878  33.7834024  59.0028954  14.4581974  33.8414168
  58.0486822  13.8267124  32.8506136  87.0832443  28.0296302  67.6616907
  86.1967659  28.1791019  67.9903936  87.2066498  27.0827103  67.7276278
 104.7920990  24.7823429  85.2328110 104.6686363  24.1974092  84.4852543
 105.5923748  24.4678640  85.6534004 111.8325901  45.8235312  72.8207064
 112.1408558  46.3860464  72.1102285 111.0657406  46.2775087  73.1701040
 110.2849102  49.3959761  82.8148556 109.5425224  48.8382959  82.5822830
 110.2312946  50.1324415  82.2057819  67.3164606  33.7463832  93.5895824
  67.5805378  34.4606853  93.0097008  67.4959326  32.9514551  93.0874825
 111.1259174  19.4894826  89.0166855 111.1063099  20.1316881  88.3071709
 111.3177109  18.6583865  88.5822582  94.3361187  21.7953944  74.9836826
  94.1598225  22.6619172  74.6172285  93.5810852  21.6138697  75.5433178
 101.5332603  59.5936155  48.9954424 101.7228603  60.0071859  48.1532812
 102.2052860  58.9182043  49.0872908   9.0850759  58.6036301  82.6665020
   9.0616781  59.2674112  83.3557606  10.0167918  58.4775114  82.4869633
  44.8233175  87.7127552  88.6937428  44.3325615  87.7679253  89.5137024
  45.7224941  87.9324913  88.9375114  40.0761271  72.4172926   7.0318621
  39.8143101  73.3230209   6.8665099  40.5496693  72.1568251   6.2418330
 100.8700466  35.3626585  62.8755236 100.0978661  34.9379110  63.2491016
 101.4722729  35.4567170  63.6135721 104.5671177  61.0257244  65.3010702
 105.1546955  60.3142309  65.5555630 104.6628284  61.0870361  64.3506432
  27.6352072  33.5499239  91.8088055  28.2410192  34.1130137  92.2906208
  27.0398355  34.1581202  91.3707829  13.3971500  83.6078739  25.1464915
  12.9829299  83.3743858  24.3157482  13.0836499  84.4934940  25.3298688
  88.8177109  42.3478031  72.7334738  88.8164330  41.4397955  72.4305582
  87.9537010  42.6819086  72.4924517  91.0348606   1.1894304  18.2494307
  90.8294392   0.2625843  18.1269979  90.1880646   1.6320232  18.1922376
  94.8105431  55.7594061  84.7065639  95.0541878  54.8659039  84.9484730
  95.1963997  55.8865595  83.8398647  51.1793566   4.5359242   9.5750862
  50.9161043   3.7381232  10.0338280  51.9652224   4.8291475  10.0362468
  76.2082672  45.3604317  44.2388010  76.1671019  46.2243986  44.6487999
  75.2927208  45.1121616  44.1108656  11.7130494  84.8559189  18.8894308
  12.4424767  84.2504406  19.0219617  11.6669548  85.3572273  19.7035515
  72.4269915  13.4539914   0.7281385  73.0133390  12.8942800   1.2372068
  72.8738117  14.2997742   0.6930528  53.7707233  42.1339417  61.0869789
  53.6075068  41.7786932  61.9607019  54.7242546  42.1913958  61.0260677
  67.1431398  17.6760221   7.6374656  67.9325199  17.7827263   7.1066833
  67.4291325  17.8612757   8.5319608   4.3548894 104.1035175  -0.1119163
   3.4451699 103.9577007   0.1476593   4.8605153 103.9376640   0.6837388
  19.7049296  25.3354836  67.4531174  19.8958683  25.7691979  68.2847786
  19.1062474  24.6255660  67.6851225  20.5102181 108.7330055   5.3651124
  20.9481335 108.4007931   6.1487567  20.9485078 109.5635223   5.1797116
 104.1304111  18.7307203  58.9771080 105.0547886  18.6231995  58.7530518
 104.1350842  18.9738476  59.9029064  90.0261211  37.7916265  77.1634340
  89.2099857  38.2702422  77.3086309  89.7630024  36.8716526  77.1379995
  22.9701591  45.8101368  87.5432587  22.0373869  45.9149599  87.3556995
  22.9983974  45.4833746  88.4425163 100.6764698  41.8979406  46.1665821
 100.9732056  41.1040926  46.6115427 100.2931690  42.4330091  46.8615770
 107.8397179  66.1864710  89.1561604 107.3144722  66.6698885  89.7938538
 108.5442638  65.7958078  89.6730995  72.6736784  43.2433844  86.5471745
  73.0950928  44.0130377  86.1647224  71.8114424  43.2116652  86.1327076
  11.1760449  73.2212019  22.4799228  11.1535609  72.4092245  21.9735456
  10.5491960  73.0786276  23.1891227 112.2813797  33.5915542  53.6808443
 112.4826908  32.8450537  53.1165361 111.3706398  33.4555435  53.9421368
 109.3297768  53.3875751  81.7037773 108.6719513  53.2134247  82.3769665
 109.3721485  54.3424177  81.6516495  92.4650097  47.4698973  94.4013977
  93.4065819  47.3225212  94.3122196  92.0928478  47.1435833  93.5820961
  62.1745110  94.4427109  13.3914149  62.4537945  94.7710514  14.2460620
  62.2479010  95.1986027  12.8087771  88.4185219  55.2819729  58.1455231
  88.9587688  54.5436668  57.8639603  88.9864349  55.7856846  58.7286091
  21.1386561  98.1889248  68.9049006  21.5024471  97.3830032  69.2714643
  21.5967083  98.3013058  68.0719614  95.3734016  21.1279798  70.5555296
  95.5156803  20.9413290  71.4835119  95.7300949  20.3652048  70.1003695
 106.0371590  49.2046261  94.7333336 105.9111118  48.5395575  94.0565586
 106.0558224  50.0331783  94.2543888 115.1639938  26.5927982  70.1898718
 114.8728848  26.5509009  69.2789745 116.0373497  26.2011552  70.1804590
  26.6713810  62.4916601  69.4968319  26.7794061  62.6819563  68.5649776
  25.7236791  62.4818516  69.6309948 102.8010082  62.6152945  83.3268452
 102.3716640  63.2816124  83.8634205 102.4523926  62.7555370  82.4464798
  18.0479896  37.6568341  78.2681179  18.6809027  37.5645542  78.9802551
  17.3364687  38.1740379  78.6455727  87.8701019  64.9048710  88.4716702
  87.2749043  65.3388262  89.0829372  88.2841015  64.2146206  88.9897442
  17.8262246  95.3626251  26.4009452  17.3498368  95.5666542  25.5961728
  18.7486982  95.3915596  26.1470985  65.3192186  11.5124965  22.3744106
  64.5483160  11.8768883  21.9394875  65.7667351  11.0140216  21.6906786
   0.7495043  88.7204170   0.1089485   0.2415644  88.0243015  -0.3077739
   0.9368758  88.3876133   0.9866517  92.5300121  57.1167898  84.4861889
  91.8850994  56.5998745  84.9690151  93.3197021  56.5758371  84.4869995
  48.7830400 107.3151016   8.5134351  48.1168938 106.8012238   8.9699531
  49.4535589 106.6765213   8.2708347 105.0232601  32.3914576  48.8731670
 104.3293953  32.9575181  49.2113209 104.9417591  32.4550104  47.9215622
  98.4362507  47.2689342  89.9756145  98.7801838  47.9270649  89.3716240
  97.4952030  47.4412107  90.0070381 107.8220940  72.5145626  69.3379974
 108.6137295  72.8958511  68.9583015 107.1046257  72.9093981  68.8424349
  11.4171302  54.6860313  89.7261143  11.9992352  55.3272581  90.1338100
  11.7175448  53.8418055  90.0626564  59.5409632  87.9521751   1.0885894
  59.5592833  88.8057899   1.5213072  59.5400333  88.1575489   0.1536814
  57.9497719  21.8273759   1.7451006  57.4550533  21.5062761   2.4990112
  58.5587406  21.1183238   1.5386206 111.1658382  83.3743858  86.0244846
 110.8036613  83.5946941  85.1662731 112.1128559  83.4586430  85.9135914
  36.6851377  96.3957214  22.4716210  36.2224603  95.7732296  23.0325699
  37.3090219  95.8594131  21.9823599  26.1033225  53.2319784  83.3557796
  25.5155492  52.4801540  83.2815266  26.0905623  53.4549618  84.2865562
   1.8970811  39.8511672  53.3716059   1.6470246  38.9348435  53.4901476
   2.8284392  39.8756075  53.5911655   6.7830127  66.3716793  92.5346756
   6.3957089  66.4243650  93.4084320   7.4673945  65.7073879  92.6156998
 106.3778877  84.2161083  84.3662930 107.1193981  83.6293793  84.2174625
 106.6363335  84.7413731  85.1236153  96.5427494  12.6213479   3.2275659
  97.2041702  12.1829176   2.6922858  96.6213799  12.2112846   4.0889001
  92.3253250   2.3697941  70.4364491  91.4867592   2.8223422  70.3456450
  92.0944500   1.4413205  70.4659319  92.8392601   3.4397295  14.2541313
  92.7182865   2.5728059  14.6414816  93.2491302   3.9568210  14.9475670
  86.7852116  50.3030539  82.4020863  86.7332458  51.2480927  82.2591686
  86.0445309  49.9456549  81.9122982  22.9397106  72.5555229  83.5289574
  22.3094678  72.9832172  84.1086960  23.7870026  72.6945353  83.9520359
  28.4912467  73.3882856  18.0890810  27.9872394  74.1428423  18.3937919
  28.4403944  73.4359980  17.1344244  42.6839018  22.5425100   6.8382812
  41.9726753  23.0044770   6.3944560  43.1920290  23.2347751   7.2611332
  10.0906420  90.7942390  56.1207819   9.1422379  90.8970833  56.0421419
  10.4480696  91.3065529  55.3955221   8.3954400  43.8776779  79.4717932
   8.8477021  43.2123804  78.9530754   8.4346765  43.5487509  80.3698444
  94.9722481  78.4326792  63.5270071  94.3072319  78.8405514  62.9723644
  95.1029301  77.5646448  63.1453419   5.0550586  45.7250547  75.0263023
   4.7668943  45.3034782  74.2166948   4.3419448  45.5678415  75.6451607
  61.2355566  32.5194764  69.2984247  60.9330463  31.7000985  69.6900082
  60.7970190  32.5549150  68.4483290  27.1755648 101.3570690  15.2862263
  26.3347459 101.0678768  15.6406605  27.6906371 100.5542374  15.2062356
  55.9461737  15.8137476  28.5716081  55.2269077  16.3244557  28.9431858
  55.5179405  15.0694835  28.1486201 114.7602844  60.9720755   9.7108972
 114.5963669  60.3747892  10.4407012 114.1893005  60.6566668   9.0103799
  10.2139723  59.6416616  58.8083172  10.2810073  60.5337143  58.4677696
   9.3020624  59.5597649  59.0875053 101.7630768  70.7134724  91.5289688
 101.5008450  70.0945520  92.2104359 101.3091087  70.4104280  90.7426357
  19.0950596  94.9946022   5.5520749  19.1158450  94.7760582   4.6203902
  19.9705744  95.3338718   5.7380956  96.6129398  66.1527491  76.4788485
  95.9327126  65.7168722  75.9654903  96.8197441  66.9432259  75.9802437
   0.8552337  37.6490140  30.8919549   0.9036670  37.9640436  31.7945290
  -0.0615965  37.7699709  30.6449270  89.8020363  73.0376768  74.7266197
  90.3622913  73.5671282  74.1591549  90.0478554  73.2964611  75.6147814
  13.9329267  62.9310560  71.5185976  13.6279857  62.6978588  72.3954439
  13.6202729  62.2199583  70.9592915 107.5416183  68.1091976  70.7484770
 107.4349213  68.7150526  70.0151348 107.1810913  68.5781860  71.5010118
  71.9863605   6.1688179   2.8674069  72.4447250   5.3304100   2.9240191
  72.1431351   6.5852022   3.7149197  40.3993654  73.9155912   0.3432382
  40.3619814  72.9690409   0.2058613  39.7687435  74.2734003  -0.2816794
  85.3048706  13.9504969   1.7096335  85.4658794  13.3810723   2.4620043
  84.7962952  14.6792495   2.0653053  46.7539835  30.4091477   2.1251667
  46.6192293  29.8400903   1.3673760  47.2455454  31.1546516   1.7804599
 115.1342487  69.5215082  70.7698345 114.9899101  69.7521496  69.8521185
 114.3073559  69.7333574  71.2029505  11.1106312  75.9047461  63.7478828
  11.1919844  76.3655853  64.5828915  11.8805742  75.3372097  63.7115288
   4.7085077  28.9013553  46.3195372   5.4112846  28.3981133  45.9083366
   5.1214325  29.7271156  46.5722036  98.1617451  29.0027618  55.2797604
  98.2369423  29.9056363  54.9708986  98.4258938  28.4701991  54.5295334
  97.0350552  30.0613475  78.2784939  96.6124344  30.9079838  78.4228230
  96.3457584  29.5094657  77.9089928  75.7987499  46.2190008  89.4610500
  76.5231895  45.9800482  90.0392532  76.1136913  46.9894552  88.9883614
 112.8868103  57.2959185  71.2110567 112.7029419  58.1889439  71.5024757
 112.7852631  56.7613125  71.9985294 114.5783329  54.9125576  88.6129761
 114.8256683  54.0043640  88.7868786 114.6768761  55.3534174  89.4568729
 103.5805321  35.4345965  42.2141075 104.0159130  36.1888504  41.8169022
 103.9633369  34.6768308  41.7719841  84.8510265  67.2978163  92.5532627
  85.4616451  67.3451853  93.2888794  85.3765678  66.9623804  91.8269634
 110.7669830  51.2566900  80.9558964 110.8117199  51.1881685  80.0021935
 110.3181076  52.0868969  81.1155796  12.9051352  53.5732794  80.6002045
  12.7391243  52.6348829  80.6901073  12.8392363  53.9146900  81.4920139
   8.0211383  29.8798680  65.4958773   8.0187887  29.0785766  66.0194778
   8.5802269  29.6746731  64.7465134   3.7350950  55.1053429  86.1941624
   4.6476281  54.9399471  86.4311314   3.7857965  55.7069731  85.4513931
 106.9581604  79.1350698  62.4824667 107.3052311  78.3423328  62.0733881
 106.9667053  79.7887993  61.7833281 103.0983067  82.7586842  72.6866150
 103.0031109  82.1469593  73.4166527 102.7038097  82.3055649  71.9414425
  82.6129913  86.2493324  82.7066612  83.0025196  86.7263031  83.4394646
  82.8033161  86.7904949  81.9404030 113.3788109  38.1588030  68.5449171
 113.8363075  37.7275753  67.8231335 114.0384674  38.2366991  69.2341280
   3.6719936  58.2049656  58.5309696   3.1404108  57.7527094  57.8759003
   3.0729505  58.3574200  59.2618179 109.0755749  92.2995949  72.6708555
 108.7869644  91.5338421  72.1743059 108.7675285  92.1369553  73.5624170
 115.1316261  59.0526724  54.7178888 115.8275414  58.5514879  54.2927408
 115.5902958  59.6261787  55.3318501 115.0481796  86.5421772  86.2298584
 115.4196930  86.6066933  87.1096516 115.7566547  86.1818123  85.6965256
  44.0264130  81.1904049   6.2339181  44.3606424  80.6649685   5.5069828
  44.7558117  81.2354183   6.8521273 114.6440983  72.6639080  82.5448322
 115.1478291  72.8133917  81.7447472 113.8333321  72.2533989  82.2442245
   3.3019415  52.9100800  60.9269762   2.8908724  53.5006046  61.5582752
   2.5711420  52.5513792  60.4234934 110.6227398  71.0390806  89.5422173
 111.4496326  71.3221884  89.1519260 110.7310963  70.0975180  89.6762085
  91.4463234  14.2868650  11.7681849  90.5733395  14.0273714  12.0627868
  91.9616127  13.4811449  11.8072200 104.1298389  83.3207989  81.2222672
 103.6775780  83.8275433  81.8967342 105.0473785  83.5816669  81.3015938
 106.6571140  62.5050068  86.8806934 106.1688232  61.9867706  86.2409687
 105.9832001  62.8956699  87.4369717  79.9851704  15.4953241  80.6862831
  79.8039722  15.3861523  81.6198158  79.8038578  16.4191854  80.5135441
  83.0843735  43.3065653  87.2523117  83.3985329  44.1088915  86.8354034
  82.3424149  43.5891628  87.7869797 111.5651703  51.8470812  68.1430387
 112.4440384  51.5212297  67.9489994 111.0263538  51.5286446  67.4188089
 102.4928188  51.9204521  71.3810825 102.4681759  52.2527456  72.2784138
 103.3588505  51.5214825  71.2971163  26.9715405  87.9526520   0.7421805
  27.2343159  87.8059578   1.6508396  27.5374198  88.6634827   0.4409818
   3.5017881  56.0528326  77.3505068   4.2964584  56.3728857  76.9235420
   3.6599317  56.1898947  78.2845497  58.1841850   3.2843968  12.3883784
  57.4766684   3.0958152  13.0048966  58.2465219   2.4972722  11.8472862
 111.0187912  60.2347994  44.2820406 111.2827873  60.1922131  43.3629513
 110.0619411  60.2392817  44.2564297  42.2348595  39.2566967  80.8382797
  42.1094131  39.8118186  80.0686455  43.0985594  39.5004511  81.1712074
  28.9609003  95.5151749  14.6634948  29.4847488  94.9463081  15.2275908
  29.6045041  95.9846497  14.1328347  47.3309898   7.5393152   2.8660831
  47.8150368   6.8202019   2.4601215  47.8684473   8.3137423   2.6998475
  48.9224005  26.2075853   4.6508673  49.0923691  26.7673016   3.8931999
  49.5489883  25.4892802   4.5633835  99.2589760  71.8015385  71.9213057
  98.3403873  72.0456076  72.0347548  99.6807098  72.5986528  71.6003942
  99.5939636  94.4272423  53.0769539  99.1630459  95.0171757  53.6954308
  98.9635181  94.3256664  52.3638964  99.4721127  68.7041092  83.2338715
  99.5672321  69.1096640  82.3720646 100.3699875  68.5904598  83.5455227
  87.6040840  27.4193358  77.4030924  87.4321175  28.3608818  77.4154997
  87.7165413  27.1842432  78.3241320  98.6560726  38.8813353  70.3236151
  98.4352589  37.9627705  70.1696253  99.4583702  38.8506889  70.8447742
  60.0294971  42.6534128  20.1357818  60.7250309  41.9974756  20.1827478
  59.4851446  42.4807215  20.9039545  86.9553280  80.1871014  91.5716362
  87.5620079  80.8981037  91.7781639  86.4828300  80.4927444  90.7973289
  90.1586246  55.4484081  85.7582474  89.4957733  54.7669411  85.8698463
  89.6793747  56.1906767  85.3900146  61.0282421  35.9778595  89.8553181
  61.6870022  35.8164120  89.1798878  60.9030056  35.1271963  90.2759361
  83.5215759  46.4860773  26.0484767  83.6039829  46.0317469  26.8869400
  83.2263660  47.3664093  26.2810802  32.6070189 101.1122704   4.2495167
  31.7461705 100.7542992   4.4663763  33.0130649 100.4427433   3.6989808
  80.6451607  87.3227596  60.2447081  79.8343611  87.0137215  59.8405552
  81.1167049  87.7570534  59.5338869  92.7292061  17.4249291  67.3228264
  93.4302139  17.9805660  66.9821024  92.0296574  18.0362535  67.5533533
 105.0536633  60.4466438  76.5179443 105.6749821  60.1028633  75.8760691
 105.4689026  61.2421942  76.8509722 113.3849049  95.6960583  71.5423918
 113.0969715  95.2029991  70.7741356 113.0047989  95.2263165  72.2847462
  36.6331244  31.9444180  87.5075150  36.8357730  32.7462745  87.0256519
  37.4133635  31.3995433  87.4047089  26.3025451  37.4052238  76.7908812
  26.1557770  36.5769339  77.2476387  27.0021796  37.2136426  76.1663485
  17.1550429  52.3803282  74.9128914  16.9108129  52.9937601  75.6059170
  18.0193090  52.0595837  75.1705647  75.1455784  17.0858550  11.3745224
  75.8066845  16.3949835  11.3313377  75.6265974  17.8596580  11.6679156
   3.8824409  55.4407120  58.1489658   4.0651360  56.3746548  58.2519579
   4.4182780  55.0165129  58.8191652   8.1121850  22.1751881  86.9561672
   7.3328286  21.6277623  86.8604469   7.9728693  22.6489592  87.7761459
  76.3685799   1.7144650   4.9498817  76.9634342   0.9646238   4.9607036
  76.7251062   2.3125246   5.6067276 109.1737652  93.6545372  85.2122307
 108.2402039  93.5286617  85.0423527 109.2821693  93.4260559  86.1354160
 107.6751518  37.9420352  67.3196173 107.4471283  38.7505674  67.7784348
 108.6022663  38.0424428  67.1037483 115.6246471  52.6846313  70.3333473
 114.7549152  52.7275229  70.7307768 115.5708790  51.9536686  69.7176886
 114.1606617  33.3527136  57.1961355 114.8132801  32.6525140  57.1902704
 114.5558643  34.0440440  57.7272701 108.8874912  87.8148079  68.1507635
 108.8436413  87.5500202  67.2319651 109.0304852  86.9979763  68.6288643
 103.8175964  69.3883657  79.4749212 104.2483711  69.1917181  80.3067780
 102.9217434  69.6216488  79.7183847  72.9986858  16.9043446  16.3683975
  73.1246614  17.7492809  15.9366035  72.0571280  16.8582511  16.5344560
  41.4727402  27.5489450   5.4417533  41.2789392  26.9621277   6.1727238
  41.7237902  26.9651079   4.7259736  11.2334633  56.4832211  51.5242720
  12.0174861  56.1040688  51.1270523  11.0024416  57.2126865  50.9491634
  20.2505946  10.5013788  85.2243423  20.7503009  10.2139997  84.4601822
  20.0935102   9.6996582  85.7231426  78.6637640  51.0145950  86.5535450
  78.3927917  51.2159777  85.6578541  78.9421940  51.8562698  86.9145107
  21.0611224 108.3064938  34.6452284  21.4338088 109.1394043  34.9343801
  20.1371431 108.4997368  34.4866276  87.1925068  72.3825645  74.5062733
  88.1150341  72.5574970  74.6922255  87.1044922  71.4342546  74.6021605
  15.3365707  88.9953613  73.3706951  15.2322769  88.2576275  73.9716053
  15.4983437  89.7473240  73.9404345  91.9184971  83.5051823  77.8379011
  91.1729717  82.9806900  78.1299973  91.5268517  84.3098640  77.4983120
  71.5336657  36.9480062  10.4878795  72.1189737  36.2767696  10.1370299
  71.7146969  36.9561362  11.4277697 113.0663395  86.3947678  59.6158981
 112.2890377  85.8540440  59.4756985 113.1973648  86.3845730  60.5640364
  44.2084217  97.2839928  24.3620753  44.5532465  96.5701675  23.8256264
  43.7277555  96.8453979  25.0640893  92.5814438  83.0845928  74.6153927
  92.4579620  82.3357296  74.0321398  92.6361752  82.7002621  75.4903364
  96.8902493  69.6995497  84.5628071  96.2163830  69.0264606  84.4674492
  97.6902485  69.2850208  84.2397022  91.2086868  59.1413736  35.4476285
  91.3312435  59.4059706  36.3593292  90.3614521  59.5130730  35.2021742
  96.1520004  99.7305298  60.0020742  96.4060879 100.6366348  60.1771307
  96.8739605  99.3752193  59.4836521 113.5435581  49.3722439  87.8356647
 112.6848793  48.9761734  87.6872540 113.6675262  49.3270826  88.7837315
  93.3329678  46.5176487  90.8117008  93.8347149  47.3059511  90.6042099
  93.9834118  45.9014940  91.1486149  85.4829884  89.3086529  70.4369783
  84.5942688  89.6066952  70.2431440  85.5431366  88.4484863  70.0213861
 101.4910412  52.8748989  93.5396194 101.9660759  52.5456858  94.3026447
 101.5128708  52.1513176  92.9133701  75.8543158  42.8731775  91.1905766
  75.7546759  42.2718096  90.4525661  76.5226555  43.4955454  90.9038544
 106.4862537  29.7917819  78.3318090 106.8495464  29.2335391  77.6443386
 107.2461414  30.2407360  78.7022829  77.8601503  86.2263393  55.7236528
  77.4481153  86.7448235  55.0325346  77.1636772  85.6499481  56.0381937
   3.1212935  89.8951340  90.7040977   3.6507031  90.0554657  89.9229145
   3.6614743  90.2109241  91.4284706 104.9076653  47.8753042  90.7428169
 104.6687794  47.1438885  90.1734352 105.4240799  47.4753714  91.4425373
  85.4690838  55.1468134  52.5217819  86.3281918  54.7275257  52.4732542
  85.4273605  55.6985092  51.7406797  20.3310490  62.5769329  40.0913429
  19.7487926  63.1997013  40.5265045  21.1642790  63.0417061  40.0142336
  20.5528998 104.8864841  18.8815689  20.1545572 104.2609596  18.2763624
  20.7612729 105.6462765  18.3379376  87.4214077  10.1334536   0.9889302
  86.5285778   9.8018771   0.8933297  87.8854942   9.4400114   1.4579654
  76.1758661  45.7344580  37.4424863  75.6916618  46.1443138  36.7256904
  75.9314251  44.8100233  37.3988676  92.6019478  75.2411985  78.3337784
  92.6058865  75.6536627  77.4700117  93.1902885  75.7823658  78.8602972
 110.5288029  95.5844021  42.1886539 109.7437572  95.4563713  42.7211475
 110.2043438  95.6225300  41.2889290  99.4470501  69.4582939  76.5488291
  99.7006989  69.0864944  77.3936129  98.5715199  69.8154688  76.6975212
  52.6058102  49.3759155  13.1212223  52.0243979  49.6121645  12.3984659
  52.8934908  50.2148819  13.4812355  44.7716856  50.8229494  22.9156303
  44.9185181  50.5848503  23.8310432  43.8799524  50.5277920  22.7314496
 113.3496666  20.8912253  68.4984779 113.7991047  21.3714051  67.8030109
 113.1853390  21.5478468  69.1752911  15.9977126 103.6536503  33.3589005
  15.2103162 103.1193161  33.4624314  15.6717718 104.5517826  33.3009577
  67.8592300  80.3894520  50.2085733  67.5997591  80.8775139  49.4270992
  67.4688816  79.5234489  50.0906897 100.6111813  15.4183173  29.0175223
 100.0757122  14.9024355  29.6203232 100.1713848  15.3310382  28.1718302
  86.9811821  38.7165165  90.6843567  86.5329647  37.8859735  90.5245686
  87.0636559  39.1147590  89.8178577 111.6980076  46.3004494  86.6384315
 111.0338783  46.2165213  85.9542370 112.4877930  46.5759945  86.1730957
  74.2473412  33.3173227  12.7763557  75.1572132  33.3221054  13.0735826
  73.8097382  33.9603400  13.3342659  73.7879086 107.1694279  87.2437191
  73.1166697 106.7671394  86.6925049  74.6060896 107.0257759  86.7681408
 104.1712379  42.2843218  85.5281353 104.6428967  41.5799713  85.0835419
 104.7653484  43.0336905  85.4868984  89.3026829  49.3105841  83.0680180
  88.4682751  49.7642231  83.1872272  89.8125172  49.8913860  82.5032425
 105.5069923  33.7878489  70.1486444 105.7784367  34.3058991  70.9063864
 105.9857845  34.1701269  69.4132185 112.3615360  52.8886080  88.4860039
 111.7789268  52.2268200  88.1133938 111.9169331  53.1777954  89.2828369
  16.0646617  81.7171955  66.3502836  16.9641161  81.6531849  66.0291624
  15.7632637  82.5743484  66.0491467 111.8195343  88.7164688  43.8598728
 111.7879200  89.6120930  43.5235929 112.7267647  88.5981750  44.1412687
  92.2174740  95.0356197  58.3260727  91.5747738  94.7754765  57.6661539
  93.0361557  95.1296425  57.8390884 104.2187500  69.4521475  85.3276634
 104.4823170  68.7983561  84.6801186 104.9715424  69.5252228  85.9143448
   5.0362837  38.8474846  68.2641840   5.1739830  37.9228711  68.0583715
   4.4042510  39.1467953  67.6105928  11.7310739  64.0677404  77.6518536
  11.5107429  64.1076612  76.7212152  11.9856954  63.1568098  77.7988434
 103.6742592  34.9808669  51.3147306 102.9088211  35.4034233  51.7043304
 103.3766460  34.6957231  50.4508162  19.7238147  23.6680698  80.4755783
  20.0625038  24.0353179  79.6590948  19.9009132  22.7298379  80.4078293
 108.6990261  56.4030504  78.9769602 107.9638577  55.8249950  78.7729931
 109.0640259  56.0492611  79.7880363 105.9761620  36.8688989  55.1673317
 106.2689590  36.0055685  55.4591560 105.7638264  36.7495322  54.2416430
 101.7003059  60.9494400  80.9970665 102.4865913  60.4831505  81.2809086
 101.4750481  60.5498600  80.1569366  37.4123716 107.1177864   3.8974947
  38.0776548 107.5088501   4.4637990  37.3827815 107.6910782   3.1315339
 113.0424404  41.1329842  68.2220316 112.9430771  41.5288734  67.3562193
 113.0474186  40.1904345  68.0552721  84.8988056  19.9389887  36.8665671
  84.0393066  19.5823896  36.6422296  85.2178097  19.3715310  37.5683212
  82.6418877  27.7496386  17.4314368  82.8321648  28.5439110  16.9322824
  81.7078972  27.5955415  17.2894955 113.7228870  52.5411654  86.3014603
 113.0167866  52.2192526  85.7410908 113.3155632  52.6511860  87.1606445
  11.0630202  75.1576471  18.1445730  10.2516782  75.6443262  17.9993129
  11.2330651  75.2498627  19.0820229  85.8366108  16.4926803  69.8167849
  86.2238503  17.1447802  70.4007769  86.0175037  16.8220901  68.9364433
 101.3051033  39.9275470  59.7167492 100.5578327  40.5239534  59.7627449
 101.1338043  39.2760801  60.3968096  51.6538668   9.6250373   2.2997981
  52.5367498   9.9131465   2.5316256  51.2012196  10.4268622   2.0382313
  92.9075146  93.2549953  84.4214821  93.0555916  92.4727345  83.8900852
  93.7775517  93.6390209  84.5300293  41.0620022  13.8964951  24.1431212
  40.2093840  14.0576768  24.5472145  40.9887409  13.0172575  23.7719011
  39.3679595  53.7448692  88.0029392  38.6897922  53.1314516  87.7200222
  39.3362617  53.7126780  88.9590740 110.8605385  17.9143012  52.7355528
 110.1020241  17.3912191  52.9949331 111.6035557  17.3166871  52.8193092
  50.2642965   9.3712151  19.3707216  49.5939875   8.8961303  19.8618567
  51.0934448   9.0245992  19.7002673  14.9309397 108.7827682  12.6715446
  14.1985011 108.8812447  12.0632112  14.5639455 109.0072632  13.5266173
  15.9103060  56.5935373  71.1534643  16.0578406  56.8570423  72.0617771
  16.7886078  56.4596844  70.7972336 111.6592407  84.7903824  56.4549208
 111.3504124  84.8529339  57.3587704 110.8620167  84.8266029  55.9263706
  63.4972858  74.1480255  63.9741182  63.4163761  73.6536264  64.7897482
  62.9880381  73.6457205  63.3380413  13.7370384  11.3183439  36.6042733
  14.4315863  10.6632566  36.6727877  13.2780778  11.2694108  37.4428391
  76.6356897  35.8455729  15.1912045  75.8660555  35.4738021  15.6221163
  77.2641373  35.1242757  15.1593137  95.9462833  47.9930019  57.8915739
  96.7717266  48.0128002  58.3758116  95.5787373  47.1294880  58.0799580
  98.0781174  48.2494879  81.2500572  98.0701447  47.6370430  80.5144691
  98.3467674  47.7192259  82.0003128  37.2175550  26.3486123  22.2899532
  36.6402912  26.2162375  21.5379715  38.0561781  26.6045785  21.9059944
  66.8463707  25.8820033   2.3589993  66.3542891  25.1552701   2.7410296
  66.7886257  26.5797138   3.0117613  99.8752594  66.4465380  10.2805614
 100.6779385  66.3394117   9.7701991  99.3335915  65.6964207  10.0353050
 107.4429989  38.1928396  81.3112831 107.4856567  37.3904228  80.7911491
 108.0833340  38.7764120  80.9042931 104.9554634  65.4600048  73.6148214
 105.5749512  65.1019812  72.9789829 105.4157066  65.4089165  74.4525528
  87.3810291  28.6965728  86.7708397  87.0083714  29.5782304  86.7768478
  87.4317646  28.4643078  85.8436298  48.1241846  17.8694153  19.5390093
  47.3799372  17.2813749  19.4104278  47.7296162  18.7344444  19.6497977
  50.6355667   2.1383306  10.9386194  50.7555532   1.1937100  11.0362208
  50.0981140   2.3903501  11.6895294 111.0355473  88.8556767  47.7928543
 110.5618858  89.6737576  47.6424217 111.6193867  88.7747860  47.0386505
 113.9381027  64.3841457  73.2192898 113.6094379  64.0268898  74.0442610
 113.9420128  63.6379337  72.6198006 102.2039509  52.2113323  74.1517544
 101.3354015  52.5113297  74.4198227 102.8070450  52.8427458  74.5439625
  80.3164959  77.5563860  89.7724819  80.7758045  77.3384047  88.9614677
  79.6064997  78.1363440  89.4972038 100.0177193  62.0486927  69.5062351
  99.3979168  62.3771954  70.1575089 100.7025909  62.7163839  69.4692135
  31.2216234 102.0820618   0.3696860  31.8954730 101.8111897  -0.2538412
  31.6870117 102.6285934   1.0028912 112.2667217  62.4911833  44.0560341
 111.6152000  63.1231117  43.7520266 111.7605972  61.7048264  44.2602682
  20.4011536  34.4358802  84.6934223  19.7793293  34.1729569  84.0148640
  20.8883286  35.1617694  84.3035698  22.1864033  83.9671707  72.5391722
  22.3201656  84.8720074  72.2569990  21.2383056  83.8415909  72.4995089
  77.1733475  91.2222958  79.0595531  76.6621256  90.6791019  79.6594048
  76.5186596  91.6572189  78.5132456  92.1359921  81.0369778  73.0960894
  91.7404747  80.5283928  72.3881721  91.8706512  80.5817699  73.8952208
  73.4170866  27.7939725  21.3596463  73.3947182  26.8378973  21.4002824
  72.5189829  28.0456281  21.1444402  12.9263890   6.9462472  46.7036295
  13.1532586   6.1229873  47.1360731  12.3475611   6.6883719  45.9862137
 109.7738838  64.1770411  75.5997610 109.8586273  64.8596287  74.9340820
 108.8565636  64.2186069  75.8699989   3.3000544  48.1973124  59.3073702
   2.6415133  47.6885176  58.8344240   2.7968267  48.7151480  59.9357367
  12.3150384 104.2908764   3.0328205  11.6439128 104.5739460   3.6538643
  12.8531766 103.6725140   3.5270488   3.3787552  58.7404442  71.8630648
   4.0235728  58.2336235  72.3565960   3.0513617  58.1315660  71.2010098
  67.0086670  51.3618755   4.3127769  67.5960302  51.6498899   3.6140034
  66.5672016  50.5926466   3.9527380  68.2081270  44.8960686   1.7279589
  67.8491306  45.0271749   2.6055479  68.8283968  45.6159735   1.6129044
  20.2437901  52.0715618  90.4695988  19.7260368  52.6756668  89.9374199
  20.9663653  51.8089914  89.8993587  63.5000229  33.6753893  62.8607130
  63.6364698  34.3890786  63.4838200  64.0463257  33.9057922  62.1092510
 104.1650009  87.3058224  67.1798897 104.5668221  86.5690708  67.6402950
 103.3342075  87.4474812  67.6337004  66.7995787   7.0843756  17.7526844
  67.4188280   7.6811820  17.3324668  65.9388590   7.4517757  17.5516617
  93.1970310  82.9721355  56.9178915  92.6852894  82.8867626  57.7222919
  93.8476276  82.2721577  56.9724846  41.1017132 101.9849110   8.5853100
  41.7923069 101.7584133   7.9624057  40.3438139 102.1909809   8.0381739
   4.2418119  43.7228346  79.2182779   4.1765240  44.5851088  79.6287107
   3.9508238  43.8637638  78.3173323  10.5642867  80.3750801  86.2771225
  10.8420193  81.0578346  86.8878078  11.2564278  80.3486729  85.6164551
   3.7495795  90.9526443  93.4195900   3.3159441  90.8304691  94.2641449
   4.6301287  91.2536430  93.6437988  38.7047887  45.6911659  71.1682177
  39.2811131  46.3899708  71.4776516  38.0404282  45.6080961  71.8522930
  69.7361135  72.6737785  76.0397434  70.3643799  72.3502827  75.3940916
  68.8906097  72.6321316  75.5929565  69.4300556  22.1166253  27.4057698
  69.3393278  21.2402844  27.7799726  69.1650820  22.7068853  28.1111884
  12.4214447  47.9297447  89.6778393  12.1837568  48.6409950  90.2727032
  11.8040478  47.2281170  89.8846531 109.3072605  41.4451027  68.1127501
 109.8665428  40.6779194  68.2346678 109.0229988  41.6771984  68.9968061
 114.8026085  62.7328634  69.8023987 115.1422691  62.2177696  70.5342054
 115.3211594  63.5373449  69.8146915 113.4270287  91.7136383  68.2189608
 114.3005848  91.7282486  67.8279209 113.2975388  92.6026821  68.5491943
 100.6434155  81.6018391  74.4843483 100.7098484  81.2399769  75.3680229
 100.8375645  80.8628941  73.9077234  95.1358318  15.5865884  15.5079067
  94.6183109  14.9382484  15.0303531  96.0389233  15.2802992  15.4251325
  22.8032756  70.9050322  61.9914103  23.4780169  71.5805340  62.0596123
  22.8611159  70.5992603  61.0862064  22.5098515  42.9300451  15.2489400
  21.6744184  42.6678848  15.6356633  23.1477094  42.3211956  15.6213295
   0.5984249  79.9866867  65.7732010   1.1024974  79.2314291  66.0760641
  -0.1493710  79.6063471  65.3123569  94.8304176  74.6727467  69.3000650
  94.7719383  74.5218039  68.3566523  94.7715569  73.7990093  69.6865225
   9.9698907  49.2461538  81.0695839   9.4639689  49.8624706  81.5991306
   9.6587473  49.3870592  80.1753998  13.9915955  93.8033009  49.3744612
  13.0499470  93.6938381  49.2420006  14.3269682  92.9107380  49.4587040
 100.9342003  92.8830051  67.1145391 100.7476616  91.9565582  67.2665977
 101.8795300  92.9160690  66.9679213  95.3578568  53.6754513  58.7772274
  94.9258041  52.9569864  58.3153057  94.6687603  54.0611362  59.3181801
  99.5220375  11.3879204   8.7655276 100.1589394  12.0560157   8.5120726
  99.7873497  11.1263335   9.6472383 114.5571995  43.2939291  69.1553020
 114.3697071  42.4982977  68.6572552 113.7806892  43.8405037  69.0347815
 113.9386463  76.0519648  54.6124649 114.2733097  75.3546143  54.0486097
 113.8123512  75.6321096  55.4633474 110.8953190  64.8671913  72.9010296
 111.6744804  64.3111992  72.8967190 111.2186050  65.7344675  72.6569891
 103.5225296  93.8098621  82.2601509 103.7937069  94.0417862  81.3719463
 104.1206360  94.2959499  82.8277969  45.3024387  36.8478370   2.1519701
  45.5156231  37.7806807   2.1277799  45.5821657  36.5160203   1.2988111
   8.1164759  53.7203550  62.0293188   7.2881597  53.2406425  62.0277452
   8.6688757  53.2464838  61.4076042  90.1986790  72.0065784  70.9050322
  90.8001232  72.3118639  71.5842152  90.7490158  71.4997864  70.3079319
  96.2453175 107.7064228  58.9201975  95.7269669 108.2289791  58.3082438
  95.7427788 106.8993759  59.0313625  76.3061476   5.1409549  90.9815502
  77.1477938   5.3440833  91.3897324  76.2901783   5.6747508  90.1871681
 105.0314617  67.9585218  58.4718943 104.7857666  67.0336294  58.4928751
 105.7251740  68.0369711  59.1267586  88.2869244  70.7601976  91.1521149
  88.6111546  71.1895370  90.3604221  89.0718269  70.4092407  91.5728092
  95.6290722   2.2913721  83.7582207  95.6879234   1.5566969  84.3689823
  94.6896458   2.4463026  83.6597347  87.0857239  98.5185814  73.1300974
  87.7798367  99.1352749  72.8974342  86.7052650  98.8774967  73.9317656
 109.0254402  80.6777859  74.3641758 108.2886791  81.1662865  74.7313118
 109.2927551  80.0842285  75.0659323  95.6805706  62.0737982  92.1238518
  96.2790585  62.8203487  92.0971680  96.0760784  61.4721823  92.7546215
   1.9048680  20.1510978  64.0305567   2.0354432  20.0334597  63.0896282
   0.9563625  20.1004887  64.1489124  89.6985626  84.5219803  88.8484478
  90.0957489  85.3922367  88.8819313  88.7771511  84.6709156  89.0607071
  53.8695478  14.2997956   0.5180759  53.6691046  14.1865981  -0.4110315
  54.2973852  15.1545811   0.5683859  22.6948881  67.1573734  80.4385853
  22.2975087  68.0257750  80.5033684  23.2172608  67.1921873  79.6372414
  97.6032829  45.1815319  74.8210621  97.8990746  45.5071449  75.6711864
  98.3634758  44.7237158  74.4622374  17.5278163  41.7043114  85.5278397
  17.8370059  42.1737146  84.7530556  17.8827929  42.2000313  86.2657261
  97.0330811  70.6472540  76.8121719  96.2923908  71.0092545  76.3257885
  97.0200348  71.1116743  77.6490545 112.8025055  30.8276367  60.7600403
 113.6147022  30.3697324  60.9766054 112.1249390  30.1540256  60.8182335
 114.6710300  68.9391994  79.0476179 113.7926674  69.0959501  79.3942261
 115.2546120  69.1143942  79.7858429  20.8615470 107.0365810  11.2555420
  21.3549280 106.2167263  11.2808836  21.5098739 107.7124882  11.4531744
  47.4071026  13.8635647  21.3012004  47.2637987  14.1531122  22.2022343
  47.9709721  14.5366693  20.9201360 109.1683960  72.2168159  71.5023851
 109.0406990  73.0633497  71.9305229 108.6370468  72.2676802  70.7078362
  72.4917936  16.2759149   3.5415295  72.6334906  15.6500554   4.2517781
  72.9308414  15.8845961   2.7863228 101.8727684  59.9534130  84.8958778
 101.0194206  59.9254894  85.3285885 101.8486786  60.7529402  84.3701363
  86.1146164 106.8592167  89.7034073  86.4226913 106.5599537  88.8479710
  86.9129181 107.0921993  90.1774025  95.6550884  39.8705912  84.0651226
  95.2090836  40.6613636  83.7618256  94.9481869  39.2502236  84.2430592
  76.7436361   1.6646400  19.7739530  77.6244116   1.5024441  19.4360816
  76.2622929   2.0203492  19.0269530  84.5927334 106.7913151  93.0391407
  85.0496101 106.2181854  93.6547852  84.4354248 106.2414360  92.2715950
  12.2257292  89.4605350  72.3697901  11.5861750  89.6416283  73.0585623
  13.0737853  89.6314240  72.7794647  14.7371447  39.6369457  77.1458054
  15.2537560  39.4396734  77.9271030  15.1031756  39.0697885  76.4671373
  98.2717705  83.6064720  91.1730576  98.8570023  82.8588295  91.0515022
  97.5232315  83.4192753  90.6065941 103.8788986  84.8465347  65.3039980
 103.1491280  85.1995945  65.8129358 103.4619617  84.3731785  64.5840502
  66.5655136   7.5318825   0.0468396  66.7085743   8.3002865   0.5993989
  65.9198666   7.8182817  -0.5991820 107.9464436  63.5721302  51.4362144
 107.8914165  64.4816303  51.7294931 108.8714695  63.4437180  51.2262821
   2.3747306  87.2435093  86.8137074   2.1455261  87.4780369  87.7129841
   2.0001204  86.3712788  86.6907597  91.6047764  40.4565620  25.1084447
  91.2450695  40.2023506  24.2586112  91.1596680  41.2768173  25.3212547
  94.9007225  14.4159341  10.1325512  94.2672825  14.0544319   9.5126325
  95.7540131  14.2002583   9.7562402   5.5382007  60.4355097  70.9250355
   5.0067222  60.0484943  71.6207266   5.3244793  59.9215698  70.1463079
  46.2910032  33.4559226  26.2026572  46.6474056  34.1835856  25.6930304
  45.4197741  33.7521410  26.4661813 111.6406631  48.1567812  90.7544136
 110.8481789  48.6804962  90.6364155 111.5650177  47.4581242  90.1045036
 113.9074707  79.0503311  73.8842487 114.3981171  79.6852541  74.4061470
 113.2917595  79.5807600  73.3785057  33.1363273  76.7442894  66.2657690
  32.6264215  77.5079679  65.9955406  34.0227389  77.0816565  66.3949585
  44.0193892 105.2003288   8.4857357  44.0341520 105.4619884   9.4063574
  43.3951044 104.4754791   8.4527403 112.4798393  84.5679283  72.2553825
 112.5900078  85.4527473  72.6035166 111.6062737  84.3039417  72.5442219
 101.4684391  97.4970818  77.6372814 102.2009087  97.5377941  77.0224047
 100.7625484  97.0818710  77.1417522 112.3526955   5.0660729  20.4678702
 112.0677471   5.5860573  19.7164357 113.3032417   5.1767594  20.4891133
  38.1967497   6.6730505  21.4347005  38.8724518   5.9960091  21.3990188
  37.7993202   6.6609162  20.5639911  75.8844948   3.7177444  76.7695332
  76.2981606   4.5371336  77.0410395  76.4414549   3.0336571  77.1410847
  49.5654011  93.3484554  71.1588717  49.5332956  92.8630352  71.9832325
  50.0412083  94.1512108  71.3719940  91.8399048  72.9615498   5.6142026
  92.2181511  73.7141609   6.0688859  91.6591835  73.2816887   4.7304139
  97.2035217  66.0480642  15.4409671  96.5491390  66.1849308  16.1260152
  96.7156982  66.1381197  14.6223354  98.4414673  24.4199896  46.4730167
  98.3840752  24.2908192  45.5263090  98.1396675  23.5919285  46.8464613
  62.3381519  99.9006748  71.3777828  61.8109369 100.5326366  70.8890152
  62.6873875 100.4001141  72.1159029  62.1556664  20.6846333  89.2044544
  62.8383398  21.2803960  88.8958263  61.5826511  21.2336731  89.7396469
  52.3498201 108.0272579  90.6308937  52.1224594 107.1246624  90.8541965
  53.0732155 108.2445049  91.2188816  74.3771124  30.8348012  56.1629391
  75.1672888  30.2985001  56.2279797  74.5633554  31.6022873  56.7037821
  65.1567316   0.0540947  72.8506565  65.6858540   0.6496608  72.3200369
  65.0576353   0.5045008  73.6894369  73.7510109   4.8473567  63.9004469
  73.7704945   3.8918728  63.9543247  74.4959116   5.1323301  64.4297361
  58.9163256 107.5068951  58.0945301  59.7097969 108.0385876  58.0317688
  59.2034483 106.6210556  57.8729820 101.4627266  22.3832726  61.0053730
 101.9494057  22.0533729  60.2500343 101.2514114  23.2885766  60.7773399
  85.1873302  30.8052897  55.8237696  84.7950363  31.2814736  55.0919342
  85.8907223  31.3767505  56.1318207  30.5423546  99.2016220  82.1499443
  29.8458338  99.7319698  81.7628860  31.1082339  99.8348331  82.5915909
  50.1731300  86.3621235   1.8172181  50.6915283  87.0542717   1.4068240
  50.7477999  86.0005379   2.4919347  87.8942680  15.3573287  65.8099079
  87.4895763  14.5298946  66.0703182  87.4387169  16.0204339  66.3285589
  91.3043308  55.3788137  51.1794376  90.8295345  55.6903362  50.4088831
  90.9271908  55.8712864  51.9084549  40.5800533  22.0545793  63.4467936
  41.1510754  21.3270354  63.2001305  40.5649662  22.0334482  64.4036388
  73.3490896 100.2295017  48.6476183  73.0125189 101.0849476  48.9143658
  74.2889309 100.2766228  48.8228559  88.3210564  87.2790146  -0.2182463
  87.8255081  87.5301647   0.5612309  88.2802296  86.3227558  -0.2302077
  38.3631206  19.6377230  62.5495815  38.6938024  18.9579940  61.9623423
  39.1492581  20.0237179  62.9358816  44.7552252   9.5495230  58.3074665
  45.2199697  10.3849447  58.2593775  44.0117216   9.6545362  57.7138281
  60.3267384  94.3573093  76.7981911  59.4300127  94.6543980  76.9526291
  60.5300713  94.6595097  75.9130001  62.0405674 100.0172329  26.0607910
  61.6793680 100.7494736  25.5611944  62.4390745  99.4502354  25.4005408
  80.9757042  19.6469104  48.2350445  81.7094707  19.2074311  47.8052950
  81.3436699  20.4709554  48.5540819  76.9374990  24.4168401  75.7728386
  76.4992762  24.8283744  75.0279713  77.8118992  24.8061728  75.7813025
 101.6837978  32.5840068   5.1427156 102.5620365  32.7538443   5.4834187
 101.3372135  31.8932772   5.7075232  47.0169449 102.4462032  60.4634333
  46.4949512 102.6214409  59.6804619  47.8438759 102.9022121  60.3069925
  49.1299343  15.7460332  76.9678354  49.8149204  15.9554386  76.3328743
  48.3771896  15.4930425  76.4334202  42.4966717 108.5743046  67.1545744
  43.3624268 108.9824104  67.1425104  41.9416904 109.2034912  67.6153898
  70.5059958   5.4812348  70.0719643  69.9468708   5.6233877  70.8357716
  71.2978411   5.0770241  70.4266834 115.0569725   5.8110952  56.9988155
 114.6521378   5.0454050  57.4063206 115.0139523   6.4910686  57.6711416
  37.8001595  91.5292168  77.3739386  37.1065712  92.0142460  76.9268179
  37.3785043  90.7199287  77.6628828  66.6892672  12.3976350  68.2537413
  66.3346243  13.0329144  67.6317453  66.1291552  12.4797833  69.0255928
  90.8452511   4.8673567  57.8260708  90.1724911   4.1886640  57.8808546
  90.8046818   5.3136456  58.6718893  55.6698942  84.5159149  88.8097000
  55.7778120  83.7966633  89.4320011  55.5920649  84.0860844  87.9579830
  50.2653885  94.7700214  53.1745625  49.6586037  95.0132751  52.4753714
  49.9147606  95.1980305  53.9556503  28.5078311  93.3941746  64.8549223
  27.6323438  93.7654781  64.9639177  29.0961790  94.0587997  65.2131844
 114.8735809  54.2859602   9.1263270 115.2263737  55.0781918   8.7211919
 114.1860294  54.6024132   9.7123021  85.4953194   2.2554784  54.8438025
  85.5354118   3.1509712  54.5080709  85.3618240   2.3586869  55.7860136
  70.6235790  81.4355755  85.1179409  70.4315948  80.5543041  85.4384518
  70.7671499  81.9527054  85.9105396  94.5120907  22.4613452  86.2158775
  93.9924431  22.9718614  85.5949306  94.0475368  22.5514364  87.0479298
  43.6874676 106.8521690  77.9679251  44.0856409 105.9817982  77.9802418
  43.3968210 106.9698143  77.0635414  71.8007517 101.4298534  77.4876642
  72.1523762 101.5459633  78.3703327  71.3787556 100.5709648  77.5090218
  74.6297169  34.8441792  54.9451399  74.9582052  34.5375943  54.0999556
  74.3748379  35.7532668  54.7875690  84.9420166  34.8000503  56.8770266
  85.7118607  34.2967558  56.6119385  85.2723598  35.6876087  57.0161152
  17.0319915  82.6455688  62.7291822  16.3275003  82.1750832  63.1747866
  16.6874290  82.8191185  61.8531752  77.6336765  18.7656569  48.9999628
  78.3619738  19.2851806  48.6595154  77.4613142  18.1180859  48.3164597
  34.0959644  15.3221118  52.1072197  33.8931656  15.5901742  51.2109804
  33.4041977  14.7004747  52.3336267  18.2104516  96.2767124  66.1251354
  18.5227895  97.1381855  66.4017963  17.3734510  96.4521408  65.6951523
  51.7555332   2.2426616  74.3740082  51.3827562   2.9464048  74.9050570
  51.0027790   1.7069259  74.1238451  14.3449450  24.8540926  84.0964699
  13.7814391  24.9449348  84.8648739  13.8674235  25.2977252  83.3954716
  76.2961864   9.7970140  71.1062860  75.8125114  10.5945623  71.3212395
  75.7993746   9.0950036  71.5265083  75.0315809  92.3293400  65.9922695
  75.5129099  92.0687008  65.2070141  74.4610357  91.5844822  66.1817265
  92.2729397  22.6388240  58.3956814  92.6556587  21.7949939  58.6359024
  91.5531254  22.4159980  57.8053904  44.2889404  66.2467384  78.5560751
  44.2519903  65.3287888  78.2872963  43.9377069  66.7296743  77.8079844
  98.1557369  34.5915055  54.1642523  98.0037022  34.8253751  55.0799036
  98.0723858  33.6381674  54.1435289  44.3246174  15.1439285  63.0719090
  44.2262602  16.0819304  62.9084778  45.0488091  15.0840104  63.6949587
  70.5419111   5.0210494  54.4406319  70.0762367   4.1908699  54.5415306
  69.8557138   5.6578612  54.2410469  88.7358475  34.1969585  79.1020298
  89.4664860  34.5287108  78.5801792  88.0278397  34.8223662  78.9476633
  76.7205763  19.9623978  57.2418737  76.3239717  19.2003012  57.6639509
  77.1852493  20.4122257  57.9475403  72.7242041 103.5053349  43.4520531
  73.0667734 104.3769741  43.6498308  71.9849205 103.3971024  44.0503645
  33.2011747 103.2043171  93.9760303  33.5901499 103.7992191  94.6171379
  32.2944403 103.4999180  93.8942719  29.7285676  30.6229615  11.9027436
  29.2059946  29.9353409  11.4900362  30.6303144  30.3077650  11.8415987
  48.1118107 105.1266003  79.0851927  48.3367682 104.3128872  78.6340809
  47.7048063 104.8421478  79.9035215  35.7248545 106.5168571  88.6290836
  35.2474117 106.3202953  89.4350910  35.9093833 105.6597614  88.2449341
  33.0834222 102.3610401  88.0987263  33.2691360 101.6210747  88.6768150
  32.6760435 103.0136108  88.6683178  92.2455788 105.4647827  57.9769564
  93.0673027 105.3837299  57.4927759  91.7281723 104.7090244  57.6988602
  71.7060566  33.5128546  78.8735485  71.4536238  33.8071585  79.7487020
  72.0762444  32.6409912  79.0115547  62.7362633  33.8848209  76.3644981
  62.7810049  34.8354125  76.4674902  62.6148701  33.5529757  77.2540855
  50.7440233  99.1895676  84.0964508  49.8264408  98.9375401  83.9927006
  51.0605431  99.3150997  83.2018661  54.4184971   1.9940865  61.9308853
  53.9200592   2.8035924  61.8191338  53.9072323   1.3318664  61.4658022
  74.3813086 106.6980362  35.7020283  74.7945929 106.0285282  35.1568794
  73.7799025 107.1506977  35.1107240  59.4410229 101.9526291  81.2527847
  59.5763016 101.0342789  81.0192013  60.2545786 102.2121239  81.6852379
  11.4013278  71.7948961   6.0000873  11.3222325  72.6769352   6.3633722
  10.7176495  71.7489433   5.3317273  15.8564353   1.6185689  74.1153622
  15.4437256   2.4100381  73.7697029  16.7515814   1.6481748  73.7776184
  51.5732718  29.4615936  71.1010838  52.4555397  29.1599464  71.3175106
  51.0099792  28.7119007  71.2931633  43.1169748  13.8815165  91.2647057
  43.3032656  12.9813826  90.9977150  43.9166737  14.1715491  91.7035580
  95.7336140  56.4690876  82.3300457  96.4317799  56.9960737  81.9413567
  95.8816814  55.5868006  81.9896317   2.0709683   3.4124392  56.7707491
   1.1953956   3.0333734  56.6938496   2.3902737   3.1074226  57.6200104
  49.0956736  81.1108398  93.7222004  48.2680511  80.6368160  93.8033390
  49.5092392  81.0193348  94.5805836  83.0145741  19.9305391  69.3470001
  83.8063622  19.7992110  68.8254118  82.3289394  19.4722116  68.8611221
   0.6685221  35.2589679  10.5900550  -0.1279674  35.2810478  11.1204779
   0.8800757  34.3285227  10.5142355  50.3619242 104.7732639  67.8360462
  51.0021877 105.2439022  68.3697128  50.8013916 103.9564610  67.5995350
  76.4213181   9.4873184  75.6252432  77.2629499   9.0354365  75.6860209
  75.7907867   8.8702470  75.9965706 104.8655033  44.0575314  57.8935909
 104.1367722  43.4969473  58.1599140 104.7952080  44.1049290  56.9401503
  39.6672726   2.6830879  91.0600948  38.7906313   2.5395834  90.7035351
  40.2220392   2.0609874  90.5895042  56.6082954  20.3281641  62.4132061
  56.2394905  21.2109113  62.4444675  56.2143230  19.8774028  63.1600857
  26.7883635 105.4840183  79.1799927  27.6503015 105.7302475  79.5156479
  26.3022709 105.1994896  79.9539375   8.1355667  73.8156557   6.4596641
   8.4205258  72.9705143   6.8071789   8.3681536  74.4457722   7.1416402
  55.4869318 102.8414631  89.8108387  56.1853075 102.3358345  89.3951130
  54.8622131 103.0116558  89.1058636  77.6105356 103.2526112  89.7898293
  77.3306894 103.5374451  90.6597614  77.4245787 102.3137856  89.7738647
  92.3995495  31.8041468  57.6064634  92.3371887  30.8664536  57.4245977
  92.1952534  31.8814754  58.5384035  46.6712093  12.2538877  80.2087212
  47.0221615  11.3895488  80.4231453  45.7549953  12.2151864  80.4831028
  86.4178276  36.4988756  67.2258091  86.8409729  35.8386731  66.6768932
  87.0040131  36.5981054  67.9759932  52.7675772 104.1042995  56.6936207
  53.5483313 104.2343426  57.2319031  52.0641470 104.5276928  57.1857166
  91.2994862  10.5868447  51.3453960  91.5225220  11.4675081  51.6469288
  91.9890118  10.3663015  50.7191801  26.8111730 103.8229370  68.1938744
  27.1805954 104.6379089  67.8538895  26.2813449 103.4813118  67.4735928
  97.3477364  31.2260175  62.8913736  96.7474079  31.1255884  62.1526289
  97.8622437  30.4188538  62.8933382  67.4501705   7.9904991  79.6804953
  68.1961107   8.5899687  79.7014523  67.5107002   7.5039965  80.5026150
  93.0379200  24.2789817  68.0413437  93.3251572  23.8498735  68.8473177
  92.4461460  23.6478758  67.6317787  83.7527084  28.0167150  35.9562993
  82.8607273  27.7211714  36.1386800  83.9085007  27.7611685  35.0470924
  59.7431421   9.0607697  62.4523687  59.4191170   9.4087064  63.2831383
  60.0005627   9.8353648  61.9524002 109.6629429  24.6743107  83.8439655
 109.3853855  23.8948917  83.3626175 109.6431541  25.3768325  83.1941223
  73.4357214   9.5145881  63.8874054  74.1243458   9.1007382  64.4077539
  73.7012815  10.4320991  63.8251019 112.8195858  11.3417459  64.7625542
 113.2670975  10.9540057  65.5146360 112.7308083  12.2677791  64.9879694
  34.9283433   6.2496340  13.6397326  34.1325068   6.6422600  13.9985132
  34.6261334   5.4548830  13.2001054  76.0105133  13.9262211  92.8927517
  76.3313580  13.9134300  91.9910240  75.1526451  13.5040021  92.8477478
  74.2754650  19.3450928  84.5127487  74.7728014  20.1546764  84.6287537
  73.4395361  19.6284950  84.1424179 107.2418022  61.8157196  55.1578045
 107.4292564  60.8792686  55.2222633 106.8776798  61.9271994  54.2796087
  17.9959297   6.2815058  48.2637978  18.7608111   5.9241927  47.8126717
  18.2993031   6.4450949  49.1567898  27.7834725  57.2803736   2.9025409
  28.5352612  57.6760578   3.3435351  27.8768158  57.5439072   1.9870806
  86.3424110 104.6770382  52.8605080  86.5375900 105.4656601  52.3543262
  86.1052227 105.0024223  53.7289000   3.2154185  29.4196820  65.2132654
   3.1222594  29.6744084  66.1312342   3.1235191  28.4669185  65.2185678
 104.4333553  29.2203951  70.9145069 103.8752842  29.4134736  71.6678429
 103.8509846  29.2981267  70.1588392  15.0957751  69.3238878   7.7120942
  15.3560662  70.0720882   7.1748054  14.1723156  69.4804478   7.9094338
  64.6534634  17.2334599  71.4946032  65.0370836  17.4865019  72.3342657
  65.3553438  17.3728907  70.8588696  37.1157050  52.9172325   8.9129686
  37.4613905  53.2009220   8.0666506  36.5295935  52.1907711   8.7009448
  63.4338808  24.8956585  83.6105061  64.1532278  24.9057770  84.2419052
  62.8559351  25.6038666  83.8945007  97.5574207  41.4164782  70.7818747
  98.1262207  40.6807613  70.5551052  98.1380749  42.1774435  70.7804632
  77.0045280  22.9255891  78.0484438  76.9168997  23.2595682  77.1556854
  76.6930246  23.6406493  78.6033201  77.9308367  45.0982332  22.7904606
  77.7807140  44.1788244  22.5705099  77.2242165  45.5687571  22.3482656
  74.8054934  59.9297428  19.4030869  74.9019718  59.8248720  18.4565532
  74.3356657  59.1446543  19.6843910 101.8631268  29.6946669  69.7367048
 101.5859509  30.6049037  69.8409748 101.7452621  29.3075395  70.6041574
   0.0387048  17.4533629  64.2632341   0.4421332  16.5954912  64.3956423
   0.6923459  17.9523849  63.7733746  95.5475044  12.6494718  79.1589260
  94.9964142  12.9454601  78.4344101  96.3504791  13.1636298  79.0746403
  22.3349810 107.1333981  45.6760693  22.8445935 106.6770267  46.3455868
  22.7179813 106.8470001  44.8468971  98.7983131  28.2999039  87.9499149
  99.4795322  28.2708383  88.6217213  99.2665482  28.1555724  87.1276188
 101.7569828  23.6668110  66.9424963 101.4488697  24.5387864  66.6956091
 100.9696198  23.2090664  67.2370434  98.3059788  13.6268640  64.6442556
  98.0731487  13.2156479  63.8118362  98.9374638  14.3061292  64.4074869
  85.1118088  27.4149966  45.1834297  85.6314945  27.3728585  45.9861660
  85.3750324  28.2375026  44.7705984  79.7575808  95.2069759  42.6909447
  80.4552555  95.8495617  42.8196049  79.4071817  95.4045391  41.8223715
  85.7356358  16.8663180  60.4222584  86.2194443  17.6433945  60.1424122
  86.0778332  16.6725123  61.2949419  73.2132769  17.4523342  87.7030277
  74.1269112  17.1670330  87.6926231  72.8609610  17.0979011  88.5194111
  71.7648792  13.1332910  87.7099705  71.5546274  12.7349997  86.8653393
  71.3224936  13.9819241  87.6913452  54.8551941 104.6575165  58.2481098
  55.2569151 105.2694225  58.8648891  55.2657604 103.8154221  58.4444284
  30.2724385  13.3879673  10.1140201  29.4855261  13.8806736  10.3469133
  30.6660080  13.1539154  10.9545875  81.5103722  12.5708473  89.8307991
  81.7969418  13.4587562  90.0446415  80.8186436  12.3831058  90.4652309
  95.3984451  32.3001122  78.4766817  94.9140930  32.7594399  77.7906370
  94.7336197  31.7885804  78.9377451 107.7796555  25.5112290  44.0841818
 107.1669579  25.4118800  44.8128557 107.9529667  24.6159458  43.7932158
  81.1000156  97.5421143  77.7876425  81.4630032  96.6564178  77.7866125
  80.5256939  97.5646973  78.5530663 101.9376469   2.2618669  61.5263319
 101.8590736   2.4599604  60.5931568 101.1434364   1.7697531  61.7344141
  82.9404640  14.5056438  77.0911264  82.2245884  14.4315326  77.7222013
  83.4651947  13.7173140  77.2305059  80.1588249   9.2169434  74.0404320
  80.9464741   9.6511120  73.7128067  80.4803562   8.4119546  74.4464350
  89.7999668  43.7918901  58.3028316  88.9394760  44.1290379  58.0536175
  89.6130371  42.9696751  58.7558842  43.7783432  88.8976097  80.6781101
  43.5435677  89.3647099  81.4799404  44.1344738  88.0629635  80.9826756
  97.0120716  42.7964211  62.7871513  96.5440559  42.9298258  63.6114025
  97.9008102  42.5593042  63.0520201 110.9355354  70.6276989  79.5308876
 109.9886322  70.4970074  79.4805145 111.1183262  71.3075066  78.8822889
  83.2292557  11.2540364  88.0226803  83.6161232  10.4711020  88.4145737
  82.7628040  11.6771793  88.7435150  88.2078266   1.9442330  68.5231829
  88.7645626   2.6105192  68.9260912  88.7254047   1.1403095  68.5684109
  82.8474331  39.6009159  92.0520496  83.4395027  40.3529787  92.0610619
  82.3291874  39.7136211  91.2552166  88.6266804   4.5403075  72.0652771
  89.1627407   5.3323650  72.0262575  88.4163666   4.3481773  71.1514473
 105.9913254  52.2235870  86.6659260 105.5250835  52.8617668  87.2059155
 105.3845978  51.4873981  86.5875626 111.4188576  36.4434767  51.8952656
 111.7260838  35.5431843  52.0016575 111.1774921  36.7202234  52.7792215
  97.3058128  27.3314238  44.1180086  98.0305099  27.6366878  44.6637774
  96.6257954  27.9958320  44.2292643   2.2056061   5.2297473  63.6661768
   1.9255368   4.9884343  62.7832508   2.4878618   4.4050509  64.0617037
  10.1893592   4.5256439  53.7105894  11.0158002   4.3589824  54.1638565
   9.8567218   5.3307462  54.1073179 111.4618778  73.6958838  20.4429460
 111.3144684  74.2599487  19.6837795 112.3613644  73.8845444  20.7104540
  69.2730141  12.3745418  81.7159843  68.5836554  12.9561198  81.3953781
  70.0619364  12.9166079  81.7180634 103.2340717  51.3893986  62.1888590
 103.3934498  52.2635746  61.8329763 103.5299015  51.4431572  63.0976057
 100.2213955  37.2525883  84.0545845 100.5811596  37.7413630  83.3143806
  99.3118763  37.0821452  83.8097000 108.6805630  16.5237308  69.8801279
 109.2042637  15.9158862  69.3581247 107.8259754  16.0993075  69.9561691
  29.5453596  80.9697914  20.1614308  28.9769053  81.6675758  19.8355770
  30.4327011  81.2788105  19.9787605  74.8527575  18.3172047  91.2287903
  74.1543341  18.9716065  91.2425900  74.5703983  17.6522660  91.8567753
  14.1360486  53.4916162   6.9969195  13.2701278  53.6678076   6.6289926
  14.2375112  52.5424051   6.9266891  87.2573566  24.8788285  90.3346920
  87.0433235  25.6384754  89.7930622  86.8802071  25.0812173  91.1908627
  34.4346881  46.1741734  74.6322966  34.2169547  46.9126987  74.0636063
  33.6016440  45.7226896  74.7680664  93.1032276  15.3198647  65.4499674
  93.0714226  15.9405327  66.1779737  93.8413429  15.6142271  64.9163389
 109.4323254   1.7086507  60.7249308 109.0017414   2.5251809  60.4717398
 108.8742924   1.3471143  61.4134932  81.8213940  19.2788029  89.5759583
  81.2090206  19.9654675  89.8400021  82.1584988  19.5711827  88.7291336
  68.5049295  34.4276309  37.2379827  69.0979958  35.1716065  37.1330953
  69.0791702  33.6914539  37.4489737 109.8080158  58.3932447  57.9858208
 110.0299072  59.1876936  57.5001860 109.9358368  57.6839256  57.3559332
  78.0941343  34.4602418  52.8775740  77.8062534  33.8394618  52.2082567
  78.0318356  35.3159738  52.4532270  48.8987923  75.3618956  87.1882248
  48.0192757  75.2173901  86.8392277  48.8707447  74.9900532  88.0698013
  88.1532764  22.1640897  92.6880646  88.8193035  21.4842153  92.5860691
  87.3883152  21.8212438  92.2259712 100.7596493  13.9907146  52.6817703
 101.7099476  14.0887487  52.6220942 100.4153347  14.8566926  52.4632263
   9.0208310  15.3151000  71.6185045   9.4615000  14.8497415  70.9075308
   9.6247792  16.0192513  71.8544054  77.6105499  31.7696667  58.6767721
  77.9963255  32.6456714  58.6717176  77.5569057  31.5369272  59.6036959
  67.7802420 108.7749290  71.7080259  67.0703697 109.2789555  71.3101912
  67.8934288 108.0218029  71.1281824  68.3329821  15.3391349  93.1333733
  67.5954342  15.9300971  92.9816532  67.9678392  14.6320367  93.6652660
   9.5320618  20.0034571  53.8518238   9.8352724  19.8985946  54.7536564
   8.6451769  20.3534555  53.9364910 107.2487259  14.1814339  79.3812370
 106.6017246  14.7762907  79.0020657 107.9820156  14.7473884  79.6225071
  85.1822472  13.3128715  69.5669365  85.0029659  14.0909719  70.0948095
  84.3590164  13.1378841  69.1109705 101.1989498  25.0510311  54.5861006
 101.9959354  24.8990536  55.0939894 101.1618328  24.3167138  53.9732122
  40.1867914  99.3613052  83.4815598  40.2358866 100.2437687  83.8490963
  40.9662056  99.2875195  82.9308224  27.7329588  84.6530342   2.9232472
  27.8353596  84.0404987   2.1948583  26.7975783  84.8558426   2.9359454
 101.8033886  77.7424479  43.1743288 101.4440632  76.9658613  43.6033154
 102.6975918  77.4943018  42.9396963  25.0219345  79.9192524  14.8767090
  25.2858567  79.2387295  14.2574656  25.1351619  79.5166063  15.7376885
  28.4000349  91.3186169  48.2196999  28.2363057  90.6281662  47.5772762
  27.5279641  91.6143513  48.4809828  97.3523331  25.4817033  57.7148056
  98.1267548  25.0162745  57.3987770  96.7253590  24.7892404  57.9236889
 108.1727314  47.5633907  90.5837345 107.5864029  47.7941275  91.3043022
 107.9200268  48.1511259  89.8717308  68.2052279   0.4212658  23.8518310
  68.2928801   0.9017593  23.0286193  68.0229759  -0.4797480  23.5850143
  99.3931103  18.8572025  92.1340847 100.2716541  18.9548433  91.7668533
  99.3795300  19.4518948  92.8840065  77.8895473  20.6132197  83.8809967
  77.7295446  20.1880717  83.0384541  78.6610985  21.1594987  83.7309361
  63.0022144  34.7494793  51.1923265  62.4324226  35.2311492  51.7919636
  62.5671721  33.9049673  51.0749769 101.3851070  45.1204395  70.6434250
 100.6666756  45.6484222  70.2951145 102.0848656  45.7509041  70.8139992
  58.5489082 105.9006691  52.0405293  57.6552153 105.5747128  52.1468210
  59.0903997 105.1116943  52.0169878  60.1821709 103.2522583  46.4431763
  59.9683332 102.3574543  46.7074251  60.8704138 103.5233974  47.0506573
  68.2065058 102.2624397  62.0171261  67.2774029 102.0483398  61.9324923
  68.5184717 102.3359871  61.1151791 105.1258278  45.7336235  68.1558561
 104.5273113  46.4740944  68.2544231 105.2211094  45.3831482  69.0414762
 109.9687099 106.9540405   9.4154012 110.4477978 107.4670315  10.0662172
 110.5386257 106.9505501   8.6463630  68.7725592  48.0668354  30.5362678
  69.6173716  48.0948019  30.9854245  68.4869623  48.9799404  30.5061603
   6.0883117  14.4704759  94.2322159   6.0763043  15.1538312  93.5620499
   6.9769114  14.1163528  94.1972923  15.5858839 101.2487507  24.8828721
  16.5268803 101.2101460  25.0539494  15.4782450 100.8142757  24.0367770
  21.3020802  82.6635933   6.6465068  20.4174089  82.6007080   7.0065522
  21.8727160  82.3871708   7.3635817 104.4117165  78.6054325  28.7435842
 103.4819126  78.4582376  28.5702991 104.8379612  77.7934837  28.4692001
  97.4652863   5.8375013  62.1366119  97.2968960   6.5819997  62.7141905
  96.8164635   5.9245843  61.4382696 109.9081326  35.2634239  57.3749161
 109.3387318  36.0299373  57.3080826 109.6538925  34.7110128  56.6357040
  34.3341780  37.9866052   0.6734897  34.6622682  38.8760448   0.8057220
  34.7888947  37.4630237   1.3332810 103.9167500 102.6478100  20.9687066
 103.2180405 103.2236862  21.2792015 104.6196461 102.7571964  21.6091800
  95.4153633  17.7307153  66.0050678  95.7611275  17.1431494  66.6769648
  96.0205460  17.6359427  65.2695370  78.9240074   3.7405965  76.5912104
  78.6258602   2.8511423  76.7814970  78.5126734   4.2806104  77.2660542
  83.5807037  15.2298152  60.5175066  84.1759109  14.6987689  59.9883986
  84.0087700  16.0840344  60.5749893  75.1304007   7.5619811  65.3709269
  75.7502079   6.8337727  65.4131508  74.5024586   7.3829275  66.0708237
  24.1240907  97.0575905   0.5032142  24.8649645  96.9406986   1.0979188
  24.3349695  97.8509426   0.0109280 108.7457275  24.5217443  50.9462261
 109.3135357  23.7517834  50.9148359 108.9765263  24.9562287  51.7673159
  64.9575901  21.9622707  45.3786278  65.0537109  22.6731491  44.7448683
  64.3886995  22.3229742  46.0586882  23.2363343  48.3756399  59.3375015
  23.2333207  48.7266254  60.2280235  22.4828267  48.7879086  58.9150190
  32.3229814  60.5447721  12.9893482  31.8215823  61.3568735  13.0623066
  31.7586398  59.8787594  13.3819985 100.8164692   3.2288530  52.5039339
 100.9274673   4.1364846  52.7869844 101.5770149   3.0563343  51.9489193
 109.5370770  42.9994392  56.3342476 110.2765656  42.5582647  56.7522764
 109.9144650  43.7940121  55.9567976  89.8819447  13.3966494  88.4832859
  89.6274948  14.2849135  88.2333374  89.0524864  12.9435742  88.6347771
 106.7179394  54.5962143  78.2200384 106.1833668  54.3395615  78.9714289
 106.1550236  55.1827908  77.7147913  53.9432812  19.0293908  68.9411020
  53.9293289  18.0727923  68.9719915  54.0720272  19.2965651  69.8511982
  64.2350864 100.9168625  87.2190475  64.9695063 100.7201099  87.8005505
  63.6851978 101.5172482  87.7224350  87.8580379  18.6784923  73.9481592
  87.1279907  18.2738900  74.4167233  88.5465813  18.0136156  73.9575481
 113.4549236  40.4030514  76.6823959 113.5586929  41.3019753  76.3703108
 113.2930851  39.8914909  75.8897114 110.2645493   5.1255673  83.5643387
 111.0561275   5.1313621  83.0261898 110.1228333   6.0444862  83.7917995
  44.9798059   1.0146573  75.6831026  45.6878567   1.2669392  75.0904322
  44.2223597   1.5137483  75.3774691 107.5834560  22.5928164  56.9905281
 108.1816769  21.9353127  56.6354799 106.7864418  22.4979925  56.4689779
   2.3440395  95.1974106  22.1989655   1.8563995  94.6789265  22.8389764
   2.1132754  94.8128033  21.3533545  15.7022154  55.6517220   4.6016192
  15.9379947  56.1647320   3.8286647  16.3585961  54.9558973   4.6366221
  18.9439511  88.3080578   8.6962515  18.9283609  87.3554707   8.7888056
  18.1717348  88.6079597   9.1758060   0.0514443  31.3149095  38.4192038
   0.4756448  31.3853216  39.2743802   0.6401834  31.7753172  37.8211713
  95.0625610  37.9977536  70.7846737  94.6837807  38.8759589  70.7457829
  94.3123055  37.4191260  70.9207916 109.6466923  25.2387190  46.4186907
 109.7025585  25.1271868  45.4696512 110.0754929  26.0778069  46.5868902
 107.5116348  29.4696546  56.8495750 107.2733688  30.1064062  56.1757708
 107.2269535  28.6275053  56.4946461  63.0194092  39.2102814  58.6786652
  63.2112598  38.5235095  58.0400991  63.8748837  39.5800161  58.8970613
  67.1418476  20.8049655  62.8945255  66.9704580  20.1627946  62.2057056
  66.3041830  20.8990622  63.3480597  27.5169420  31.5996265  74.0144539
  27.8486919  30.8003283  73.6054325  27.5633311  32.2596598  73.3227634
 104.9311638 106.3134766  65.8701420 104.7896957 105.6480217  66.5434790
 104.0801716 106.4053154  65.4416323  59.7634840  21.7872334  84.2535782
  59.7317505  22.6879883  84.5758724  60.5672503  21.4269662  84.6282864
 109.0713120   6.7820096  66.4837599 109.9582958   7.0701295  66.6993427
 108.7113094   7.4921560  65.9524250  81.4585781  13.6991215  65.1077414
  81.6959286  13.9650154  64.2193747  81.2963867  14.5221305  65.5688095
  94.2829514   3.4115517  71.8958998  93.6245251   2.8543064  71.4809561
  95.1063061   2.9377770  71.7781639  41.8656969 109.4528961  63.5143566
  42.7519703 109.1488361  63.3186769  41.3215256 109.0599346  62.8319407
  35.7585335  66.2508917  11.9354367  36.2485838  65.5400562  11.5221643
  35.0973487  65.8082438  12.4675333   8.0145669  23.4473515  62.0085335
   8.1576800  22.5117517  62.1513796   7.9535079  23.5378647  61.0575819
 101.9688511  57.2066641  84.3607807 101.9099617  58.1591272  84.2861176
 101.7864990  56.8854618  83.4777164 108.6726761  27.1985030  89.4831562
 108.5432625  27.0716095  88.5432720 108.4146309  26.3642883  89.8752403
   9.1236997  15.9787858  45.9878063   9.4572848  16.2599802  45.1358175
   9.6869707  16.4205706  46.6232491 103.7092018  50.9541035  50.3432465
 103.1977177  51.4487457  50.9835243 103.0603123  50.4359245  49.8671484
  88.6275673   6.4778733  79.2274952  89.4392967   6.8671709  78.9022541
  88.5234165   5.6769437  78.7137842  22.6202559  54.0607643  12.7474260
  22.3382139  53.2250309  12.3756194  21.8055630  54.5297623  12.9278374
 110.6076527  50.6940603  87.5316238 110.3424263  50.2782917  86.7112446
 110.2747345  50.1112556  88.2140732  60.5124617  14.3621147  70.3410149
  61.1398554  13.7990701  70.7944298  60.9417534  15.2167916  70.3026915
 111.2025261  58.4154129  77.3983765 110.5518723  58.4877491  78.0966997
 111.7749500  57.7007961  77.6774502  76.6062260  14.4841146  85.0776863
  75.7705688  14.8891687  84.8456573  76.6112852  14.4768429  86.0348415
 107.3112869   7.0601934  60.0907946 108.0871296   7.1081412  60.6493616
 106.6128254   6.7665130  60.6757164  18.9511621  26.8565512  69.5094347
  19.2449522  26.3744473  70.2824116  19.6092200  27.5412989  69.3898010
  93.2663155  33.7378645  76.4449883  93.2594013  33.5424995  75.5079603
  93.5938072  34.6356082  76.5000677  62.9147625 109.1446686  46.3200760
  61.9780493 109.2344475  46.1447620  63.0508804 108.2022572  46.4178753
  98.9710331  18.4026372  45.3067684  99.7568703  18.2546103  45.8328629
  99.0158939  17.7399421  44.6175241 100.3501511  10.4993176  93.6887169
 100.9405804  11.2503994  93.6295986 100.0172615  10.5263686  94.5857620
  78.6376667  12.9673159  52.8056240  78.0264997  13.6473405  53.0889511
  78.4347248  12.8335249  51.8798018  79.3969965   2.2495054  31.8721485
  79.7251940   1.5414919  32.4264359  78.4816837   2.3528183  32.1324611
  82.0193195   6.2238055  83.2351208  82.0788670   6.3072670  82.2834301
  81.7312336   5.3223878  83.3789444  56.6959858  84.1460228   4.6841541
  57.2394705  83.9035225   5.4338503  56.8488264  85.0841427   4.5710063
  67.0064163  15.8640814  68.7667513  67.3359203  16.5156531  69.3857098
  67.7528048  15.2864766  68.6070442  97.1412468  16.7254186  77.3365164
  96.8258476  17.6015615  77.1148682  96.5720272  16.1342072  76.8438864
   2.4717446  48.9628935  91.6049576   2.4407984  49.8838186  91.8641281
   3.4036115  48.7441683  91.6088486  72.7364349  44.5723724  53.3320856
  72.1951342  44.5601463  54.1214371  73.5896254  44.2492533  53.6217213
 101.7622471  73.9369059  20.1126003 102.5296402  73.6136580  20.5846691
 101.3283062  73.1465721  19.7912002  91.6453934  32.1932697  50.3599358
  92.4443913  32.4717927  49.9124289  91.7604923  32.4902630  51.2625885
  92.7258682  21.2082219  78.0153275  92.2732353  20.7266593  77.3229027
  92.4177265  20.8061385  78.8274908  78.0752516  23.3829761  86.8387985
  77.9860449  24.2416096  87.2523499  77.9932690  23.5588956  85.9014893
  91.5850067  21.8140721  86.0693073  90.8843613  21.5116858  86.6471386
  92.3914719  21.5997672  86.5382576  98.1541729  29.2852712  70.8554029
  98.0793953  30.2088571  71.0954618  98.9867783  29.0055633  71.2358713
  68.0345154  35.3768754  91.4525604  68.7429476  35.1873732  90.8373833
  67.2637892  35.5024815  90.8989906  35.0594425  76.9656229  86.7810249
  34.6499133  76.6695118  85.9681129  35.5822968  76.2184334  87.0718193
 103.8437462  23.9284110  80.1861668 104.7682476  24.1541266  80.0832748
 103.3768272  24.7455502  80.0115299  73.7393236   8.7277019  47.1325397
  72.9890776   9.2831933  46.9208908  73.4294939   8.1677359  47.8443527
  28.0959797  38.8930964  14.7834301  28.3346987  39.0369630  13.8677073
  28.1383204  39.7625995  15.1814318   0.8411400  40.8753395  85.7106018
   1.0204231  41.7362118  85.3324604   1.6841426  40.4226065  85.6858730
   3.6214724  82.2626686   3.4431100   3.8198724  83.0658436   3.9245477
   4.4780922  81.9104385   3.2015058  11.9209838  83.5983372   0.1910854
  12.3880482  84.3924141  -0.0687717  11.0374737  83.8989258   0.4038888
  80.0865650  18.4611607  83.0705452  79.8466825  18.3425355  82.1515179
  80.6383610  17.7058017  83.2734776  71.6103554  19.2076516  60.7933855
  71.7289639  19.9675059  61.3632822  72.2151327  19.3566608  60.0665617
  94.7311687  35.2217245  69.3177080  94.2574978  35.7462025  69.9632931
  94.3732643  34.3394947  69.4167042  65.5793953 108.4507942  74.7710276
  65.3195858 107.5891113  75.0969601  66.1888313 108.2630825  74.0571737
  91.6549683  63.1120253   7.8344160  91.3916874  64.0322971   7.8375202
  91.5610790  62.8329659   8.7452084  51.6335964 102.8899097  73.9006233
  51.6494036 102.8232861  72.9458761  52.4433613 103.3497715  74.1220665
  91.3751030   5.6108356  85.0645924  90.7583523   5.9334064  85.7217121
  91.0557270   5.9730667  84.2381477 114.4404411   3.2638478  54.5686197
 114.3343449   2.8272960  53.7233973 114.4038582   4.1977835  54.3620825
  68.9141130   6.1083823  46.4889240  69.3078756   6.9212514  46.8058205
  68.7647772   6.2623572  45.5560637  42.4754906 107.1100903  75.4718304
  41.6985369 106.5961838  75.6920004  43.1549454 106.4570808  75.3040504
  81.8066025  23.8429809  60.7033777  80.8691120  23.7333035  60.5443192
  81.8916416  23.8240170  61.6566086  32.8004694  87.7338696  56.2785196
  32.7390289  87.4448967  57.1889877  33.0832863  88.6465549  56.3354731
 111.2598896  90.8251667  10.5021286 110.5555153  91.4523506  10.6656170
 110.8224106  89.9740791  10.4799807  89.9008465  27.4119902  92.4933624
  89.9801159  26.5754700  92.9518127  89.7646046  28.0546689  93.1895161
  69.2858505  20.8349776  70.1271725  69.2323971  19.8842311  70.0299263
  70.0019979  21.0951138  69.5477867  15.4187346  75.5225277  10.6552732
  14.4665217  75.5779696  10.7355797  15.5746675  75.4263830   9.7157663
  42.4545717  99.1097832  87.4083138  42.9374886  98.3060837  87.6008892
  41.8889046  99.2376137  88.1698322  94.6683121  24.5970631  83.9004707
  95.5727768  24.6597910  83.5935020  94.4618034  25.4759693  84.2184544
 101.2740898  57.0262432  68.8788748 101.8100452  56.5637159  69.5231199
 100.8613396  57.7336693  69.3742800  93.8279629  14.6898806  55.0311852
  94.6754456  14.3371832  55.3025007  94.0113831  15.1509714  54.2126608
  14.5013261  84.5135975   6.2094724  13.6509252  84.0749073   6.2339866
  15.1393366  83.8001537   6.2226856   6.7750084  90.5244923  12.1059752
   5.9674543  90.4943180  11.5929663   7.4701351  90.3625584  11.4681602
  93.9018250   5.0703323  69.1055441  93.4835243   4.6461073  69.8547363
  93.2731819   5.7354927  68.8251829  61.5692234  97.8765106  69.6344566
  61.5884399  97.0471764  70.1120138  61.9413376  98.5130596  70.2448511
 103.5929394  45.3694534  74.4613123 102.6830578  45.4999924  74.7283411
 104.0947819  45.9583187  75.0248909  12.0497406  76.6180134  68.4882212
  12.2352695  77.1741581  69.2448664  12.8014326  76.7431116  67.9089642
  94.3241882  34.4011855  56.3731337  95.2201653  34.3912697  56.7098236
  94.3397141  33.7943864  55.6330109  98.4544373  78.1242990  64.8946762
  99.2362595  78.4840536  64.4756699  98.5305500  77.1781206  64.7714615
  93.3299065  42.0151043  84.5536518  92.5056648  42.0501137  85.0390816
  93.1171322  41.5324593  83.7548923 103.6848831  25.1261044  55.5458927
 104.0198708  25.7498360  54.9017048 103.7072086  25.6032538  56.3753891
  20.3106689  15.7209873  69.4045115  19.9312270  16.5872753  69.2568684
  20.3260374  15.6253731  70.3568029  11.5060568  51.7367458  93.1767750
  11.5231121  51.3610649  92.2965431  11.5950298  50.9833622  93.7604904
   2.3241933  88.1861687  19.3238711   2.0717753  89.0247059  18.9373696
   3.2767811  88.2361317  19.4033170  20.0656056  25.2754641  71.2648487
  19.4446468  24.6519065  71.6414356  20.7230210  24.7286630  70.8346796
 114.8638916  60.5427742  86.4564991 114.3653393  59.7264242  86.4918613
 115.2141285  60.6480408  87.3410797  85.2358913  12.7238595  84.3673992
  85.3965950  11.9854891  83.7798500  85.4465199  12.3871684  85.2383232
  70.3071499 109.0558338  70.2016306  70.2654123 109.5404911  71.0260105
  70.6339693 108.1907368  70.4486704   0.9630850  10.6041253  50.5048800
   0.7826519  11.1553180  51.2663651   0.2244096  10.7595348  49.9162865
  29.6055746  34.2445731  55.9410334  28.8202000  34.1552925  55.4011774
  29.5196247  33.5595298  56.6040277 109.7566795  60.7841587  89.9501896
 109.6109581  60.8199596  89.0048218 109.7149467  59.8520422  90.1638317
   4.9584210  60.2735949  51.9326353   5.6573045  59.8305416  51.4514971
   4.3119130  59.5881510  52.1012306  58.9634466  10.3547382  17.5591016
  58.7138271   9.9505913  16.7280853  59.9203634  10.3687942  17.5407112
 109.3033028 102.9736710  67.9212284 109.0389633 102.0720577  67.7383327
 110.0300121 102.8896618  68.5385370  97.5417042  11.9972634  69.0664053
  98.3577919  12.1803141  68.6008644  97.1714401  12.8607857  69.2493391
 107.3717403  24.0186524  93.7652302 107.0438766  24.3456197  94.6029854
 108.0126762  23.3489347  94.0037918  89.1183758  34.6629119  40.0634861
  88.4005737  34.0302920  40.0355816  88.7884426  35.4209566  39.5810533
  93.3552170  38.3753419  84.1876316  92.6651287  38.3626914  84.8508549
  93.1839180  39.1678119  83.6788273 111.0798931  55.0451469  83.8304806
 111.2031841  54.1227293  84.0544891 110.4499245  55.3661776  84.4756985
  27.0802855  73.2977200   1.4937767  26.7487741  73.9943647   0.9271914
  28.0283570  73.3132696   1.3628115  80.8409882 100.1204014  70.7947254
  80.4471016  99.9686337  69.9356270  80.4018021 100.9043694  71.1244678
 102.7970600  22.4343157  74.2149687 102.7213955  21.6088891  73.7362480
 102.7528381  23.1090498  73.5374641 113.6364555  40.6831312  82.7029705
 112.8703499  40.9044981  82.1735191 114.1635704  41.4821100  82.7073193
  87.1789455  80.0545883  53.6663628  86.6572952  79.2755651  53.4733915
  88.0700111  79.7240210  53.7801647   1.3562354  35.6874537  82.8330994
   1.7466885  35.4926586  83.6850548   1.8439907  35.1422286  82.2158051
  92.6753712   8.9156878  64.7226715  93.4974670   9.1075391  64.2714882
  92.1438122   9.7016585  64.5964622  26.8725157  20.3517032  89.2512226
  26.8679619  21.3078952  89.2075253  27.7434659  20.1019788  88.9424896
  79.0092564   7.6597959  64.4122171  79.8234224   7.3826253  64.8323870
  78.8146782   8.5107523  64.8049545 106.7796898  63.3020306  17.3337507
 105.9736919  62.8481054  17.0876849 107.4739742  62.8148174  16.8900931
  96.4948463  40.9739542  60.7892036  95.7428837  41.3274384  60.3139877
  96.7877865  41.6959763  61.3451767 110.0963593  25.9401059  60.7470655
 110.6097317  26.7412114  60.8515406 110.5535221  25.4500961  60.0636005
  96.8730068  35.7498026  74.1558933  96.6863632  36.6869354  74.2122984
  97.0201874  35.5905914  73.2235718   6.8972456  17.4416184  69.6087170
   7.1335828  17.8972280  70.4166746   6.8965191  16.5147662  69.8478270
 111.3726425  12.8000343  71.4136028 111.0709763  12.6808155  72.3141670
 110.8355045  12.1973491  70.8993149  44.6531200 102.5577736  55.1604462
  45.5686855 102.7824497  55.3262615  44.1871548 103.3917236  55.2207470
  83.0086040  55.2055407  57.9030704  82.4606800  55.2093267  57.1182108
  83.8775730  54.9576712  57.5873470   9.1928750  60.8388710   3.0254272
   9.1756570  60.0630999   2.4649641  10.1235914  61.0084152   3.1712103
  80.0030994  89.4463921   5.9166080  79.1868114  89.8750687   5.6594056
  80.3868866  89.1477203   5.0921488 112.0704746  76.4197588  45.5376291
 112.7031898  77.1210146  45.6930017 112.2597218  76.1190081  44.6488237
   7.5202620  45.1860046  75.8409500   6.6507024  45.4902124  75.5810308
   8.0092871  45.9878969  76.0254908   8.6105645  77.4029732   5.6429470
   9.0758985  76.5853119   5.4665357   8.0153048  77.1895647   6.3615239
 101.2415600   8.5640311  89.6533108 101.4703751   9.4845462  89.5247555
 101.4399529   8.3942747  90.5742168 112.1335983  26.2267804  84.1603661
 111.2733555  26.2383986  84.5799923 112.6335621  25.5789113  84.6568871
  38.7175632  10.4674745  77.9936886  39.6665502  10.4751241  77.8687906
  38.4267282  11.3206971  77.6717329 112.0181942  39.3472886  65.3577185
 111.1558342  39.5402479  64.9898481 112.0067215  38.4027362  65.5123854
 114.6833229  26.8816519  43.8351154 114.6177101  26.9204116  44.7892761
 114.6980286  27.7979350  43.5586357  42.5790262  80.2973080   0.7338584
  43.1459379  80.5946541   1.4454983  43.1820107  79.9510193   0.0760373
  18.5238528 105.6819820   0.0704670  18.5877728 106.2786293   0.8162253
  19.3370664 105.1777744   0.0967389   1.5875302  24.8183370  70.2906275
   2.0099011  24.2741251  70.9552097   2.2252277  24.8646355  69.5782852
  90.2316952  60.4805660  49.2908192  90.9147835  59.8719120  49.0094519
  90.2891541  60.4800224  50.2462959 104.1470623  39.7902226  75.4315233
 103.4315300  39.2291427  75.7305813 104.3612194  39.4605374  74.5587826
 101.0503387  25.7178879  60.1840067 101.4101124  26.5520859  59.8824930
 101.2341309  25.1061273  59.4711208  33.5461307  39.9386811  62.7145576
  32.8949285  39.3895626  62.2779417  33.0303645  40.5467606  63.2441330
 110.8337402  12.6138794  50.0043869 111.3028049  13.1748712  49.3867302
 110.0655842  12.3130178  49.5189476  18.1153107  33.2865214  66.3252974
  18.5280240  33.2102656  65.4650164  18.7334824  32.8693295  66.9253397
  82.3522949  34.2593002  57.5471592  81.9986057  33.4160352  57.2642422
  83.2641888  34.2462325  57.2564602  11.0282624  26.4842534  62.2088194
  10.8012402  25.8953500  61.4891768  11.2868905  27.2993660  61.7787838
  93.3802986  74.7513103  36.7936277  94.1555023  75.2398634  37.0704007
  92.6683426  75.3899717  36.8320060   0.7664131  50.1439667  48.2887650
   0.5201693  50.6982374  47.5482416   1.1990042  49.3891668  47.8895473
 102.0084476  28.9819860  67.0588923 101.7193604  29.5278931  67.7900887
 101.7532158  29.4729900  66.2778616   7.4263811   9.6961421  63.8890171
   7.6721573  10.4737735  63.3879042   6.7100233   9.3053210  63.3886957
  47.5907564  90.7311726  17.4382555  47.4766350  90.7732105  16.4888132
  47.9103327  89.8438931  17.6020312  20.1033044  21.0304618  81.0181236
  21.0171890  20.8647132  80.7866669  19.8046196  20.2123117  81.4151764
  94.3824673  29.2400217  77.3002434  93.5481930  29.7032642  77.2251940
  94.1374016  28.3349490  77.4926424  93.1348705  40.4211903  82.3711777
  93.4796238  40.8049536  81.5648937  92.2738647  40.0823164  82.1260738
 105.9527111  38.9157629  43.6399126 105.5579758  39.3325734  44.4058657
 106.7044163  39.4687986  43.4270430 105.1351166  34.6299386  80.4594231
 104.3289757  34.3963718  79.9991941 105.4267597  33.8118935  80.8618927
 110.4378891  30.6841707  75.5326509 111.1183834  30.6282949  74.8617983
 109.6247673  30.7963943  75.0402451  91.2683964  34.6497989  56.7565536
  91.7624950  35.4695296  56.7449188  91.9272804  33.9708996  56.6109848
   9.0572757  16.3160479  54.3717957   9.9140424  16.6444016  54.0990925
   9.0548873  15.3982735  54.0999222  21.1922979  88.5338402   6.9711936
  21.3311052  89.3737411   6.5335459  20.4622149  88.6932278   7.5693625
   1.9906296  32.3899484  40.0785112   2.4479617  32.8191590  39.3554235
   2.5001365  31.5974116  40.2473831  25.7255912  53.8542271  54.4321442
  25.0840712  54.4249725  54.8551464  26.5271759  53.9765358  54.9408054
  12.5908279  75.3398132  60.0251913  12.7281451  76.2596273  59.7986650
  12.9294503  75.2596140  60.9168911  15.5868626  90.1760197  11.8635511
  16.2271261  89.4793987  12.0085382  16.0539722  90.9810066  12.0872438
  10.6128502  27.7972150  43.5247278  11.1527014  27.1036816  43.1455183
   9.8989916  27.3330379  43.9619684   7.2764182  41.0595703  67.9338169
   6.8092132  41.2203789  68.7536287   7.0114964  40.1765156  67.6764011
  99.9219704  27.3171878  51.3824511  99.4975948  26.4740109  51.2237310
 100.5385590  27.4153376  50.6569004   4.8641568   1.8524672  63.1755733
   5.0682855   2.5817961  63.7609291   5.4727119   1.1603205  63.4340811
  38.4562421  51.9943190  70.2313328  37.6750851  51.7730665  70.7383585
  38.1692791  52.6911163  69.6411133 107.4895382  51.5551424  62.6867867
 107.4101639  51.3638592  61.7522573 108.4043598  51.3639116  62.8935528
  14.3694365  59.3736029  20.1015115  14.3568051  60.2576733  20.4682398
  15.2317977  59.2958736  19.6934402 107.3335075  44.7122812  60.8456564
 107.8473759  45.4306412  61.2146282 106.4396000  44.8790598  61.1445475
  81.2689114  30.1342273  48.0649090  81.3553715  29.3072915  48.5391808
  81.6365147  30.7898307  48.6576033  64.6323824  44.8374796  43.5988235
  63.8421249  44.7783232  43.0619621  65.3470612  44.6304035  42.9966736
  94.1377354  72.2017050  91.8170929  95.0911617  72.2316837  91.8965340
  93.9352703  72.8300381  91.1239624  19.5842707  13.7640166  93.8050652
  20.3799009  14.2645681  93.6243629  19.0718389  13.8296044  92.9992485
   8.1981426  29.8790050  47.7860165   7.5809020  30.4341888  47.3095560
   7.7908731  29.0127707  47.7854395 115.2651024  22.2281027  42.0945692
 115.0066471  22.4998403  41.2138891 115.1129055  21.2831759  42.1079922
   9.2888939  29.3618393  79.7829771   8.9281124  28.5065460  80.0165272
  10.2319908  29.2688608  79.9177170 101.2343502  56.7191315  81.6877747
 102.1328068  56.6741323  81.3606834 100.8559895  55.8681965  81.4664650
  32.6507711 108.6786270   8.5434473  32.2511244 107.8154755   8.6506063
  31.9698453 109.2079639   8.1282711 104.6214771  58.6761045  54.6463490
 105.1227951  58.6755800  53.8309240 105.2742481  58.5205030  55.3289223
  97.4114609  22.6932931  63.6418152  97.0103264  23.3804059  63.1096506
  97.0506477  21.8784285  63.2924700 103.2172680  26.9255877  47.8957748
 102.8432751  26.7903852  47.0250940 102.7063370  27.6449609  48.2668400
  76.3561249  21.2978864  74.1901445  76.8972254  22.0189261  74.5119238
  76.2651396  21.4667153  73.2523537  94.0591145  30.9253979  72.1947145
  93.4526443  31.6116190  72.4731541  94.7596264  30.9458447  72.8467178
  52.1261501  89.8643017  61.5217972  52.4988842  90.6013775  62.0055580
  51.2193203  89.8135185  61.8239737 102.7111149  34.6902204  54.8247194
 102.5246525  35.1689410  55.6323624 102.3441029  35.2384281  54.1311789
  99.4693089  69.0258789  64.2583799  99.5889950  69.9752569  64.2827177
  98.6084557  68.8828421  64.6517038  22.1813869  11.6043770  48.2560301
  22.8949451  12.0953679  48.6634493  22.6069403  11.0851622  47.5737143
 106.3611126  34.3880343  56.4000225 106.5238857  33.9767885  57.2489119
 106.7076302  33.7647343  55.7615471 114.3671036  27.6365757  59.8377132
 114.9604893  26.9330168  60.1006365 114.5967865  28.3695817  60.4088354
  16.3051081  70.4965591  13.6173952  16.8260062  71.2523270  13.8888919
  15.4446828  70.8608770  13.4096229 100.6846237  28.0569601  77.5711107
 100.1687622  27.6941013  76.8510771 101.0855103  28.8453126  77.2050190
 101.5705109  28.1313562  36.5784383 101.3426113  28.2445359  35.6556773
 101.5548038  29.0177155  36.9394803 115.6633186  15.8363581  85.6445503
 114.9848080  15.5746531  86.2669373 115.5609798  15.2310729  84.9101162
  96.0907173  53.6004162  62.0959139  96.2032700  53.8798285  61.1873484
  95.9774494  54.4154739  62.5848722   2.2723787  47.9142666  47.3442316
   2.7336493  48.0530500  48.1713963   2.7232954  47.1729898  46.9399881
   1.9218634  31.6819525  89.3163681   2.5289083  32.4165893  89.2267323
   2.4537870  30.9078312  89.1319084 111.0247517  65.4106665  63.9995003
 110.4713726  65.0417757  63.3110809 111.4460182  64.6507406  64.4010973
   7.4132627  24.5321965  64.4017601   8.2535857  24.5465422  64.8598909
   7.6014489  24.0979481  63.5697460  87.3774242  40.7373667  70.1923180
  87.7520561  40.2006960  70.8907938  86.4820766  40.9147549  70.4806042
  96.4988899  57.6835012  78.2036018  95.9400654  58.0576277  78.8847637
  97.3839951  57.7362490  78.5641956  71.1928749  38.7900758  88.9953232
  70.3532028  38.5182333  88.6248112  71.7812061  38.8427806  88.2421207
  69.5582819  14.8795128  22.6284218  69.7029781  15.4458916  21.8704581
  68.7544298  15.2132154  23.0267906  98.6314201  44.2226076  89.4610786
  97.8576851  43.6828947  89.6231937  98.4925842  45.0062037  89.9930000
 104.8484802  35.5537033  47.9111862 104.6760368  36.4523339  47.6301956
 104.0182209  35.2553701  48.2825232  16.6332746  20.6894159  80.4306126
  17.1156549  20.7796836  81.2524414  17.2383916  20.2321339  79.8466969
  90.2267361  36.3349032  65.3709507  90.2673912  36.9910073  66.0667276
  91.0980606  35.9387064  65.3641415  11.9010651  55.6500578  33.5922194
  12.6550615  55.8865690  33.0520511  11.6509092  54.7784090  33.2858157
 105.3120995  48.3720446  83.3567238 104.6489239  47.9891253  82.7824306
 104.9061012  48.3738661  84.2235470  72.7290344  54.2226648  34.7438097
  73.3223820  53.5405159  35.0582004  72.7026558  54.8633480  35.4544902
  95.4970646   8.3175689  72.5241423  96.2340164   8.8854080  72.2989845
  95.8175278   7.7872062  73.2536983  78.0840302  59.5198584  55.9701014
  78.1629229  59.1962910  56.8674946  77.3690748  59.0073729  55.5926991
  12.1296155  44.3727922  69.6423340  11.2995934  44.7464657  69.9384165
  12.0305717  44.2908239  68.6938095  62.8997564 107.7254486  91.1466026
  63.7218761 108.2110977  91.0795116  62.5152063 108.0184937  91.9727230
  76.3816404 100.5816841  90.2470207  75.7327414 101.2579060  90.4416656
  76.9918633 100.6161785  90.9836769 103.4016800  44.0064096  63.5485172
 103.6816692  43.1299210  63.8123512 102.7487755  44.2562342  64.2023849
  85.2743721  27.8065157  74.6966410  86.2122154  27.6269698  74.6299601
  84.8542786  26.9968414  74.4064999 103.1483173  12.4549544  55.2420568
 104.0561199  12.5822687  54.9665022 102.7792549  13.3378160  55.2660942
 101.0208035  50.5445910  80.0807285 100.2258492  50.8538008  79.6463680
 101.3750172  49.8814964  79.4882202  13.8762534  96.9496822  26.2590146
  14.0296352  97.8912544  26.3373780  14.5068216  96.6582870  25.6004524
  95.7838345  51.9081688  86.8126869  95.1369095  51.3186979  86.4250755
  95.2946091  52.7084398  87.0036316 107.8534317  47.1593666  42.4080276
 107.2318459  47.1703672  43.1358624 107.5260067  46.4755249  41.8237448
 114.2263794  31.9105005  67.7866125 114.5535851  32.1076202  66.9089365
 114.8366737  32.3548198  68.3751345   3.9249232  97.8667927  90.8075428
   3.4277952  98.6475563  90.5635929   3.2792830  97.1601582  90.8014297
  86.2596130  24.7781730  69.6804285  86.9503021  24.3824410  70.2120018
  85.6716824  25.1856923  70.3164339  24.0260625  82.2836494   1.1615794
  24.4628263  83.1353378   1.1518653  24.7385550  81.6482830   1.0915575
  61.9770861 105.8363628  69.4123888  61.1655426 105.5996037  69.8613596
  61.7439842 105.8432484  68.4840298 102.7006435  33.7059116  39.2229629
 102.5554943  34.6131849  38.9545894 103.0666828  33.2821441  38.4466481
  11.0095227  73.4735727   2.5236517  10.4680455  72.8209114   2.9675761
  10.7850397  73.3812952   1.5977336   7.0376843  46.4195585  58.9524508
   7.8700840  46.6135597  58.5215139   6.8848670  45.4920769  58.7717390
  87.0847893  28.9767027  53.6986828  86.4175415  28.2945967  53.7744474
  87.5547981  28.9455914  54.5319605  95.8129978  34.4251490  87.4200821
  95.9320545  34.1689491  86.5055275  94.8883724  34.2534447  87.5984955
 111.0671711  48.0211163  79.3789101 110.6207371  48.7965584  79.0388823
 110.3626442  47.3984098  79.5580626 113.4230709   4.0561789  58.5541582
 112.9082775   3.3373174  58.1874704 113.6943817   3.7410295  59.4163036
  33.3471918  15.9378588  69.5258093  33.8911986  16.5800595  69.9817324
  32.6080227  16.4451516  69.1903734 107.6421070  41.4862776  65.5761623
 108.0820560  41.5597296  66.4230871 108.0764961  40.7511616  65.1435709
  49.0453339  94.9267960   3.0905423  49.3530035  95.6514168   3.6350563
  48.1012392  94.8950768   3.2451683  67.9760933  73.2175636  70.8567429
  67.9408550  72.3013258  71.1315203  67.1157503  73.3855724  70.4722786
  19.3635046  63.7541342  80.7623959  20.1760459  63.9402914  80.2919102
  19.0399468  62.9432154  80.3700256  18.5592723  26.0203266  87.0750618
  18.8896799  25.9925294  87.9730034  17.6138198  25.9000874  87.1639156
  93.0996323  27.6783085  49.0068626  92.8004837  28.3130455  48.3558273
  92.6972961  26.8522644  48.7385273  72.7402210 105.8766460  89.5778847
  73.0297279 106.0419178  88.6806107  71.9504976 105.3445721  89.4805813
  39.1148233  83.5752296  10.6810617  38.3901429  83.1294060  11.1195934
  39.0224814  83.3331680   9.7595888 102.9572582  55.0913620  51.2386036
 103.1081963  55.0690174  52.1835613 102.7121162  54.1937828  51.0139179
 108.0159664   3.8122335  59.4898129 107.9473305   4.7666353  59.5150709
 107.9964066   3.5952803  58.5577297  46.5389633 101.5881729   6.3498461
  46.0301542 100.8082867   6.5714836  45.8892727 102.2163582   6.0343820
  41.3916826  77.5420904   8.2993627  40.6650019  78.1600475   8.2200521
  41.9424915  77.7209997   7.5372386  88.6312675  33.5706925  51.7685843
  87.9881573  32.9004574  51.9997168  88.3991241  33.8277745  50.8762550
  97.0729351  21.2228298  91.7108154  97.5467205  21.4227128  90.9034729
  96.1491394  21.2894654  91.4691639  14.4812071   6.0990131  63.3478165
  15.0101054   5.3096145  63.4633541  13.8420904   5.8628309  62.6755238
  39.3665171  18.1408989  73.9986420  38.5999870  18.6983824  74.1323471
  39.1171360  17.5589335  73.2807589  26.6369891  67.2581196   6.1103404
  26.9490719  68.0407524   5.6561089  26.6691279  66.5679073   5.4479182
 107.0961666   9.5879257  69.5286083 107.0750427   8.7551171  70.0000048
 106.6482449   9.4068491  68.7022829  87.5577068  15.4177403  62.5390720
  87.8308582  15.5930948  63.4395599  88.3268547  15.6291950  62.0099926
   9.2753011  29.4786024  40.3475380   9.7887492  29.8299193  41.0749817
   8.6766851  30.1875782  40.1124954  50.0279570   9.9631310  90.7208157
  49.2742062   9.3759274  90.7781029  50.5384731   9.7750819  91.5083694
  80.5683804  20.8837962  66.5759659  80.7249928  19.9996948  66.9077349
  79.6585655  21.0692096  66.8085146   0.0280056  11.6272426  46.2300158
   0.4660070  12.3095119  45.7211971  -0.2993902  12.0807076  47.0068121
   3.1218159  22.7238536  70.8061695   3.7021825  22.8100252  70.0498772
   3.6972597  22.8327322  71.5633011  55.6117964   5.4253703   7.6292199
  55.2815342   6.0598874   6.9931787  54.9696493   5.4411978   8.3388889
 109.0356922   4.3655694  78.5650492 108.1069088   4.1348553  78.5837507
 109.0601349   5.2271527  78.1487465 110.8904934  28.4228945  92.3859882
 110.5353737  28.6223865  91.5197754 111.2588024  27.5438619  92.2972202
  27.0812392  57.0765686  14.5828521  27.1126723  56.4122868  15.2713060
  27.7014804  56.7669678  13.9227915 109.7046471   8.0163240  83.3969307
 110.4063702   8.6628604  83.4731960 108.9206600   8.4774464  83.6951923
   3.1402132  40.4338932  66.5944433   2.3100322  39.9652267  66.6803741
   2.8878599  41.3518715  66.4951324  92.9369831  61.3783503  89.7684574
  93.1659412  60.4490089  89.7568130  93.7003422  61.8082714  90.1540565
  92.3655415  27.4362898  74.3295240  92.0790863  27.8820276  75.1267052
  91.7531872  26.7074323  74.2294312  92.1343517 101.6171169  19.7997010
  91.9576263 100.6763649  19.8011398  91.4304638 101.9922256  19.2704821
 109.3865204  70.2461529   3.2139271 109.0911484  71.1341000   3.0126026
 109.5464802  70.2551317   4.1576248  12.5031269  10.2320254  78.9514446
  12.0295835   9.7954994  79.6595621  12.7849698  11.0649562  79.3296289
  60.8395147  99.0975952   4.8951668  61.2297535  99.4623566   4.1008794
  61.0408306  98.1627369   4.8533887  92.2157669  22.8110623  63.2390594
  91.3805962  22.3548388  63.3419466  92.8768158  22.1261621  63.3398104
 110.2187443  43.8379288  74.5077515 109.6332836  44.5942545  74.5456314
 111.0516548  44.1949844  74.1995144 113.9446545  24.2067671  79.4428682
 114.4646549  24.6499586  78.7724924 114.0905476  24.7201777  80.2374458
  73.5321093  85.6490421  92.2463036  73.5512590  85.9215927  93.1636810
  72.7392244  86.0525227  91.8930721 101.5884972  30.7323360  77.3928118
 100.7569408  31.1539316  77.1759939 101.6022396  30.7077003  78.3495951
 105.5317974   8.8103527  67.2666740 104.8546028   9.4475800  67.4937773
 105.1520824   8.3026177  66.5495586  29.8919415  87.2457027  13.6924338
  30.1511335  87.6792812  14.5054865  29.8650193  86.3151836  13.9152658
  99.0367889  31.4507914  76.8023491  98.4215736  31.0871220  77.4391270
  98.6669350  32.3029876  76.5716839  95.2313900  19.9441373  59.7852373
  95.3286648  19.0098441  59.9692583  94.4677544  19.9968123  59.2105007
 106.5434265  30.1127362  65.2546263 105.7955456  29.6537328  65.6370163
 106.4144802  31.0283852  65.5019951   0.6166578  44.1774178  61.2015390
   1.2247811  43.6678934  61.7370749   0.9545725  45.0721216  61.2409735
 103.3395195  14.4345272  52.3621225 103.9520264  15.1162302  52.6384401
 103.8984299  13.7156117  52.0671415  51.5394688  27.8257418  87.6956177
  51.2619162  28.6998224  87.4214268  51.9781733  27.9659796  88.5347271
 104.8336697  43.5281897  66.6161489 104.9961853  44.3778467  67.0259094
 104.0729618  43.1796789  67.0810032 108.0071354  53.5179758  65.7004547
 107.6378250  53.8055992  66.5353870 107.5672913  54.0592432  65.0448561
  59.2383146   2.0386796   1.6976012  58.5879135   1.4050451   1.3947454
  60.0462198   1.7843413   1.2517001  18.8562918  39.0037608  82.3314285
  19.1412878  38.8326192  81.4338112  18.0077124  39.4360185  82.2349930
  84.1685772  52.4969578  51.7308521  84.2472267  52.9851913  50.9112978
  84.4432354  53.1170368  52.4063492   3.4839162  61.6583586  43.5109711
   2.9749602  60.9145641  43.8334179   3.0059615  62.4277925  43.8204193
  87.0288563  48.9515162  50.6100464  87.9155445  48.6807966  50.3718567
  86.9029903  49.7850561  50.1566124  25.0283623  44.1564989  81.6638279
  25.8653688  43.9692831  82.0887947  24.3947411  43.6139584  82.1333027
   4.2120248  42.9104948  52.1564150   3.3419901  43.2565498  52.3551989
   4.0851051  42.3812056  51.3690281  35.6209135  47.5444984  76.7219973
  35.4011273  46.8830299  76.0659599  34.9250174  48.1973648  76.6463232
  96.6954994  19.1271317  69.5335150  96.9266129  18.6064994  68.7642574
  97.5229931  19.5158184  69.8170900 113.9890766  56.6532326  42.8863192
 114.8815536  56.9527435  42.7130890 113.9505100  55.7787228  42.4990463
  19.4888532  97.5540543  21.5980816  20.1937008  97.9813099  22.0847702
  19.1879809  96.8539524  22.1773696  24.1790366  60.7411671  79.7523165
  23.7488270  60.4667139  80.5621529  24.9993634  60.2481222  79.7379160
  34.3901515  51.4127254  63.7872553  35.0761366  51.2126684  63.1503582
  34.5820093  50.8436394  64.5326185  41.4942598  96.2952137  55.9519911
  42.1337748  95.6142330  56.1605930  40.7345057  95.8167553  55.6202078
  24.0984488  77.3246145   5.8267820  24.5742989  78.0046082   5.3499061
  24.6084905  77.1907759   6.6256404  86.4857292  29.0917397  65.3308678
  86.5485382  28.7190104  66.2102795  87.1547413  28.6290765  64.8262930
  34.1474175  69.9097300  64.6274805  34.2062902  70.5626202  65.3249741
  35.0525951  69.6367598  64.4779015  17.3915923  76.7324448  86.6613293
  18.0769813  76.3076878  86.1455250  17.0267332  76.0299492  87.1994877
   3.8786662  56.8403625  79.9420738   2.9855356  56.6530609  80.2309799
   4.0081236  57.7659607  80.1488113  14.3758881  52.8325748  60.5839825
  13.4609902  52.8352261  60.8653879  14.4260812  52.1269894  59.9391127
  87.5203419  32.2615838  29.5055985  88.3896637  32.6366425  29.3646908
  87.0090961  32.5514483  28.7500644 112.3296738 107.8456402  41.3393259
 112.6288509 108.5239697  41.9447994 112.3020267 107.0480728  41.8678665
   6.2239516  38.1471825  80.9811020   6.4171815  39.0845776  80.9676170
   5.8524251  37.9667711  80.1175880 108.5438442  54.7080898  87.0110321
 108.8483906  53.8824081  86.6345501 107.7457523  54.9134159  86.5240860
  88.6434650  79.3994808  63.7015390  87.9614258  79.6409941  64.3282223
  89.1037560  80.2190495  63.5208035   2.3707156  33.0962515  69.7192335
   3.0345094  33.7528610  69.9301195   2.7803940  32.2608066  69.9437952
   8.9012063  24.3447208  67.9499578   9.1183597  24.2381001  67.0238304
   8.5780174  23.4853601  68.2206631  15.4089236  60.5413485  73.9931393
  15.5642295  60.1630402  74.8585844  16.0524786  60.1156807  73.4266806
 114.3220329  66.3573408  61.9196081 114.3124580  66.7307901  62.8009033
 115.2196121  66.0467386  61.8008375  20.9455466  51.7259741  72.0203972
  20.9111881  50.9389782  71.4766216  20.0316405  51.9968700  72.1076870
   3.8852012 107.4091911  51.3665724   3.2123989 106.8438244  51.7459488
   4.6996891 106.9181824  51.4749813 109.5433140  48.8534641  69.6056652
 110.0141335  49.6003723  69.9753761 108.6716080  49.1948080  69.4060564
  78.7052631  21.7225718  47.2061920  78.1815195  22.1004796  47.9126644
  79.5873880  22.0639253  47.3530436 102.8389359  84.6917820  89.8362732
 103.5631466  84.3030834  89.3457031 103.1961918  84.8427963  90.7113647
 103.2612991  85.6344032  86.4117336 102.3714161  85.9844112  86.3689041
 103.6495399  86.0600090  87.1761703  90.4914761  38.9394689  68.9328003
  90.9741688  38.1961775  68.5712004  89.7814369  39.0903497  68.3088541
 109.0655422  84.0876389  35.8087492 109.9003506  83.9555931  35.3594303
 108.9676857  83.3143997  36.3644123  13.5537708  52.3370028  64.5941687
  13.3636832  51.4492273  64.8974180  13.7392390  52.8287935  65.3941536
  97.4849224  58.6250448  61.2977314  98.0447674  59.3090343  60.9303474
  97.1297932  59.0106916  62.0985985  75.4084539  89.0998840  65.8269787
  76.0656881  89.2816067  65.1552296  74.5765972  89.3416214  65.4197836
 115.3486061  46.7268372  54.7507858 116.2502480  46.5763283  55.0346994
 115.4315090  47.2756052  53.9709044 112.5105953 103.8980198  16.7190850
 113.1402588 104.4370461  16.2403250 111.7275047 103.8985538  16.1686313
  25.8636689  73.9561701   5.0096518  24.9319363  74.1428137   4.8944387
  25.8962584  73.0244541   5.2266103 107.7139473  46.0204268  67.3123455
 107.8611183  45.4324293  66.5715170 106.8112946  45.8474207  67.5798035
 108.5241222  65.4935551  71.3550568 108.5174847  66.3411283  70.9102964
 109.3928051  65.4388571  71.7533207   1.1810251  48.2486868  74.4383097
   1.1775862  48.6817503  73.5846806   0.9557725  47.3384619  74.2460108
 109.2299461  37.7940297  60.7134676 108.9817333  38.6910534  60.4899311
 110.1857090  37.8149343  60.7616663  35.7330608   0.9647720  56.7265606
  35.1950884   0.6837770  57.4667358  36.6275620   0.9656408  57.0672894
  83.8086891  49.3143892  46.0309410  84.2376804  49.7473145  46.7690229
  84.4330120  49.3954372  45.3099108 107.9614735  57.5386667  70.7624006
 108.7155247  57.8339386  71.2727451 108.2208633  57.6748180  69.8511314
  95.7135677  39.1454625  77.5501490  96.0805607  39.9307537  77.9561758
  95.2649498  39.4674325  76.7682886   3.1934780  73.7511063  54.0525913
   2.9729211  74.6770382  54.1537762   2.5863031  73.2951880  54.6354389
  10.1531422   7.7911896  22.6484013   9.9227989   8.1721359  23.4957814
  10.1774478   8.5371631  22.0490980  37.5792813  66.9159842  56.4447832
  37.3332953  66.8325710  57.3660660  37.9364824  67.8010035  56.3714314
  99.1402245  53.0333376  29.5443034  98.4091854  53.6512423  29.5479083
  99.8694801  53.5272646  29.1695285 110.5590153  87.8143215  81.1436749
 109.7984028  87.3197746  81.4488411 110.2134991  88.3864975  80.4584980
 109.7017860  17.4789917  83.4378242 110.1778507  17.5478303  82.6102734
 109.0486717  16.7967069  83.2823849  82.9711246  38.4747148  88.2422256
  83.2656956  39.3088579  87.8766155  82.0686054  38.3845162  87.9363441
  65.3027391 105.5169201  81.1055470  65.6607437 104.6392727  81.2389374
  64.7744513 105.6813622  81.8866444 102.6665401  79.4469881  91.6262627
 102.3768044  78.7750053  92.2432899 102.0138454  80.1426125  91.7057991
   8.0345613  28.5761786  58.8280725   8.8931501  28.7061787  58.4253836
   7.9031032  27.6282001  58.8110733  18.3580291  73.7177372  28.7758875
  18.9079690  74.4617701  29.0212655  18.9475310  72.9641771  28.8053250
  91.0681820  39.5896006  63.2597733  90.1526737  39.7275686  63.0167770
  91.1321354  39.9263597  64.1534901  98.5671902  28.7809038  64.2012739
  98.0130863  28.2912016  63.5934925  98.2670879  28.5112929  65.0693083
  15.9424317  39.4665241  72.0120621  16.3109517  39.6389771  71.1456442
  14.9965084  39.4372725  71.8685102  11.3935506  32.9693413  55.5468464
  10.7227111  32.7927160  56.2063980  11.4642179  32.1527600  55.0524426
  14.0470433  39.0072942  55.0899935  14.3392658  38.1625104  54.7476864
  14.6243751  39.1767287  55.8344507 107.0458221  48.9654684  53.4673166
 107.0327187  48.0182743  53.3298826 106.1281300  49.2002153  53.6050606
  99.0817547  19.1363609  36.7120671  98.7184143  18.2907593  36.4490485
  98.3559322  19.7516799  36.6081095  10.2882218  31.2854171  46.2944698
  10.3695083  30.9272003  47.1783829   9.4853449  30.8940339  45.9503222
 113.2295227  53.1650639  71.4180994 112.3624706  52.8107691  71.2208176
 113.3380413  53.0229664  72.3584509  87.6527786  40.2141762  45.8246088
  87.4996758  39.3006897  46.0661411  86.8459320  40.6658125  46.0721207
  12.9437721  96.4856148   9.6008658  13.5645854  95.8730602   9.2063940
  13.4607136  97.2724342   9.7737926  88.4647655  66.0694170  67.3284912
  88.2088470  66.9405699  67.0254517  89.2462158  65.8581257  66.8176842
  62.8309870  90.7440090  15.6566679  63.5979605  90.4368210  15.1733303
  63.1439638  90.8602715  16.5537512  14.8097765  58.6212969  69.4048977
  15.0510991  58.0189371  70.1085711  15.3721702  58.3709431  68.6719131
  36.8488741  62.0642757  74.2216587  35.9820890  61.8360472  73.8857555
  36.8237543  61.8075371  75.1434422  99.9607849  40.4946613  38.6848593
 100.6796265  41.0655165  38.4135342  99.9990463  39.7560525  38.0772233
  12.6358855  65.3293896  44.2467356  13.1841445  65.9575748  44.7168732
  11.7515290  65.6905127  44.3078804  10.4469788  54.6973133  70.2670097
  11.0359704  53.9430618  70.2876043   9.6064633  54.3531704  70.5692196
   1.6817720  60.9731102  75.3410959   1.7725538  60.4996300  76.1680222
   1.1646283  61.7471790  75.5638361  88.7527275  24.6873832  58.9043856
  88.9117432  25.0860262  59.7599745  87.8910732  25.0134444  58.6446428
  29.7756147  89.9321461   1.9580950  29.3115640  90.1476860   1.1491249
  30.1366544  89.0595150   1.8018913 108.4278870  38.4742785  38.6568141
 108.1580639  39.3223405  38.3043623 108.0046177  37.8323483  38.0867314
  14.0234470  50.2998638  43.9277887  13.0992174  50.2484179  43.6841059
  14.1585886  49.5548201  44.5133495  59.4502592 107.6153469   0.3811036
  59.8742104 107.6810074   1.2367836  59.8608303 108.3030796  -0.1430115
  19.1678262  46.4343262  66.5743399  18.6228442  46.3883114  65.7887793
  19.8939669  45.8362770  66.3974619  91.1901188  41.4140844  70.0381279
  90.9541512  40.7537699  69.3865585  90.6375217  41.2133837  70.7934999
 101.2189674  56.4736414  66.2282085 101.3215256  55.5306673  66.3566923
 101.0448837  56.8172312  67.1044922  36.4247179 104.5816040   3.2749429
  36.8144345 105.4199505   3.5229969  35.8551216 104.3553734   4.0102047
  17.2714078  67.5067282  59.2943859  16.4500797  67.8852987  58.9808035
  17.4312043  66.7647266  58.7111807  95.1248169  57.0555639  87.1158504
  95.4983711  56.4894009  86.4404583  94.1869736  57.0695782  86.9248390
 100.9362411   8.0121785  57.4649429 100.1621342   7.4556160  57.5499582
 101.6676521   7.4435949  57.7057552 103.7920570  57.0590019  43.3525610
 103.3080292  57.8493404  43.5919523 104.4522572  57.3620510  42.7292395
  12.3521352  61.5487528  77.8844357  13.1511641  61.2485313  77.4512482
  12.5127923  61.3963175  78.8156652  39.3701911  95.8037281   9.9171686
  39.6354914  95.8818245  10.8335459  38.4488440  95.5470753   9.9556011
  15.5681455  69.7716665  53.3729219  15.1669407  69.0086460  53.7889338
  16.4037514  69.4488478  53.0356073 101.8139648  67.8139925  70.6292963
 101.8623829  67.5107050  69.7227097 101.0816002  68.4302902  70.6368923
  88.1635571  30.2615047  81.2745571  88.4925365  30.7550144  80.5232525
  88.8882351  30.2658772  81.8999004   8.8763219   7.8570855   2.8853479
   9.2966175   7.4481142   2.1288258   8.9712614   8.7972820   2.7328739
  93.5729885  12.7741146  72.5458622  92.7899647  13.1864202  72.1810246
  93.5688114  11.8885875  72.1824694  64.9260283   5.7049870  39.5977688
  64.9313116   6.2685180  40.3714848  64.2556620   6.0845101  39.0296102
  92.0020008   4.3720254  78.1427336  91.1676788   4.2936653  78.6053181
  91.8419838   3.9676777  77.2900152  90.8765507  40.4560757  60.3458834
  90.9314823  40.4997540  61.3005066  89.9427223  40.3502131  60.1642990
  16.5129972  29.9104071   6.1171627  15.8240688  30.3062153   5.5833602
  17.1681011  29.6172667   5.4838073 107.5249386  21.8086720  72.2326946
 106.8006039  21.8029642  71.6069698 108.0132580  21.0079980  72.0411158
  26.6386366 103.8211632  32.4881601  26.1851358 103.0096436  32.2601295
  26.3053823 104.0457916  33.3569026  43.7184525  32.2751665   6.2511414
  42.7682209  32.2306418   6.1447805  43.9168978  31.6113639   6.9116104
   2.7393898  31.4034963  77.4250984   3.1860465  30.9680843  78.1511450
   1.8131274  31.2023258  77.5585175  98.6558437  34.9621224  59.0445566
  99.1569805  34.2980671  59.5179796  99.2347717  35.7238746  59.0159750
   4.5949546  50.1959276  23.4881520   4.3836027  50.2999306  24.4159150
   5.3591639  49.6196079  23.4797406  66.3119602  16.3225126  73.5733509
  66.7253256  17.1713495  73.7309504  65.8130598  16.1472392  74.3712234
  99.8308182   3.7911820  58.0584526 100.4497051   4.3540245  57.5932503
  99.8161221   2.9800814  57.5503874  98.1063271  16.6544557  70.8397579
  97.3880863  17.2148645  70.5459785  98.0721951  16.7024589  71.7951441
  55.4099274  97.0891285  85.8658123  55.6598473  97.3627949  84.9832726
  54.5283461  96.7302227  85.7646465  94.1322231   8.3447665  40.0348330
  94.4930744   8.3968854  40.9198809  93.7298489   7.4773568  39.9909329
 104.3660259  10.2082610  59.8801088 103.8851166  10.4472136  59.0877342
 103.7245178   9.7456759  60.4192924  58.2244587  97.6013470  63.1485033
  57.4468040  97.5485039  63.7041044  58.9569092  97.4551392  63.7471437
  85.1602840  19.7988212  41.5509081  85.9451199  19.9498594  42.0776463
  85.2599907  20.3833437  40.7994938  89.6106052  33.3175898  46.5981817
  88.7935734  33.5857844  47.0186186  90.2483368  33.9769840  46.8715525
  90.7516956  44.2888069  49.6139860  90.0476742  44.1657066  50.2507162
  91.4809895  43.7750244  49.9609661  98.7190151  51.1630201  27.4138522
  98.5710621  51.8074083  28.1060219  97.9967308  50.5417824  27.5065875
  92.7296734  19.1287851  47.8298712  91.8087006  18.8747561  47.7705812
  92.7294064  20.0712800  47.6627302 102.0106220  17.2657537  81.7036533
 102.0246792  17.7659309  82.5196552 102.1196270  16.3554549  81.9787979
  14.9173212  19.4634843  75.9590912  14.1013730  19.8857319  75.6904554
  15.6011498  19.9472308  75.4958391 101.2037373  13.3544445  61.2701273
 101.7669582  13.2262111  60.5068684 100.3151417  13.2353914  60.9347868
  75.5335188  19.2877865  75.8061886  74.5777130  19.3158805  75.7628345
  75.8205223  19.9889934  75.2212381  74.2104483  17.4912262  63.4393692
  73.7622166  17.6694643  64.2661428  73.9829636  18.2330275  62.8788233
 114.6289444   3.4179586  48.6768007 114.1510773   4.2447323  48.6110497
 113.9455700   2.7490270  48.7188435  69.9214554  18.3644760  41.0868931
  70.5978155  18.9770210  40.7978296  69.9309683  18.4303117  42.0417786
  99.1486168  12.9778707  54.5200443  99.3439960  12.0703435  54.2866898
  99.6012020  13.4985447  53.8564920  61.1544943 101.1887455  91.9430828
  60.6251526 101.8705654  91.5293884  62.0113134 101.2627029  91.5228271
   8.6350685  19.4654977  66.6760778   8.3019519  19.1284978  65.8443928
   8.1640303  18.9657819  67.3428869 100.7199669 101.8293953  66.5072727
 100.6490517 101.0291862  67.0277262  99.9990273 102.3792934  66.8140221
 109.5554829  53.4548521  40.8951998 109.1367722  52.7171803  40.4516315
 110.2821350  53.6981058  40.3215790 109.2685795   5.8021784  31.5869474
 108.6619377   5.6884563  32.3185802 108.8541985   6.4635730  31.0328054
  97.6003933  21.8690705  76.9863462  96.8488503  21.3567090  77.2845221
  97.2192574  22.6808453  76.6517067 115.7810053  15.3800797  58.8879776
 116.5804022  15.8269787  59.1663265 115.1449569  16.0840046  58.7608385
  78.1935358  23.9630127  71.2727451  77.3901606  23.5022664  71.5146828
  77.9443502  24.8870826  71.2574959 105.1337051  22.7473664  55.7103109
 104.6236324  23.5530949  55.6274891 104.5069122  22.0472884  55.5279446
 104.3596840  43.7755108  55.1669884 104.9919415  44.1455126  54.5508862
 104.2526340  42.8674173  54.8838949  59.5861197  99.7958851  58.5214043
  59.7908688  99.1286087  57.8663826  58.6358881  99.8988438  58.4695053
  85.5654144  27.1439552  40.7396841  85.9815311  26.2822318  40.7169437
  86.0128975  27.6074028  41.4476442 105.9423923  28.7386870  34.1762805
 106.1176205  28.7092733  33.2357144 105.6754494  27.8466511  34.3981934
  99.1761589  20.0572491  63.1895971  99.5889091  19.8496926  62.3512745
  98.2561207  20.2080631  62.9727507   2.3409930   7.8333467  58.2455254
   2.2564566   7.1635866  57.5669193   1.9086027   7.4546832  59.0109539
 110.8559132   5.2760816  38.0043697 109.9756908   5.6494349  38.0495358
 111.3831711   5.9558618  37.5846863  62.2002745 107.4658108  27.8711319
  62.4799824 108.3741665  27.9846406  61.5040874 107.5097084  27.2156715
  79.4087362  21.7242193  78.8531971  78.7566233  22.2177649  78.3558083
  78.9056873  21.0398412  79.2945623  16.4491534  34.7622991  60.9389687
  17.1319103  35.1590705  61.4799309  16.9044745  34.0874720  60.4354572
   1.3197725  36.9661474  51.5564823   1.3711880  37.1531343  52.4938345
   1.7952737  36.1422372  51.4501762  94.8751545  33.3458185  92.4415016
  95.4917812  32.8841043  91.8733215  94.1308117  32.7493930  92.5218678
 106.6807842  14.3163550  49.3213367 105.9846783  14.4930434  48.6885262
 107.0261765  15.1805973  49.5449972  89.8976803  34.5558167  29.9039197
  90.7234192  34.6227694  30.3834033  90.1066780  34.0166473  29.1411304
 106.1705112  29.4027328   2.3019670 106.8765545  29.6927285   1.7243548
 105.7168674  30.2086043   2.5489616 112.2665501  13.8251567  41.2365675
 112.4969769  14.6361589  40.7833433 111.3373375  13.6991167  41.0444546
  10.0805378  32.5688314  85.9783554   9.7261250  32.7460027  85.1070118
   9.8117095  31.6699529  86.1680412  53.5123158 107.6155567  35.4148078
  54.0468216 108.1299114  36.0197687  52.9329348 108.2565022  35.0028038
  91.5998840  40.3294134  48.1020117  91.2155628  40.2005386  47.2348738
  92.5174332  40.0777769  47.9971361  48.1936502 105.7186794  22.9880142
  49.1172838 105.7754517  22.7432442  47.9031181 104.8783684  22.6334620
 103.4563351  20.6923628  55.7435608 102.7589798  20.0884366  55.4882240
 104.2413521  20.1465082  55.7885075  80.9487629  26.4552498  63.9419365
  80.0464535  26.1646557  63.8091612  81.0059452  27.2839475  63.4663057
  94.8989105  32.1398163  67.4452066  95.5099869  32.6342964  67.9913759
  94.9574852  31.2422347  67.7725410  80.0998116  24.1869211  31.5619326
  79.7662497  24.5044875  32.4010515  79.7954750  23.2808423  31.5106487
  11.9907287  -0.0995830  51.7110634  11.0663131   0.1419064  51.6530657
  12.3196891  -0.0043396  50.8172274 106.6595364   1.2193216  59.7027397
 107.0319748   2.1007162  59.6768951 106.0400486   1.2423615  60.4320765
  18.8456607  22.1578789  29.0219498  19.3784165  21.8056607  29.7349334
  18.4604514  22.9564333  29.3827248  22.1272206  33.6517954  36.4524174
  21.3015294  33.5134768  35.9883785  22.7253532  33.0071926  36.0743213
 103.2834244   4.0700674  63.0118227 102.4824047   4.0502036  63.5354805
 103.0950832   3.5025284  62.2643900  77.3054409  46.1064768  34.1567755
  77.4243450  46.9679070  34.5568204  77.5651932  46.2285519  33.2436180
 113.3890820  60.8732653   2.5463903 113.2175064  61.4491653   3.2914633
 114.0456963  61.3398218   2.0292702  34.7247815  69.4521713   6.7600983
  35.6214476  69.1388750   6.6414946  34.6113849  70.1166582   6.0805190
  22.6981544  26.4662576  63.0437422  22.0051622  25.8850503  62.7303886
  22.2404385  27.2648239  63.3064556  97.7268410  18.8433719  24.4104767
  98.3459663  18.9490652  25.1327896  96.9175911  18.5505915  24.8295641
   1.0842831  69.4514704   8.9613849   1.0297347  69.5208597   8.0082631
   0.2619864  69.8268127   9.2763096  73.1838226   2.9283375  50.1644325
  72.9816294   2.0127872  50.3570890  73.2469893   3.3455864  51.0235834
  92.5658035  98.7911892  68.4719563  93.3502293  99.2010212  68.1073332
  92.7854729  98.6273003  69.3890810   7.4589878 103.3083344  64.1645861
   7.7876216 102.4229050  64.3203211   7.8585267 103.8370419  64.8552895
  94.5683861  29.6555853  56.9138288  94.6471786  30.0180697  56.0314322
  95.1999855  28.9366460  56.9347143  70.2698803 105.2955818  37.4629140
  69.5909023 105.0834751  36.8224192  70.1455450 104.6562767  38.1643796
  85.4639721   3.4677765  64.9515724  85.1671124   3.6181027  65.8490705
  85.5748940   4.3453631  64.5858240  84.4180584  12.0443249  65.0082397
  84.4637299  12.9359055  64.6629429  85.2488613  11.6448283  64.7505379
  13.3071876  74.6068573  23.4309673  12.5136626  74.1256142  23.1965351
  13.6331332  74.9509144  22.5993323  62.9490376  96.2650871   0.7498776
  63.7864685  96.7100811   0.8799919  63.0969286  95.3767300   1.0741976
  64.3502951  15.0309670  41.9710064  65.1982546  15.4221022  42.1812725
  63.8777304  15.7202232  41.5042734  46.2399387  98.4197521  69.1597128
  46.1422253  97.4839878  68.9835835  45.3438187  98.7375164  69.2702532
  70.6040144   8.1622577  64.9334908  70.4988289   7.4388838  65.5514717
  71.5312433   8.1420743  64.6967030  82.3742962  37.6652551  60.1064730
  81.6341591  37.7995944  59.5145464  82.2468662  36.7819953  60.4526567
 111.8790817  51.0538721  62.8702164 111.4547920  51.0234928  62.0127296
 111.5487766  50.2810907  63.3283997  28.3691263  52.5722122  77.0079803
  27.8793859  52.9835463  76.2958050  27.7501345  52.5408220  77.7374315
  50.8147621   6.7240757  46.6435099  50.7527304   7.1297854  47.5082541
  51.7550421   6.6562343  46.4776707  81.6706371  51.3976002  46.5439987
  81.7079544  52.0054579  45.8055210  82.2690487  50.6905556  46.3027000
  73.4660101 100.1629448  38.5910892  73.7283516 101.0013294  38.9712477
  74.2784500  99.6596718  38.5372496  99.3593502  39.6142077  64.2849350
  98.5264301  39.8157048  64.7114086  99.8766994  40.4139328  64.3799210
 110.8032227  16.6139758  66.4870834 111.5076065  17.2448778  66.6355228
 110.7719994  16.0961747  67.2915316  84.0987110  15.2408123  71.3712502
  83.4747982  15.9222758  71.6213942  84.8373508  15.7189727  70.9944105
  76.3792896   7.4232680  55.7783604  76.0509729   8.1814420  56.2616968
  77.1944284   7.1904886  56.2228727  78.4632158   4.6449864  63.3945894
  77.8199577   4.6542785  62.6858139  78.5249567   5.5584162  63.6739922
  88.8386917  20.9409165  25.5711746  89.7448254  21.2493372  25.5769897
  88.8926506  20.0334167  25.8707762  64.1269016 107.0439625  70.4849386
  63.7440538 107.8844452  70.7364225  63.5009575 106.6719723  69.8636103
  67.4917221  77.0444059  16.9281590  67.7964544  77.9450846  16.8179154
  67.1760511  76.7905140  16.0609102  22.7858233  23.4922719  77.9811621
  22.7094269  22.5464535  78.1069469  23.6722159  23.7021780  78.2752371
  17.9273319  62.2656584  27.8276801  18.4196067  62.7343512  28.5016418
  18.3988070  61.4399624  27.7173471  87.2250843  33.3232546  59.9387121
  88.1383514  33.5585356  59.7749567  86.9215202  33.9703035  60.5754280
  93.7562943  11.5061295  55.1551342  93.0036736  12.0787096  55.3033066
  94.5172119  12.0659840  55.3093958  12.2186112  42.1737576  56.5689325
  12.2140753  41.9508648  55.6380606  12.5335276  43.0772257  56.5973568
   2.2372879  24.6091485  53.4110594   2.4975610  23.8745618  53.9668226
   1.2953614  24.6976137  53.5565948   4.0410021  56.8879986  84.2932796
   4.8726845  57.1446276  83.8949394   3.4567058  56.7354488  83.5506153
  93.5149384  37.4673343  63.8437414  92.8184509  38.0903864  63.6365080
  93.2525635  36.6593599  63.4026432  13.8282800  33.8269401  79.5120287
  13.0752504  33.3397269  79.1776609  13.8496876  33.6227751  80.4469585
   5.0158405  34.4337583  75.6644249   5.8693177  34.3137813  75.2479935
   4.9918383  35.3615999  75.8984518 106.1711311  41.1796522  76.9945240
 106.9064236  40.5880022  77.1543169 105.5460072  40.6551218  76.4942026
   1.3531214  14.5339012  72.3867607   2.0943624  14.7801304  72.9400826
   0.9411793  13.8039780  72.8490877  31.1452579  45.1308823  59.1217566
  30.2368355  44.8623276  59.2591572  31.3076210  44.9606371  58.1939173
  75.3617859  25.6482863  73.6763954  74.6179819  25.8320236  74.2501831
  74.9648571  25.4099989  72.8386021 101.5513039  10.9940696  71.3286161
 102.4528027  10.6752706  71.3720894 101.0147381  10.2177525  71.4888096
 102.0189953  44.6857500  32.6867652 101.6087627  45.3190136  33.2757640
 102.9395962  44.6764135  32.9487562   9.6255016  25.7777429  27.9441881
   9.7791582  25.1141572  27.2716737   8.6779690  25.9131289  27.9350090
  19.6939349 105.6612110   7.0503575  19.1025555 104.9476910   6.8107879
  20.1477456 105.8796883   6.2363839  58.3144426 103.9129543  63.5385180
  57.4090338 103.9326000  63.2285500  58.7807512 103.3939838  62.8831911
 112.0154381  39.4954228  53.3545637 112.5304031  39.2680597  52.5803900
 111.4899158  38.7149358  53.5303545  12.1712434  24.0904593  46.0827303
  12.9291165  24.5543146  46.4386797  11.4310622  24.6718311  46.2570000
  93.2866383   0.7189932  32.7339578  92.6395988   1.4162222  32.8409123
  92.7671432  -0.0827278  32.6739812   4.6368158  38.4521079  83.7927341
   5.0311327  37.8553104  83.1566715   3.8763577  38.8165259  83.3398151
   1.7571531  27.9446721  43.6179590   0.8051801  27.8679132  43.6818933
   1.9981071  27.3508549  42.9069328  90.2026176  21.2520599  32.9020190
  89.8960686  21.6167855  33.7322187  90.8934212  20.6379318  33.1507516
  66.2508535  22.7678657  48.3429146  66.1099768  23.2198071  49.1748619
  65.3927040  22.7735877  47.9189157  99.8997498  29.6919370  74.7992182
  99.8479748  30.4343605  75.4011774  99.1352463  29.1568899  75.0125027
  96.1426544  32.0206451  36.3687444  96.7327213  31.4041877  35.9351039
  96.7240906  32.6641989  36.7737269  15.0524676  71.5433598  44.5536375
  14.8951745  72.1326447  45.2913666  14.5116746  71.8951893  43.8465357
  90.1027393  37.2699213  37.3157573  89.8625374  37.8060389  38.0714750
  89.2721176  37.0920420  36.8745637  92.2362328  16.3279176  56.6927814
  92.8704166  16.4504528  57.3992014  92.7033806  15.8075857  56.0391235
 114.1498184  48.4831762  42.3143625 114.9977112  48.4853554  42.7585411
 114.1798019  47.7144814  41.7447662  99.7159004  31.6628742  80.3876972
 100.4468632  31.0881805  80.1604462  98.9350033  31.1603880  80.1554489
   4.4444853  40.0426674  59.9910593   3.5281512  40.1489496  60.2465343
   4.9156937  39.9562359  60.8197498  96.0638428  40.1745605  50.1073790
  96.8107414  39.8685431  50.6219006  96.2886715  41.0743523  49.8706007
  75.0271702  82.8170681  49.1649246  75.9345102  82.5208664  49.2372322
  74.9939680  83.2857895  48.3309984  90.0017262  17.7642655  33.4513974
  89.7238541  18.3289957  32.7302194  89.2772579  17.1494365  33.5669875
  96.4093971  24.9669218  42.9902172  96.5545654  25.7936931  43.4502268
  96.4793396  25.1933455  42.0628166  19.8297966  26.6948700  52.7118206
  19.4164705  25.8686471  52.4613190  20.0114322  27.1334887  51.8806458
  94.3086529 107.7399349  22.2236037  95.1835728 107.3820114  22.3741102
  94.1599083 107.6223278  21.2853742  98.9063549   6.2264913  58.7914371
  99.0466309   5.6803715  59.5649433  98.2944965   5.7253939  58.2522106
  20.8809447  97.1673107   8.1200731  20.3277564  96.4316273   8.3827108
  20.3563929  97.9435062   8.3165383  87.4701214  21.0703826  64.0541458
  87.0899200  20.5874777  63.3203316  86.7147636  21.3990521  64.5416355
 115.4192638  64.8899746  45.5899525 115.0076294  64.1364336  46.0129881
 115.4809666  65.5488062  46.2815952 115.3927422  44.0156841  31.2720108
 116.0086823  44.7371006  31.4001179 114.6218204  44.4257307  30.8798766
 101.7727852  28.4881544  84.0906906 102.0161533  29.4138741  84.0840626
 102.5906944  28.0268002  84.2762089  58.7689590 108.0131817  30.4795122
  58.5706043 108.3653831  29.6118474  58.8052034 108.7825871  31.0477734
 101.3661194  36.5162110  48.5606337 100.6832027  37.1630716  48.3833599
 102.0099926  36.9866586  49.0900993  11.5150738  43.4522724  38.4877634
  11.6715670  42.6152182  38.9248967  10.7513177  43.8168955  38.9349294
  93.6604691  26.3522482  13.4255075  93.3831310  25.6804347  14.0483868
  93.0254650  27.0596528  13.5376811  95.8260536  18.4319043  34.2581773
  95.1349258  18.5947657  34.9000835  96.0113239  17.4961948  34.3379021
  85.4459000  30.7158732  86.2325382  85.0473404  30.1395202  85.5804729
  84.7466373  31.3228989  86.4750004  38.9023948  28.1424928  48.3393145
  38.9442134  27.1951222  48.2090425  38.2178473  28.4368896  47.7385187
 115.3826046  29.5553708  68.0382347 114.9633980  30.3533578  67.7161837
 115.7870293  29.8146582  68.8661480  95.3713417  42.6223803  86.0324097
  94.6877575  42.2440004  85.4794502  95.8578587  43.2036161  85.4478550
  98.5195923  76.0486412  45.9955168  97.7396870  76.1503172  45.4499531
  98.9215279  76.9173336  46.0030556 106.5138149   4.3659645  65.4778147
 106.7318916   4.6067268  66.3782072 106.8132973   5.1078278  64.9522877
  93.6494064  41.8426895  53.3510637  93.5324764  40.9733438  52.9679251
  93.3863068  41.7387772  54.2655087  97.8909588   5.4200208  52.2595882
  98.5992813   6.0087484  52.5201797  97.5984955   5.0199825  53.0785322
 113.7433529  24.1686773  59.8811102 113.5023594  24.2281914  60.8055639
 114.4812012  24.7710919  59.7866869  94.8864746  33.2571936  61.8647432
  95.4005146  32.6934886  62.4428701  95.5345440  33.8189507  61.4396954
 100.0232410  29.2597032  43.3920097 100.9237671  28.9506388  43.2932281
  99.8807049  29.8280859  42.6351357  98.3738708  27.8538561  36.4520121
  98.1586266  28.7489796  36.1899972  98.9300632  27.5247908  35.7458949
  46.2398577 104.1509819  87.8538036  46.7098856 104.3459702  88.6645317
  45.8818340 103.2736969  87.9895878  15.0750148  49.0713263  66.6010809
  15.7712924  49.3005037  65.9855270  14.6608448  48.2984161  66.2172842
   5.8975583  56.0941410  90.1025581   6.8479961  56.1334562  90.2091122
   5.7219887  56.6206837  89.3227196 111.0297680  30.4346371  70.7692623
 111.3826180  30.8970428  70.0090551 110.9762669  31.1029005  71.4524841
   2.4662377  11.2490010  81.6308117   2.3050301  12.1104634  82.0156860
   3.3623868  11.0347247  81.8901062  98.3920765   8.9551830  92.4200916
  98.6417580   8.0385649  92.3030567  99.2102718   9.3999141  92.6414490
  98.8899231  37.2770524  94.6697998  99.1285324  36.4902472  94.1796684
  97.9880047  37.4592376  94.4060135  12.6041710  67.8523874  39.0930700
  13.1675839  67.0823860  39.1698766  13.1960595  68.5569096  38.8293576
  26.8030405  86.1804390  19.1119921  25.9749985  86.4005566  18.6852264
  27.3562074  85.8486557  18.4047747  85.1108265  15.2511823  52.8743839
  84.9945641  16.0144126  52.3085308  85.3094292  14.5343757  52.2719049
 113.0548096  10.8566046  67.5876093 112.3253632  11.4662361  67.6994038
 113.8187504  11.3357472  67.9086161 100.8744144  24.2059088  34.3187022
 100.3026962  24.7959542  33.8275766 101.1954308  24.7357607  35.0483847
  30.2841139  84.8124313   3.8465378  29.5207906  84.5718670   3.3214700
  29.9170351  85.2327919   4.6242189   9.9455756  22.0121288  31.9711685
  10.7659245  21.6027164  32.2461939   9.9428552  21.9262433  31.0178328
   5.7082599  54.0541363  65.8278513   6.5631676  54.2440176  66.2142611
   5.8225876  53.2065010  65.3981209  20.3754282  14.8297620  60.5615854
  19.7709823  15.2747667  61.1556005  20.5689192  13.9986217  60.9951782
  88.4698582   6.9477582  24.4241834  88.9012814   7.0561755  25.2717400
  88.2905579   7.8410351  24.1306877 100.1418686  63.9226055  71.7275524
 100.1637077  63.1607771  72.3066664 100.8919334  64.4515848  71.9992638
  87.3549461   7.2578382  72.0328617  87.5305271   7.1897423  71.0943747
  87.1912861   8.1895632  72.1789265  83.9468193  35.7031417  62.3884821
  84.0817165  36.3222933  63.1058979  84.7455311  35.1758170  62.3738337
 100.6845188  27.2150493  27.7294397  99.8385811  27.6137137  27.9336119
 100.9153843  27.5696015  26.8708229  29.5105886  46.2155008  16.3712180
  28.8085604  46.8533039  16.2423921  29.8203206  46.3769722  17.2624111
 107.0162868  34.1213465  47.2367001 107.1636391  34.2553282  46.3004446
 106.2593174  34.6704221  47.4410105   7.5990129  26.7204189  81.7074108
   7.6880085  26.4064121  82.6072502   6.9286299  27.4018788  81.7567348
  11.1443174  37.6201940  32.8401303  12.0355189  37.9660535  32.8888559
  10.5831838  38.3863449  32.9600215   0.0647961  23.4909511  64.4395638
   0.1570529  24.4297600  64.2772150   0.9627880  23.1595850  64.4458342
  34.4232917  34.1381192  58.8903999  34.9023438  34.7090030  58.2897091
  33.5102224  34.4122410  58.8044071  67.4967909  27.8679824  58.4983969
  66.6079235  28.1236529  58.2518673  67.8805542  28.6627555  58.8689232
  47.4325275  93.4813213  86.1212730  46.8991899  93.1440735  85.4015160
  47.7585649  92.6983738  86.5650558 112.0249176  24.2681694  51.1217976
 111.4917755  23.5986567  50.6931448 111.4229202  24.7035432  51.7253590
  81.1727142  22.3207879  49.4153357  80.3211403  22.4014187  49.8449421
  81.1871433  23.0334878  48.7765217   9.5171332  37.6422954  88.2129288
   9.1530734  38.5197902  88.0958939   9.1102201  37.3194408  89.0169334
  12.6596463  32.5116754  46.6835785  11.7928314  32.1097207  46.6261673
  12.8788745  32.7383637  45.7798195  94.2973328  52.0094872  83.7481117
  94.6851921  52.7268457  83.2469177  93.3598518  52.0680714  83.5638905
  18.5178924  46.6681385  45.3543758  17.8157711  46.9137669  45.9568071
  19.1245365  47.4081421  45.3791285  96.4040279  15.7887876  35.0432062
  97.3045635  15.9388041  34.7555184  96.4000034  16.0504246  35.9639454
  52.0589447  87.8525066  52.7242470  52.6602602  88.5855198  52.5925398
  51.2120676  88.1800365  52.4213314 109.1169739  21.4635515  34.3260026
 109.1867065  22.1234059  35.0159025 108.1890965  21.4599252  34.0909433
  80.3264809   9.4664323   7.9682696  80.3919888   9.8943454   8.8219857
  80.7998466  10.0470150   7.3723894  67.9879045  11.6584742  44.0536833
  67.6725101  10.7584679  44.1358042  68.8946629  11.5686917  43.7604952
 110.8350086  60.7676506  60.2793646 110.7737064  61.3522577  59.5239162
 110.6563568  61.3303661  61.0328007  -0.1154956  36.3163352  23.2685661
   0.4902643  36.9692588  23.6192489   0.1470865  36.2128448  22.3539233
  27.2279334  61.2988424  76.7610836  27.8615904  61.3814449  77.4737501
  26.5550017  60.7118177  77.1057606  83.3907509   7.0266289  87.4090195
  84.0161419   7.6681453  87.7460289  83.5128307   7.0488536  86.4598942
  92.9563999   0.1523090  19.8369801  93.1875324  -0.4792026  19.1558051
  92.4301815   0.8112579  19.3840837   5.3354728   9.4457775   3.7454557
   4.4515452   9.5665580   3.3985895   5.2082700   8.9642811   4.5628983
  89.6296883 102.5936317  24.1441894  89.4831276 102.8271866  23.2275629
  88.8701153 102.0610523  24.3800569  18.9030778  60.4961014  83.4582424
  18.4305239  61.3268757  83.5105610  19.7934103  60.7089567  83.7379456
  93.2247639 104.1744137  51.7947388  93.8620472 104.0280437  51.0956764
  92.4667358 103.6473942  51.5420008   2.3747252  10.9425485  23.8021302
   2.2451186  10.2155125  23.1931543   1.8744661  10.6955671  24.5799303
  69.1632843  20.8527493   9.2885721  69.0686846  20.8584118   8.3360755
  68.3543491  21.2493134   9.6119690 114.9028587  37.6866865  19.8648584
 115.1562309  36.9327950  20.3974795 113.9839840  37.8382492  20.0860572
 104.2320538   8.6096722  55.8377838 104.4758987   8.9611411  54.9814892
 104.9432945   8.8794839  56.4188004  11.9707537  21.1693406  40.1449919
  11.4851689  21.7378306  40.7427025  11.4646554  20.3571844  40.1227236
 115.1023960   2.4606919   0.2512861 114.4869232   2.7645996  -0.4158450
 115.8090115   3.1062290   0.2371030 100.6149101   1.6998447  34.0659046
 100.1280499   0.8978943  33.8759661 100.2304840   2.0264335  34.8794079
  92.8903675 104.1688061  38.9199328  91.9564056 104.1138458  39.1222191
  92.9500866 104.8462391  38.2463288 101.1227226  95.5760765  40.0857353
 101.7962456  96.2395000  40.2356195 100.8370972  95.7241535  39.1842270
  97.6562309 105.0049019  31.9510484  97.9435253 105.9140301  32.0358634
  98.0263805 104.5643902  32.7160144  26.8957448  39.2872429  28.5911131
  26.4785504  40.1456022  28.6646199  26.4217281  38.7364125  29.2141128
  88.8721657  16.3064969   9.8779315  88.0263233  16.1239588  10.2871644
  88.8488579  17.2443473   9.6878695 114.5971870  17.5170803  21.5793562
 114.8228359  17.6421559  20.6575799 115.4230022  17.2725832  21.9970560
  83.1037140   9.5799875  26.9132710  82.6078129   9.5870012  26.0945749
  83.9831066   9.3009317  26.6582489  99.4246769   1.2758380  20.4512191
  99.7508621   2.0801382  20.0475669  99.8807907   1.2274590  21.2913680
 100.2470875  38.2304382  61.7607832 100.1180935  37.2906446  61.8887806
 100.1054382  38.6118340  62.6272154 104.4594955  24.5146346  37.8744698
 103.6858463  24.9768233  37.5518537 104.4075203  24.5963144  38.8267612
  31.2005043  88.5379505  83.4490490  32.0019174  88.5021973  82.9268456
  30.7741189  89.3509579  83.1780529  82.7810001   0.6831492   6.5263706
  82.8527451   1.4149407   7.1392053  83.5082340   0.8090083   5.9168470
  54.3914127  98.8659000  48.7104559  55.2520752  99.2816448  48.6590099
  54.3935728  98.2222939  48.0019426 108.2417679   9.1671413  11.7016804
 108.8020325   8.6334223  11.1382270 107.3651600   8.8013518  11.5834057
  98.8034630  43.4634972  32.2401071  99.4030476  44.1704845  32.0015550
  97.9325867  43.8160181  32.0570064 100.4596615 101.4197445  28.7079597
 100.1491928 100.7143879  28.1402326  99.6607971 101.8391228  29.0275931
  53.0198479  93.4804535  47.3157501  52.0798969  93.6453629  47.3900843
  53.2551241  93.8204002  46.4524364   9.7432208  22.2163916  22.6518583
  10.4582882  21.7299914  23.0621314   9.7149593  21.8881321  21.7531490
  83.1302166  31.8727922  27.6160717  83.4712887  31.9866920  26.7289782
  83.7810898  31.3246131  28.0543685  10.4596412  16.4216983   8.6639309
  10.8075070  17.3064792   8.7752098   9.5264828  16.5047765   8.8602585
  37.6878238  35.6786942  42.5416946  38.4757733  36.1154842  42.8650856
  37.0277333  36.3709688  42.5060606  62.3168707   3.8738593  57.2443199
  61.4848328   3.8312584  56.7730141  62.9415941   4.2030841  56.5981293
  32.1514463  28.6994243  92.4846554  32.0529771  28.8241553  93.4285736
  31.6193151  29.3929219  92.0946217  16.9806325  32.1209574  17.2815728
  16.8913352  31.2216663  16.9660854  17.9173052  32.3063898  17.2145665
  54.1321421 106.4628887  53.3598900  53.9146709 106.6049290  54.2811728
  53.8816214 107.2785759  52.9261446   1.1371657  13.2340181  13.1796539
   0.6377743  12.5998044  12.6652467   1.9971119  12.8284967  13.2904565
  89.2431831  96.0219669  28.0509591  89.6608543  95.6130505  27.2929549
  88.9430618  95.2863693  28.5848737  28.7898254  95.2648449  84.8447037
  28.3558345  94.5523643  84.3753910  28.9063954  95.9495068  84.1860104
   8.9853203   8.7779331  19.6117818   8.3949804   8.5492390  20.3297162
   8.7690169   8.1564802  18.9166272 113.3845520  13.8818920  31.3425612
 114.0555382  14.1352379  31.9764543 113.8529015  13.8193810  30.5101132
  12.4370003  12.1186137  40.3286171  12.3504102  12.8866553  39.7639513
  13.2569075  12.2604156  40.8017731  95.0661659  22.2435474  10.0257933
  95.4360771  22.4508166  10.8839536  94.4565773  22.9598975   9.8483837
  96.9772720  23.5466599  37.3011041  96.1251354  23.9437819  37.1211720
  96.8610573  22.6216507  37.0841193  33.7805510  70.7603216  93.3474827
  33.8843465  71.5350008  92.7949142  34.2067575  70.9952116  94.1717434
  91.2672043  85.9825420  17.7098024  92.1675777  85.7374573  17.9230666
  90.7474804  85.6424141  18.4381080  88.6480141  36.3737965  28.1645489
  88.4815979  37.3104286  28.0584455  88.8166523  36.2650108  29.1004753
  18.1295013  36.4418483  12.0359468  17.5975835  36.8585205  12.7139425
  19.0329707  36.6205859  12.2967696  24.2877960  60.7473564  85.9613800
  25.1895165  60.4510069  85.8376408  24.0165925  60.3501892  86.7889977
 112.4179459  68.1386900  92.3020935 113.0950928  68.4678745  91.7110443
 112.6029778  67.2028399  92.3807335   7.0651650  38.0066705  14.1241491
   6.5588850  37.3431659  13.6554551   6.4740396  38.7566376  14.1901398
  35.2882171  20.6397367   2.8617170  35.4078984  20.0664020   3.6188138
  36.1259389  20.6047130   2.3999526   0.4739447   8.7703699  28.4367108
   0.4189508   8.1673568  27.6953721  -0.3877494   9.1856575  28.4720850
   4.5848542   8.1986213  10.1589131   5.3500527   7.8490895  10.6155646
   3.8583243   7.6498312  10.4542363 114.9540234  21.5428519  14.4375420
 115.6056976  20.9966230  14.8770750 114.5064163  22.0009613  15.1488924
  38.4428835  62.0503378  72.0303297  38.0801868  62.7367544  71.4704084
  37.8291750  61.9891882  72.7623510  81.4271355  98.3855343   2.0670854
  81.3035965  97.4461079   2.2029361  82.3592663  98.4785366   1.8703146
  47.8493023  50.5553818  94.6902657  47.5358009  51.0558939  93.9369774
  48.6728144  50.9785795  94.9330711  43.8438606  95.4007721  28.6726475
  44.3248034  95.5068016  29.4934273  44.4883680  95.0433350  28.0618453
 107.4217987  71.6169500  47.4912405 107.0398617  72.2257566  48.1234646
 107.9887581  71.0514641  48.0156565  85.2740002  29.0558887  25.0352955
  85.8078766  28.4542227  24.5164418  85.0538158  28.5609889  25.8244896
   7.9031789  96.5222740  69.9666548   8.2290584  95.6249046  69.8976469
   8.2864261  96.8545055  70.7784271 100.9204578  51.0822296  41.4243793
 101.7302799  50.5779648  41.5026999 100.3675365  50.7594204  42.1359301
 100.4931641  19.5875669  15.8073497 100.8677292  19.1320896  15.0533772
  99.6595955  19.9334550  15.4883599 105.2818203  30.6503868  20.9672713
 104.9169540  30.2974939  20.1557469 105.9695244  30.0304675  21.2101579
  78.4200382  90.2971268  29.3532729  78.1714201  90.4079151  30.2709579
  79.3771744  90.2921677  29.3633533  39.2123532 101.7357159   6.5423739
  39.7349191 100.9337616   6.5472656  39.1886735 102.0005608   5.6228465
 101.4993191  18.6467755  35.4941845 100.6822681  19.0788722  35.7430816
 101.4612484  18.5943043  34.5391822  13.5729361   9.0135711  42.7225447
  14.2160213   9.7115874  42.5982618  12.9784071   9.3520701  43.3920145
  11.9673526  25.3246284  33.2165027  11.9254053  24.6796465  32.5104761
  12.8079653  25.1584387  33.6430979 106.8229485  94.0708637   0.6294561
 107.7071095  93.9789295   0.9844811 106.8048000  93.4806919  -0.1239333
  77.4765587  98.9330673  64.7557020  77.6258421  98.2323074  64.1209745
  77.6793718  98.5361671  65.6027937  22.4398875  14.7249305  22.7198362
  22.4839497  15.3438306  23.4487081  21.6976690  15.0251591  22.1952343
  86.4603233  89.9410152  52.0354986  86.9453239  89.6533203  51.2620401
  87.0495129  90.5558109  52.4726725 110.2292061  28.1121135  19.8882449
 110.3442574  27.6215005  19.0744305 110.3982925  27.4721360  20.5796742
 113.4090328  48.9140463  80.2200794 112.4955368  48.8146925  79.9519682
 113.7966633  49.4735813  79.5471001  22.0634127  20.6960940  33.8032889
  21.9712114  20.1141238  33.0489397  22.2509050  20.1099849  34.5364690
 109.4227695  47.4013329  20.6028295 108.8451385  47.7838326  19.9423194
 109.5572376  46.4999008  20.3103137 101.5931416  18.3378553  20.9606075
 102.4273777  17.8697896  20.9951615 101.1221409  18.0458069  21.7410564
  41.9005394  39.1022635  93.2690907  42.8332090  39.0591383  93.4800434
  41.8093920  39.9002767  92.7484226   0.2374573  13.4119439  15.7077205
   0.5627765  13.4497857  14.8082936   0.3448928  12.4956691  15.9629250
  10.3990352  57.4245310  29.9293160  10.7202637  57.5756025  29.0403724
   9.9129552  56.6019440  29.8717713  87.6982403  28.0060148   3.4192854
  86.9689941  27.6824546   3.9481959  87.4779797  28.9204097   3.2415181
   3.5029128  17.1473467  16.8817627   2.7293116  16.5853488  16.9257033
   3.1883293  17.9568481  16.4793003  57.0194626 104.3599129  55.3299809
  56.8556118 105.2806377  55.5340481  56.6801119 104.2473125  54.4420624
   4.2782223  35.9799623  29.4176507   5.1784921  35.7558465  29.1820288
   4.1018030  36.7926145  28.9436221 101.1167431  10.9869957  51.3097334
 101.4577103  11.2695408  50.4611206 100.1658726  10.9938109  51.2001085
  30.8188128  85.2335167  85.9730625  31.5688229  84.9947357  86.5177631
  30.7046843  86.1723232  86.1208630  20.0201654   1.3104150   4.2426240
  19.2826807   1.3587852   3.6343402  20.7942200   1.4153902   3.6894044
  86.7442131  25.4343295  28.0367756  87.2354984  25.4759932  28.8572240
  87.2511482  24.8396182  27.4839926  95.9914303   0.7858101  14.2442954
  96.8924522   0.5101433  14.4128251  95.5587769   0.7239688  15.0958943
 113.9683437  15.5868864  24.1457701 114.6388817  15.8498788  24.7761941
 114.3669987  15.7484710  23.2906723 104.0130901  53.9322662  36.8197608
 103.4097576  53.2152510  37.0149684 103.6182880  54.3806076  36.0718632
 101.6123390  26.8497133  18.6811411 102.1378136  26.2553310  19.2166948
 101.2881947  26.3035774  17.9649734 106.9126987  20.8814383   5.7786560
 107.0691490  20.3928208   6.5867442 107.4238014  21.6842127   5.8813995
  19.5787752   0.0046468  49.4093561  19.0948701   0.8295179  49.3686628
  20.4764605   0.2418546  49.1767025  21.4343381  94.7440720  87.3430061
  20.5489445  95.0068665  87.5945091  21.3678193  94.5403862  86.4101028
 114.5108318  15.7177925  12.1802413 114.0485668  14.9735832  12.5658476
 114.3990040  15.6061578  11.2361741  97.4008656  93.4521008  63.6360788
  96.6684532  93.5825539  63.0337667  97.5383663  92.5048637  63.6443424
  88.0379295 107.3808479  42.6524591  87.5635624 107.8308964  41.9534159
  88.8494301 107.8789425  42.7504206  11.7989743   6.7593312  17.8450179
  12.4809420   6.0887128  17.8072917  12.0530093   7.3970574  17.1779323
 110.6106377  43.0517626  41.0251236 110.7942867  42.2753143  40.4963207
 109.7626400  42.8704357  41.4304018  44.5407677 105.6340981  58.2025051
  45.0065279 105.6033230  59.0381765  44.2163277 106.5326118  58.1420803
  36.4998460  11.8079567  21.0932469  36.0631514  12.0408595  21.9125676
  36.1240053  10.9607840  20.8539271   4.7579867  95.9826660   2.5291944
   4.6207374  96.2308407   1.6149715   3.9731053  95.4873085   2.7633286
 107.8739643   7.4024707  34.8507690 108.4610176   7.7527058  34.1807413
 107.3487663   6.7477947  34.3905616  50.3862619 105.2350235  43.8935328
  51.2894201 105.3602028  44.1848421  50.2159357 104.3037510  44.0347862
  24.7460890  42.7130651  11.7000961  25.1425934  42.1292400  11.0534430
  24.0799904  43.1956244  11.2105250  23.9213753  10.3818846  43.2003212
  24.2618060   9.6732306  42.6542902  24.4943810  11.1252975  43.0126143
  78.3296967  22.1314287  27.4565077  78.8003492  21.4412642  26.9891858
  79.0180397  22.7051878  27.7929807 104.4972229  17.8916931  14.5335269
 105.3008080  18.1751013  14.0974414 104.7097874  17.0293701  14.8905253
  92.4326324   0.6751028  39.5610785  93.0770111   0.7754083  40.2617550
  91.7207718   0.1748738  39.9601507  13.7574804  29.4268489  92.9486275
  12.8433371  29.7103143  92.9634380  14.0690184  29.5760989  93.8413239
  11.9031286  24.5789075  19.8844314  11.4232194  24.9618316  19.1500676
  11.4288211  24.8754096  20.6611896  48.8528872  38.2313585  93.4699535
  49.1336536  39.1389012  93.3526039  47.9093504  38.2900476  93.6200428
 111.8630409  17.2685051  14.3423104 112.6107311  17.8378391  14.5240891
 112.2182560  16.3814259  14.3983531   5.7442290  19.6665967  24.0585303
   5.5684972  19.4034028  23.1551600   4.9910003  20.2047157  24.3020606
   7.2381979  30.2430439  21.0718751   7.3521006  30.1280093  20.1284623
   7.0399117  31.1735058  21.1774921  86.8804169  44.7328281  16.2773895
  85.9955597  44.6583652  15.9200144  87.0857334  43.8530922  16.5938354
  83.9584923  21.4298153  29.8377013  83.9403152  20.7238269  29.1915727
  84.1940212  22.2091675  29.3343449  25.8858728  36.9655132  53.0689621
  26.2891841  37.7044296  52.6133585  25.3628969  37.3681474  53.7622213
  35.3450203  28.2564688  33.0427480  34.6431875  28.7899160  33.4157014
  34.9896336  27.9397058  32.2123289 113.5049676  -0.0212864  11.6407752
 113.0401325   0.7986923  11.4740372 113.0742502  -0.6604580  11.0731757
  99.2785358   2.6973060  47.4433517  99.8405361   3.3495018  47.0249844
  99.0016842   3.1093472  48.2617712  72.3969078  85.9458637  34.2353630
  71.4417028  86.0021591  34.2100859  72.5905752  85.0442791  33.9786959
  97.2515202 100.3197002   9.9888313  98.0033493 100.4536533  10.5659246
  97.6363850 100.0804806   9.1456908   6.7711991   5.9862673  35.1806235
   7.6590109   5.6424946  35.2798343   6.4024925   5.4900539  34.4498301
   2.9138005  32.6617837  32.0356679   2.1648780  32.1618867  31.7109394
   2.7229556  33.5666919  31.7887831  25.8174133  31.2111425  31.1754584
  25.6771731  31.5778327  30.3024745  25.8483505  31.9735742  31.7533612
  94.9362469   6.7084664  60.7294464  95.2649879   6.6087294  59.8360205
  94.0560341   7.0688796  60.6219339 103.2083416  38.4559441  16.7077100
 102.4521828  38.2213640  17.2456980 102.8511238  38.5628986  15.8261263
  98.1257439 105.0942230  51.0512877  97.9683399 105.5901051  51.8547583
  98.9650059 104.6583939  51.1993551  76.0377121   1.6287495  45.7655859
  76.6288090   2.0795704  45.1626015  75.1966572   2.0715165  45.6523561
  86.2496471  97.3714161  43.8092375  86.2259197  96.4968300  44.1975260
  85.4402828  97.7873421  44.1061783   7.2654712  26.4054775  37.7326989
   6.5446675  26.6242933  38.3232880   7.2779262  25.4485369  37.7142620
  21.7483449  45.2421570  47.1037674  21.7582345  44.6190500  46.3772154
  20.8240056  45.3200960  47.3398876  10.0101590   5.2173400  18.9967072
   9.8023182   4.5864692  18.3074784  10.6729305   5.7877564  18.6073589
  88.9773560  99.8019028  20.5720401  89.3729973  99.8505974  21.4422870
  89.5246315  99.1783142  20.0946832  93.7050056 102.7126598  43.7905025
  92.8758717 103.1379032  44.0094423  93.9031982 103.0160713  42.9045630
   0.9853318  47.0697117  37.4978447   1.6471869  47.7592373  37.5501251
   1.4094400  46.3011885  37.8796005  77.1073818  33.3232307  23.2558632
  77.5385237  33.0071902  24.0498805  77.1662569  34.2768049  23.3147097
  14.5233524  30.0549650  29.3295717  13.8198411  29.5248485  28.9550281
  14.4117415  29.9667740  30.2761436   2.5655723  43.0531740  39.8596406
   2.0001474  42.2825623  39.8078132   2.2508320  43.5299587  40.6276560
  73.7476492  91.6631699  50.0804424  74.6562338  91.8711376  50.2982950
  73.3000755  91.6305065  50.9259272  47.7720261  70.7430649  93.5155296
  47.0856667  70.2458334  93.0706596  48.2220840  70.0964737  94.0592194
 106.5620041  12.1903670  70.5453777 106.4823723  12.3817635  69.6108961
 106.9641304  11.3223660  70.5786657  22.6417160  31.8699241  30.5516148
  22.0328712  31.3273382  31.0527563  22.5556564  31.5572333  29.6510315
 113.9112473  18.8356137  15.2745616 113.3001709  19.3744957  15.7769752
 114.7740841  19.0698910  15.6164157  54.9156237  69.0730143  81.9896030
  55.4759598  68.7387466  81.2892246  54.0668774  68.6579657  81.8359947
  29.5450830  90.4575920  82.5138474  28.7140989  90.3822517  82.0447826
  30.1357627  90.8777237  81.8886852  94.8928642   2.8010851  49.5740032
  95.2457142   2.3119350  48.8307238  95.3738880   2.4665743  50.3309393
  19.1150260  91.2220287  85.4042244  18.7794948  90.9263134  86.2505150
  18.6183333  90.7174397  84.7600842 106.1883926   9.6522015  46.5387630
 105.2907181   9.6638209  46.8708420 106.5585995  10.4889584  46.8198586
  33.7433100  32.5931787  63.5719633  32.8382397  32.9011726  63.5248423
  33.6989832  31.6767907  63.2990170  47.4694729   8.9517355  61.6302633
  46.9776964   8.1349266  61.5453577  46.7982912   9.6247649  61.7432976
  24.1059065   9.5681870  26.1003900  23.2783866   9.2892480  25.7084227
  24.5517063   8.7515360  26.3252783   2.6120338  41.0100842  33.0545378
   1.7189439  41.3461971  32.9793715   2.6611009  40.3122568  32.4011874
  46.5661383  49.3461609  28.7137723  46.0302782  48.7896013  28.1486773
  46.4369106  48.9899969  29.5927978   0.4494078   2.9466945  25.5947590
   0.8091789   3.0995354  24.7210097   1.2015558   2.6708224  26.1185908
   4.3390989   1.5652435  47.5448751   5.0616014   1.6607700  48.1654358
   4.5988062   2.0954579  46.7914438 110.3924942  26.3014650  38.2971811
 110.7842827  26.3591194  37.4257445 111.1272717  26.1024523  38.8774562
  40.3324270  79.1646910  91.9786358  39.8794818  79.8832703  91.5373707
  41.1907673  79.5242596  92.2026730   4.2651492  22.1051693  63.7569809
   3.6196297  21.4244390  63.9470911   5.0226921  21.8736720  64.2943573
  50.0338793  28.9646411  27.1657729  50.9224463  28.7800431  26.8614626
  50.1549530  29.3897295  28.0148149   6.2872136  37.9503989   9.4999719
   6.4064085  37.0740700   9.8661309   7.1679872  38.3248186   9.4832295
   7.6120478  28.2662988  10.4429018   8.3216929  28.6345100  10.9692645
   7.9766661  27.4588013  10.0806403  80.0253010  65.2579784   9.6950960
  79.3477488  65.4968166  10.3276408  79.5725775  64.7086954   9.0551251
  58.6869621  81.0369015   5.3864330  58.0512190  81.6189861   5.8026582
  59.5385170  81.3746548   5.6639397  13.4496748  41.4590073  93.2750320
  12.8324735  41.8565130  92.6607990  12.9525936  41.3663197  94.0877819
  84.3886662  85.8845901   2.5112668  83.8957119  85.9869194   3.3253667
  83.7525558  86.0718250   1.8209451 110.5227566  35.4764509   0.6572091
 109.6456146  35.2640271   0.3382639 111.0566330  35.5402517  -0.1347107
  69.5816517 107.8048038  64.1175127  69.3971157 107.4386692  63.2525730
  69.2230463 107.1632004  64.7306776  85.5198383  19.5693982  11.6072774
  86.0677719  18.9732599  12.1177852  84.8622131  19.8817241  12.2287405
  26.4305639  25.2252793  93.3901596  26.6401005  25.0719333  92.4688530
  25.9937644  26.0769701  93.3979034  92.2508526 104.7244263  30.8489776
  92.0637512 104.5718384  31.7752290  93.2046413 104.6740818  30.7858348
  41.9142103  50.2843618  90.6285000  42.5086021  51.0331917  90.6751823
  41.9207239  50.0305653  89.7055912 112.7358627  77.6157045  67.4807405
 111.9600773  77.3989058  66.9636440 112.3871803  77.9470634  68.3082962
  96.1127377  20.3961086  83.1788158  96.5610027  20.6483054  83.9860821
  95.7116699  21.2063670  82.8643990  22.1051025 103.0690384   2.0699562
  22.1126175 103.1941509   3.0189148  22.8823900 102.5395203   1.8920210
  82.9492664  95.4333973  61.3285637  82.5979137  95.3470516  60.4423714
  82.3541737  94.9183559  61.8733883  22.5890541  41.4554167  88.2760715
  21.9074631  41.9171953  87.7877808  23.4098458  41.8176985  87.9424763
  48.0067682  84.3880844  14.6329153  47.8513908  85.2427578  14.2308950
  47.1446228  84.1074657  14.9398232 114.1617012   5.5118948   4.5352477
 114.6202660   6.0715777   3.9085793 114.3099689   4.6221471   4.2149371
  73.3428192  80.7406521  19.5476055  73.9229250  80.7021809  20.3080201
  73.9316320  80.8646870  18.8031936  40.6452417  78.8370705  16.5844738
  40.8908319  79.5388937  17.1872711  40.1546478  79.2779016  15.8907735
  64.0168190  75.2393389  10.7567286  63.5309553  74.6538687  10.1758742
  63.3399296  75.7249689  11.2281299  13.9507437  46.5553617  66.3552380
  13.0162752  46.5381527  66.5618896  14.2083108  45.6337166  66.3337946
  84.0497780  89.3219662  27.9803896  84.0442467  89.0957260  27.0503283
  84.7877026  89.9240971  28.0760312 100.0856686  12.8273463  28.4622574
 100.8882332  12.4619913  28.8346076  99.4198132  12.1596026  28.6265302
  78.3976984 104.1985226  14.2287374  79.0721369 103.5620594  13.9915264
  78.6739969 104.5336056  15.0817394   9.9901658  44.7243357  93.1257439
   9.4405061  45.2006578  93.7480259  10.0154352  43.8294792  93.4646130
  37.5672245  36.0230041  65.8236504  37.1023321  35.3082919  65.3885746
  36.8747473  36.6129994  66.1213255 105.6985950 104.9829483   6.7297763
 106.0338116 104.5252991   7.5007594 106.3033390 104.7436810   6.0274488
  92.5742912  10.3296602  42.3480129  92.0787430  11.1445570  42.4293423
  92.1544170   9.7313207  42.9660225  20.8662486  34.1926265  58.3881521
  21.4852500  34.9186563  58.4652853  20.0340462  34.6100044  58.1657410
   8.6077034  52.8537703  78.5767221   9.1218996  53.0686140  79.3549728
   8.6746889  53.6317539  78.0231142  25.9609008  12.4320602  28.7308693
  26.6358042  11.7890429  28.9482737  26.3888407  13.0308402  28.1188560
  63.6859608  97.6276016  20.3416395  62.8114414  97.8790665  20.0446200
  63.9156485  98.2874680  20.9958959  73.9051676  78.3808708  21.0344863
  73.2280350  78.7601852  20.4742670  73.4273434  77.8048611  21.6312575
  60.7715178  88.7283516  11.7888701  60.8654976  89.5975113  11.3990343
  60.2411079  88.8733482  12.5723696 100.6603336  52.5989532  12.2120881
 101.2106228  52.8251505  11.4622581  99.8199368  52.3514986  11.8264329
  34.8080659 100.1603699  16.8868589  35.2378082 101.0118389  16.9678009
  35.2853799  99.7168732  16.1856353  92.3622704  84.6881580  12.0648503
  92.0012856  85.0588608  12.8701437  92.7931976  83.8806725  12.3450410
  60.3324175  97.4116325  13.2001948  60.3323603  97.5255394  14.1505921
  60.1969004  98.2933998  12.8532732  67.3031759  83.6722565   9.6836853
  67.1972466  84.2489433   8.9270872  67.5163555  82.8187943   9.3063360
  13.3171201  57.9644823  76.7396784  13.1383204  58.1141901  75.8113194
  12.6212633  58.4367609  77.1968126  76.7022467  73.4615374   7.7884948
  77.3578262  74.1522884   7.8850228  75.9532261  73.8973379   7.3819530
  68.0408430  90.1458073  14.7935438  67.9966927  91.0253048  14.4183409
  68.8226938  89.7570610  14.4013441   6.9522762  11.9335663  29.6435857
   7.1390820  11.0020411  29.5269871   7.3740357  12.1605217  30.4723454
  78.1693983 100.7280064   1.7184113  78.8427830 101.1471653   2.2542153
  78.4802008  99.8301411   1.6023177  35.4533625  19.6178174   5.3038687
  35.4619384  20.3653455   5.9016651  34.9097538  18.9648306   5.7446980
  62.4189806 105.8321285   6.2255275  62.5987959 105.3883839   7.0543742
  63.0157137 105.4216576   5.5997068  82.8600597  80.4597092  20.2430224
  82.0240211  80.2549267  19.8242867  83.4441662  80.6789589  19.5170891
  77.0572710  96.1105347  33.0013323  76.3312149  96.7205715  32.8711796
  77.3041153  95.8398438  32.1170115  71.2476778  99.2107391  25.3616881
  71.1458731  98.3778477  25.8222938  71.0408306  99.8749065  26.0192108
  19.3736935  38.3540082  75.9082413  18.9728355  38.2341290  76.7691565
  18.6463141  38.6027169  75.3378916  22.8456593  95.1425934  76.7859030
  23.3708596  95.8480835  76.4081717  23.0805945  94.3686485  76.2739944
  64.2503452 106.0487747   1.0016643  63.7379408 106.7850971   0.6677485
  64.8307705 105.8131218   0.2779202  59.9229193  74.4983768  93.7969208
  59.5625401  74.4580889  94.6827793  60.7825375  74.0835190  93.8689613
  83.4078217 103.4161949  20.0734401  83.8671780 103.0785179  19.3045485
  83.8773251 104.2191315  20.2994800  17.4946809   4.7593603  20.9878969
  16.6090727   5.1210189  21.0215616  17.3880720   3.8412285  21.2366939
 108.4447479  68.6775684  35.8136845 107.7282333  68.0442953  35.7711840
 109.0070820  68.4530973  35.0723171  24.9636865  18.9994252  66.8426561
  25.2489901  19.3929052  66.0180330  24.2052031  18.4665394  66.6039801
  89.2663479  91.4046955  22.5549293  88.5423851  91.6416645  23.1345487
  88.8449669  91.1769962  21.7261791 102.4463558   2.8187954  20.4928255
 101.8613052   3.1248239  21.1858630 102.8643513   3.6144581  20.1635337
   1.5562786  57.8443527  85.8234501   2.0694731  57.0992470  86.1359882
   2.0842034  58.2201529  85.1189613  10.2416480   5.3936303  14.9629056
  10.4983318   5.1287472  14.0796256  10.7571375   4.8311579  15.5409420
  65.8011198  89.2182064   5.9842581  65.4955053  88.3339977   5.7817400
  65.3282690  89.7812939   5.3714138  78.8268471 102.6055431  36.4025760
  77.8881121 102.7762794  36.4790964  79.2426872 103.4091663  36.7148018
  47.8588247  79.6247053   3.5516679  48.0173874  80.3839874   2.9907969
  46.9522047  79.7261524   3.8414544  11.1195779  40.5608082  89.0773392
  11.5891373  39.7945476  89.4068718  11.3944626  40.6354523  88.1635094
  29.9167871  37.3075056  79.5348501  29.0227461  37.5745726  79.7483921
  30.4576588  38.0542946  79.7917509  96.5135098  20.6514239  36.3266921
  95.8122730  20.1897025  36.7863822  96.4306450  20.3674650  35.4163456
  38.2500291 102.5623417  14.7516489  37.6099873 101.9983292  14.3175256
  39.0988159 102.2335339  14.4555509  49.6085930  77.6193333   4.2526281
  49.0481758  77.3769379   4.9897912  49.0835524  78.2391453   3.7462750
  40.8308887  71.3613653  88.7790871  41.2113905  71.1862803  89.6397781
  40.2622032  70.6099224  88.6112595  53.1167173  28.2298946  92.4923038
  52.2822618  28.2728052  92.0253277  52.8714991  28.1383109  93.4130192
  43.7619257  75.7854700   4.3199632  43.1289005  75.0776196   4.4401973
  43.2265043  76.5560770   4.1309762  39.4291258  85.6149387  31.0601568
  39.4345999  84.6625233  30.9647465  38.7855458  85.9161949  30.4188490
 108.0844116   8.6548239   3.7537882 107.6967239   8.8694090   4.6022451
 107.6797009   9.2706591   3.1428978  42.6735735  94.0561581  12.8288674
  42.5150824  94.9096584  13.2321715  42.7830744  93.4584141  13.5684240
  91.9609165  92.3092461   3.2257029  92.6435947  92.1648598   2.5704682
  91.3224030  92.8710842   2.7865291  55.3061676  74.0274096  10.5514026
  55.8139992  74.7661734  10.8869207  54.5252371  74.4275761  10.1689792
 111.7068768  53.8460302  61.7780495 110.9367085  53.7484026  61.2180996
 111.5065765  53.3228540  62.5541925  14.9501920  51.7511892  88.1247044
  15.5575836  52.4046755  87.7779102  14.0879047  52.0468664  87.8326988
  76.3641071  96.1270523  15.0501764  76.0356236  95.3707695  15.5363488
  75.6223536  96.7311573  15.0171888  98.4523869  97.3237705  51.8385458
  98.4329319  96.9719887  52.7285480  99.2891407  97.0260429  51.4815617
  53.8917398  57.7302647  19.7144485  53.2944489  58.0517960  19.0391028
  54.0345192  58.4842396  20.2866125  77.8651428  12.0709884  23.1922460
  78.0850887  11.8474650  22.2878718  78.6430407  12.5192726  23.5241342
  78.8660860  41.5828657  90.2171803  78.1508017  40.9473324  90.1907730
  78.7731504  42.0128679  91.0672951  56.3775539 104.0927601   1.7338814
  56.9184875 103.4041500   2.1204537  55.4799795 103.8453865   1.9561525
  26.8714285  96.1661816   7.6039994  26.3411212  96.8853855   7.2608513
  27.4783206  95.9562397   6.8941844  69.0130472  79.9903154  33.8509679
  68.5519791  79.7078943  33.0610991  69.3453646  80.8617687  33.6356473
  31.8836498  53.2497025  94.1396332  32.6870680  52.8722763  94.4978237
  32.0008063  53.2058907  93.1906414  40.3009033  93.3967113   2.7106225
  40.0477028  94.0087414   2.0195837  40.1120567  92.5321198   2.3458433
  59.0546513  69.2056894   7.5348479  58.6610937  68.9871216   6.6901153
  59.2180824  70.1475859   7.4864006  35.7333589  35.8339453  94.2264748
  35.0542164  36.1131263  93.6124229  35.7825875  36.5428972  94.8677158
  50.5362606 108.4437180  28.6782980  50.0739765 108.2677269  29.4977832
  50.4177904 109.3824291  28.5332966  57.2823143  99.0861988  19.0277672
  56.4902306  98.5878944  19.2290723  57.4565935  99.5903397  19.8225665
  51.7179823   9.9644685  82.7003288  51.5937424  10.1272702  83.6353683
  52.5717926  10.3488731  82.5016594  98.1184673  91.2365818  10.2074897
  97.2515297  90.8773899  10.0187135  97.9663563  92.1722507  10.3401852
  54.5899439  86.6504288   4.3886822  54.6945572  86.3870049   3.4744096
  55.4836702  86.7915726   4.7010314  79.8863840  99.9290752  35.5274916
  79.4238520 100.7628918  35.6114292  79.2282772  99.2675686  35.7408929
   8.2838327  15.8966506  58.1250525   7.9548299  16.5983987  58.6867857
   9.2125148  16.0977733  58.0095911  88.4445572  84.5018959   2.7660033
  89.3557072  84.5974541   2.4886812  88.4710026  83.8312817   3.4485039
  88.2400990   8.0802917  27.8342199  87.3544884   8.4318745  27.7430797
  88.1270695   7.2739393  28.3374596 103.8182545  10.5459905  50.4014826
 103.0313110  10.8281827  50.8676529 104.4530201  11.2451243  50.5580330
  22.7655077  27.3267341   6.8132830  22.8333545  28.2800531   6.8663031
  22.3529983  27.1627712   5.9652358  28.9308691   0.5004552  37.3714757
  29.3341303  -0.3543451  37.5228930  29.6567678   1.0634780  37.1025753
 113.7291241  47.3536062  93.4760380 114.6320438  47.3855686  93.1598949
 113.6218357  48.1624174  93.9765739  38.2562661  32.9815960  27.7567863
  37.4473858  32.7271008  27.3127413  38.7734818  32.1769381  27.7920938
  72.3416758  18.9114368  28.7914610  72.8996420  18.8207257  28.0190110
  72.8049898  18.4331727  29.4790888  61.7412138  57.6294518  89.4375229
  61.9288349  58.3082962  90.0857544  62.2394943  57.8928185  88.6638355
  89.8376369  77.8949261  76.9856405  88.9549541  77.7096415  76.6650581
  89.7190189  78.0883980  77.9155493  44.6509552  41.0069275  77.3923063
  45.2030563  41.6007090  77.9010630  43.9396048  41.5595865  77.0686102
   9.2122060  18.1802273  19.3636227   9.8400068  18.7003922  19.8651457
   8.5358310  18.8059020  19.1042387  51.1967230  78.1020689  94.7478104
  51.6422367  77.3220682  94.4171238  50.3239489  78.0633211  94.3566704
 104.3193436  99.3514442  28.9380026 103.7161636  98.6495209  28.6936450
 105.1492596  99.1075802  28.5281205  49.7556782  46.7686844  26.3767314
  49.7681475  46.6065741  27.3200226  50.5338573  46.3198376  26.0462666
  16.8042099  91.3368511  83.7377167  16.4167535  92.1662903  84.0172768
  16.1009479  90.6962109  83.8436985  83.5697079  17.3224223   6.1439055
  83.0240536  17.9297101   6.6436058  83.8877583  17.8395867   5.4038954
  11.2040305  34.4877005  27.6958489  11.0371184  34.3077302  28.6210418
  10.3558803  34.7641921  27.3488212  69.7601461  93.9275169  22.4747729
  69.6768570  93.8924789  21.5218472  69.4159365  94.7881031  22.7138090
  94.7382927   5.5512995  19.9710870  95.0252819   5.2896804  20.8459711
  93.8861942   5.9639859  20.1119661  15.0769973   3.4840599  15.0911427
  14.7388554   3.0454069  14.3104541  15.5162895   4.2654601  14.7554827
  58.8442087  98.3468342  46.1739254  59.2210293  98.3083057  45.2948618
  57.9209042  98.1276894  46.0485458  91.8365192   5.6903458  35.1368117
  91.1238480   5.0681633  35.2824640  92.4678230   5.4980105  35.8301377
  26.4368415  45.9783840  88.7130833  26.3829565  46.8023109  89.1973019
  25.9365916  45.3567076  89.2417622  83.8515282  68.5248137  40.3600645
  83.8221169  69.1062641  39.6002746  84.1730976  67.6928568  40.0126839
  16.5084016  77.4888086  89.5898056  16.6611767  77.7779675  90.4894066
  15.8364224  76.8114996  89.6667862 109.8170280  84.3848133  24.6404076
 109.2939854  83.6913300  25.0425625 110.2445316  84.8205471  25.3777146
  80.6852531 108.8122940   7.8815329  79.9436808 109.2482567   7.4617124
  80.9992313 108.1893444   7.2261113  88.7010670  82.0690250   0.1777490
  88.5956001  81.6533566  -0.6780174  88.2358837  81.4918518   0.7833192
  73.4686708  36.5587258  43.8730860  72.8807116  36.1217570  43.2569742
  74.3094873  36.1163712  43.7565279 104.4553661 101.6027451  12.6223671
 104.4233036 100.6765270  12.3829567 103.7123680 101.7231464  13.2137060
 102.6071739  30.0812697   6.1387002 102.2369003  30.2855611   6.9974160
 103.5352993  30.3009582   6.2196577  12.4970698  22.0034742  33.5655212
  13.2257009  21.8318391  32.9689717  12.9106319  22.1237969  34.4203424
 108.9385128  37.2180891  44.3295050 108.1175041  37.5162101  43.9379549
 109.0386486  37.7561975  45.1147699  59.7897911  70.9860468  77.7160406
  59.5495272  71.7137384  77.1424818  58.9682674  70.5184364  77.8666162
   7.2788870  23.5237956  31.0454774   7.6288027  24.3927646  31.2421584
   7.6558769  22.9560304  31.7176032  22.9305959   6.0892016  14.0477717
  22.1853256   5.6563771  13.6312807  23.2457757   6.7091018  13.3900344
  11.8941677  32.4999785  33.1070852  12.0626712  31.6235781  33.4531474
  10.9993196  32.6984453  33.3829260  37.4300408  89.7595215  20.2117181
  36.9823718  89.1335678  20.7809401  37.8356457  90.3833008  20.8138943
  33.1574178  62.5877428  94.4139194  32.4448442  62.9041624  93.8586235
  32.7333021  62.3600101  95.2412605 105.8852196   5.6305408  18.1780553
 106.2273598   4.8927480  18.6828661 105.7438850   6.3197881  18.8270497
  59.3250132  82.1664715   2.0912246  59.3581772  81.2292957   2.2831675
  60.2203417  82.4724579   2.2360981   3.1940037  24.1889310   6.7791522
   2.7022201  23.4659028   6.3897789   2.6613235  24.4670916   7.5242096
  63.0588675  97.8594589   7.3101449  63.7259960  98.4837437   7.0247597
  62.5928879  98.3116817   8.0134153  38.6935234  88.2048988  84.5836163
  39.5237637  88.3906269  85.0222969  38.0444241  88.7060833  85.0772953
  93.8265038 109.4365883  34.2070556  93.1075954 108.8444519  34.4279027
  94.6103191 108.8890266  34.2523551   2.0707233   2.9081395  32.5342846
   2.7301952   2.2897363  32.2197914   1.7639634   2.5321379  33.3593631
  70.9738350 101.3439178  10.5502558  70.2698135 101.4270115  11.1934400
  71.7607546 101.1948013  11.0744238  97.4137306   0.9692313  31.9826508
  98.2580280   1.4059781  31.8701673  96.7807770   1.5644701  31.5810490
  41.6964769  76.8341923  91.0730743  42.2769499  76.5210342  91.7667675
  41.1330938  77.4768591  91.5041351  85.1460266  73.1219339  89.9684143
  84.2331982  72.9149580  89.7680664  85.1453209  74.0629244  90.1438236
 102.7532196   3.0863541   5.9013057 103.6741829   3.2029721   5.6679314
 102.4852371   3.9362103   6.2508225   5.9872818  13.1557429  27.4562311
   6.2858081  12.8316486  28.3059812   5.2044648  12.6393461  27.2644901
  24.2269492  48.3780146  87.5575924  23.7483454  48.6632156  86.7792416
  23.8991690  47.4954224  87.7302933  21.0389757  20.1614213  58.2959509
  20.9496760  20.6867933  59.0910912  20.5632663  20.6551337  57.6279879
  90.1101017 104.6848774  10.2453554  90.9794903 104.6451187   9.8468512
  90.2334213 104.3287277  11.1252320 106.5972710   1.7696632  16.8880212
 105.7229614   1.8628690  17.2663355 106.7560959   2.6025683  16.4438641
 108.4575939  23.8454580  68.1077480 108.9246368  24.6609616  68.2895756
 107.7233410  24.1085577  67.5528812  36.3870311   8.8612187  27.6272726
  36.1222529   8.8944310  28.5465217  37.1897936   9.3812561  27.5903106
  71.4933348  30.0124335  29.2292309  72.0229626  29.6697187  28.5093212
  70.7400084  30.4182911  28.8002682 113.9304161   2.3595087  51.8557167
 113.2602310   2.9878452  51.5868616 114.3607426   2.1044341  51.0396338
  19.5233405  92.8641891  73.3565950  20.1453257  92.1372128  73.3860970
  18.8090813  92.5918198  73.9326859  79.9153137  77.9050875  92.7126122
  79.5482302  77.3570108  93.4062195  79.8079109  77.3863745  91.9153500
  51.4804792  62.4839067   1.6018555  50.7873201  62.0854521   1.0755572
  52.1593237  61.8110037   1.6528466 106.1815453   6.2123489  38.4611821
 105.4184341   6.0028076  37.9226828 106.0259628   5.7527018  39.2862582
 106.9766331   0.7875024   0.8959320 107.6447868   1.1335562   0.3042745
 106.1736298   1.2429532   0.6429916  48.0005741  94.3869114  50.9746027
  47.9446936  93.5070801  51.3474321  47.3864412  94.3754005  50.2404737
  90.0539017  21.9026303   3.6828339  90.5443287  22.7230692   3.7337491
  90.6253910  21.2558866   4.0967828  22.8638268  64.8854637  91.9312954
  23.4729600  64.5438862  91.2766838  22.2443104  64.1706848  92.0780182
 109.1904259   7.3110420   9.9037790 108.3684731   6.9653374   9.5557755
 109.6943378   7.5570142   9.1280198  99.1308594  89.5495510   3.8181978
 100.0025654  89.4203186   4.1919133  98.5426331  89.5393372   4.5732597
  83.3578205  29.8198843  15.8663714  83.7424278  30.6887197  15.9822941
  84.0789318  29.2799854  15.5427372   8.5841852  86.1025333  15.2836716
   7.6958287  86.4410686  15.1720977   9.1457754  86.7679882  14.8861551
  50.8610010  13.9109516  78.6206770  50.3148174  14.1327381  77.8665400
  50.5435181  13.0529726  78.9022923  72.9056311 100.2301979  73.3460999
  72.9199600  99.6465302  72.5875711  72.5471067 101.0514641  73.0096340
  11.1543560  32.9276872  10.0330114  11.0691762  32.1018243   9.5566440
  10.4133189  33.4544230   9.7336024   2.8880775  39.9511337  91.1179733
   2.3611996  39.9596071  90.3188801   2.3060302  40.3013706  91.7923546
  88.3034229 100.3664112  10.1201153  88.2944679  99.5886326  10.6779802
  89.2195415 100.6436539  10.1103938  58.8584709 104.4502831  37.2048426
  58.7100029 103.7186909  36.6057062  59.6324253 104.8923779  36.8558717
  99.6508598   9.6484357   0.4422367  98.9755249   9.5344847  -0.2264643
 100.0077534   8.7701315   0.5743213  86.6707230 106.2844753  17.6465261
  86.0241604 106.6169548  17.0239139  87.2256851 107.0395756  17.8416598
  17.5855100   0.1529095  14.3469465  16.7749703  -0.2574366  14.0454960
  17.3108959   0.7313798  15.0584173  12.0012355  37.3788333  21.2232399
  12.4142122  37.0761633  20.4144931  11.7781401  36.5754867  21.6934466
  50.3245258  96.4548302  36.6534185  50.2582073  95.6912231  37.2267866
  50.8362913  96.1484718  35.9047675  18.6399472  16.3884401   6.3816726
  18.6718309  15.6267285   6.9604748  19.5040381  16.4132464   5.9706229
  69.2980814 103.1657982  12.1026790  69.1926432 103.9939022  12.5710368
  68.8775015 103.3143902  11.2557650  55.8624220  52.1562290  90.8923340
  56.4632988  51.4281273  91.0506058  56.3403416  52.7367640  90.3000450
  87.0619583  87.0103931  18.2187974  86.1320400  87.1593571  18.0476737
  87.5128841  87.4809837  17.5177646  21.4331412  17.5617313   5.2309442
  21.7343950  17.0600116   5.9884119  21.3580942  18.4599662   5.5530828
  69.3610907  75.8906794  93.0047226  69.8059464  75.4412985  92.2861099
  68.6930037  75.2709627  93.2977104  52.8156662  86.9376850  11.7655730
  52.1365166  87.5985813  11.9005132  52.8010607  86.4124298  12.5656486
 109.3231106  23.0376077   7.8081387 108.5779476  23.0384254   8.4089428
 109.8351765  23.8059044   8.0606037  74.0765667  90.4512691  78.8238955
  74.3680239  90.1817703  79.6949053  73.7393951  89.6489906  78.4252739
  35.5525351   0.4044524  43.2359362  35.7720637   1.2980762  42.9723549
  34.6238828   0.4434967  43.4646559  35.7525682  11.5661442  68.6181927
  36.2328720  11.2785459  69.3946123  36.2890220  12.2689223  68.2513762
  72.3267174  38.0457544  40.4905319  73.0958176  38.1683016  41.0470343
  71.8486738  38.8723493  40.5572128 111.2427521 100.0041103  24.0575886
 111.2363720 100.8497334  24.5060492 110.5437565 100.0726128  23.4072471
  49.5794106   7.7128911   5.3166407  48.8501406   7.7834231   4.7006711
  50.2143288   7.1506822   4.8727554  60.8201599 102.4177456  11.2197721
  60.5041552 101.6270542  11.6570163  61.1949015 102.9471874  11.9236851
  90.9451199  13.0968761  52.5919533  90.6194496  12.8127277  53.4460211
  91.3979244  13.9211082  52.7704048  19.1413963  61.8233347  59.7533226
  18.5717320  61.0541248  59.7589207  19.4802642  61.8639135  58.8590336
  87.5662708  14.9179816   6.4821351  88.0289745  15.2283955   7.2604579
  88.0775452  15.2582526   5.7479322  32.3735285  54.0259790  88.5836315
  31.9098234  53.2719898  88.2193375  32.4112940  54.6549559  87.8630829
  89.3990326  86.2746811  38.5718584  89.9531841  86.2799072  39.3523192
  89.5506954  87.1275997  38.1647134   5.2075756 108.2012272  93.1969166
   6.0546982 107.9556084  93.5687828   4.7533011 107.3689842  93.0655766
  45.4344320  48.2084179  80.5686092  44.7960472  47.6005030  80.1955986
  45.6128979  47.8617382  81.4427948 110.7035351  40.5853319  40.2125216
 111.3457584  40.4785299  39.5108271 110.8511066  39.8351908  40.7884884
  36.6404057 107.2217560  30.1834273  35.7787490 106.9746208  30.5191374
  37.2463512 106.9950581  30.8888841  32.2782016  83.6433315  83.0517292
  31.4068651  83.5803318  83.4429264  32.1977377  84.3382168  82.3983574
  75.3829765  94.4072914  60.0393867  75.8239031  94.2512894  60.8745432
  74.9199152  95.2356911  60.1640844  34.8511028  41.0203505  80.0215435
  35.4477215  40.6515789  80.6729126  34.6414995  40.2852678  79.4453955
  40.0663805 106.8229389  10.7520807  39.8028207 106.0472679  11.2471581
  39.5615959 106.7719555   9.9404001  30.9965467   1.2761958  13.9984536
  30.6338692   0.3922268  13.9410520  31.3159323   1.4618513  13.1154144
  48.3066845 108.3611202  19.0135396  47.4146366 108.4566498  18.6798453
  48.2905054 108.7931728  19.8675287  14.0906477   3.7848416   3.4954569
  13.6728156   2.9453224   3.6874351  13.3721650   4.4172633   3.5030857
 106.5534878   6.7050356  43.3053303 107.4232483   6.3206434  43.1958199
 106.7226887   7.6176119  43.5394430  38.6117768  13.9074516  35.0870538
  38.5064006  14.4785881  34.3261790  38.5088778  13.0221045  34.7380471
 112.9798794   8.3634651  50.9718990 113.0018711   7.7506393  51.7068768
 113.4091091   7.8946400  50.2562237  84.7417450  83.4989834  -0.2129503
  83.8671780  83.1656075  -0.0123641  85.1860523  83.5308552   0.6342819
  47.4162817  94.1084290  12.5797141  47.1847677  94.9197674  12.1276522
  46.6364193  93.8868618  13.0885839 112.4577522   5.6261790  25.3013515
 113.1981945   6.2326592  25.2887654 112.8558064   4.7647846  25.4269743
  30.3033400  22.8278375  40.1552486  29.3938684  22.5730181  39.9998093
  30.7441711  22.6625609  39.3218327   8.2968730  19.0599489  22.3948669
   8.6452138  19.7872376  21.8791723   7.3949558  18.9605808  22.0900679
  17.9747331   2.6067322  55.2129841  17.8581774   3.5462332  55.0716162
  17.0904374   2.2770655  55.3729057  72.3396349 107.9244709   7.2408783
  73.2400417 107.9894352   7.5591236  71.8189192 107.7606964   8.0271757
  98.4257603  25.8521795   9.1700006  99.1119003  26.1460710   8.5707742
  97.6090050  26.0218048   8.7005657  45.1207066 109.1848087   1.6608526
  45.1106358 109.6464634   2.4993077  45.6357336 108.3955193   1.8281867
  44.7429085  93.1873226  47.7922630  44.7539186  92.2482491  47.9773474
  45.0383615  93.5953426  48.6061764  88.1460476  57.8412056  17.0938039
  87.6455593  58.6266899  17.3146069  87.7797318  57.1580648  17.6553762
  23.6049104  17.8742623  22.5615525  23.0271435  17.3441005  22.0126033
  23.3741760  17.6300788  23.4578609  81.1568165  86.7916203  18.4790576
  81.9042206  87.0304108  17.9307926  81.4337063  85.9919453  18.9263773
  43.2530689 108.8247871  43.9532137  44.0230083 108.9536190  43.3992910
  42.5123405 109.0472221  43.3892345  96.1398029   7.9636461   6.9804519
  95.8948421   7.0450389   6.8691522  95.4547977   8.3279651   7.5410491
  17.2808957  29.8785067  41.4963913  17.7169025  29.1397691  41.9211245
  16.7461002  29.4788408  40.8104706  65.5063772  99.1827106  63.8585711
  65.8157396  99.8622799  63.2596493  65.4781294  99.6118641  64.7137117
  72.6105022 103.8563061  33.3545637  72.2524023 104.1038799  34.2070341
  71.9456291 104.1357040  32.7251911  94.6423149  16.4223421  42.2267914
  95.3238487  15.8370638  41.8963432  94.3255043  15.9956574  43.0229092
  68.9797974 106.5519810  45.7829666  69.5374537 106.9453621  46.4541578
  68.6100054 105.7757282  46.2035990  25.4424453  38.7667561  93.3092308
  25.1914883  38.9422941  94.2161179  24.8694062  38.0501604  93.0365658
  70.6037331  97.9429722  11.4906180  70.2452326  98.6438942  12.0350623
  70.2170944  98.0887890  10.6272066  95.5698395 107.2678089  25.8225870
  96.1926365 107.2520542  25.0958705  94.8233891 107.7646160  25.4875851
  86.8284988   9.5032823  32.5421476  86.5610790   9.1410500  31.6974545
  86.1128521  10.0891042  32.7889085  66.2167549  87.2686100  24.2426944
  65.3493071  86.8973064  24.0817738  66.4405966  86.9797039  25.1273727
  82.0545101  98.7256527  16.0348284  81.9563580  99.3709278  16.7349827
  81.1720371  98.3790779  15.9030867  78.9935637   3.4327984   3.6893335
  79.5205545   3.6558011   2.9220116  78.0904007   3.4495807   3.3727083
  48.1019783  88.1086063  17.0169890  47.3252964  87.5970459  17.2434771
  48.1692457  88.0332184  16.0651374 113.0514336  99.0901756  21.8677139
 112.5452614  98.5208511  21.2881541 112.4500751  99.3001747  22.5822091
  80.3428745  83.9313698  42.8010416  80.2124596  84.8621082  42.6195431
  80.2741432  83.5085011  41.9450665  65.8631754 102.3204327   5.8364671
  65.1686049 101.8080330   6.2502855  65.6784916 103.2243061   6.0916877
  57.8369093 106.6734409  38.1268668  58.1508255 105.8291054  37.8031611
  56.8898916 106.6451454  37.9905343   8.1659460  28.6013436  16.2237906
   8.9557141  28.3361340  15.7524490   7.5267386  28.7855291  15.5355167
 111.2128448 108.6807823  11.3437676 111.2706184 108.8490582  12.2842872
 112.0536900 108.9770985  10.9953427   5.0211734  32.0204520  72.7207136
   5.0737363  32.1967316  73.6600685   5.8929932  32.2335005  72.3878860
  78.9592171  95.1145363  34.7292995  78.2378054  95.2773857  34.1216207
  79.6926498  94.8623848  34.1682911  30.7171321  45.9323645  89.7713757
  30.3293324  45.6382847  88.9471436  30.6081390  46.8832874  89.7615242
 112.4292564  32.9694390  27.8251123 112.4163246  32.1087241  27.4064994
 112.5379467  32.7808261  28.7572289 108.0116940   7.1394777  29.2540622
 108.5442543   6.7133462  28.5824776 107.1988583   7.3703402  28.8043737
  17.0347500  96.6297054  82.2294903  16.7271519  97.4286556  81.8013668
  17.3381734  96.9204235  83.0895138  97.4128151  23.4944487  12.7164614
  97.3279095  24.2864895  12.1857131  98.1936073  23.6456370  13.2491350
 112.4749470   1.1163450  37.1770310 111.5545464   1.3121358  37.3524284
 112.7488995   1.7903979  36.5550709   5.0776207 102.0293999  18.9171839
   5.6501305 101.9672680  18.1525898   5.5649549 102.5710964  19.5379150
  94.1014290   9.5634085  56.8196726  94.1656113   8.7755549  56.2798595
  93.7555981  10.2316403  56.2279797  99.3276596  86.2626457  33.8567901
  99.3777180  85.4838943  33.3024716  98.5473537  86.1246777  34.3937397
  92.7431393 104.9917316  26.7601228  91.9285107 104.9234486  26.2621784
  92.6848221 105.8400822  27.1996093  96.8107986  95.9521770  35.1182318
  95.8588600  96.0174847  35.1943207  97.1055984  95.7145500  35.9973550
  65.5615568 100.9609890  23.5532498  66.1486101 100.8138180  24.2948318
  65.1741505 101.8200111  23.7212515  43.5989809  17.9307616  62.7140760
  43.1897402  17.8482223  61.8527174  43.4232569  18.8341677  62.9771566
  26.7442369  50.0828695  93.2738113  26.3017797  49.2435789  93.4005165
  26.0989332  50.6283188  92.8240299 114.4399261   8.2650703   2.7391642
 113.5447884   8.1130701   3.0422437 114.6737862   9.1194522   3.1018969
  59.1424894  99.6943951  37.5173092  58.9671278 100.4897976  38.0201054
  60.0792742  99.5376396  37.6360416  94.9287510  25.1631904  32.7812791
  94.6616173  25.0809622  33.6967635  95.1627731  24.2728186  32.5191689
   9.4073850   7.3215896   5.4270428   9.5010859   7.3701036   4.4756764
   9.5559841   6.3992870   5.6356275  33.7976623  18.7241888  23.4260178
  33.1350255  18.3594525  24.0126276  34.2047882  17.9592168  23.0194497
  62.9016161  61.3396788   4.1899005  62.9322577  62.2077990   3.7878311
  62.0859098  60.9555340   3.8685250  19.9599493   5.1654339  27.3910475
  20.5877900   5.1323640  26.6692758  19.2992377   4.5111305  27.1639371
  13.8476062   3.7876382   0.6265984  13.6704159   3.4197238   1.4923203
  13.8202226   4.7352564   0.7588921 107.6360130  93.0051899   3.7051940
 106.7435265  92.7684593   3.9575285 107.9556656  92.2470760   3.2159987
  49.8872423  67.3169565  92.9419136  50.3148270  66.7323208  92.3161316
  49.4123363  66.7309618  93.5312462   5.9832603   6.6103894  23.4759498
   6.5188402   7.2209394  22.9693794   6.2203091   6.7829573  24.3871355
  21.7690897  29.6134758  34.6541786  22.6394558  29.3426466  34.3620348
  21.6829181  30.5155778  34.3459249  32.2726297  43.9249802  93.3674240
  32.1108270  44.7926760  93.7377739  32.6885104  44.0987396  92.5229836
 113.4977913  37.2666240   3.1765318 113.4834003  37.4809384   4.1093200
 114.4268990  37.1714568   2.9669496  87.5667667  91.1607361  17.3158133
  86.8995857  91.4783955  17.9242456  87.7693844  91.9176388  16.7660129
  10.5638051  71.2813234  94.4146824  10.0849628  71.4121914  93.5962582
  11.2625933  70.6677485  94.1878510  30.7539582  41.3687849  85.2768898
  30.9246159  42.2338867  85.6493187  29.9740171  41.4906883  84.7355366
  81.5715313  46.4275074  10.4713297  81.3085556  47.3228121  10.6846273
  80.7514763  45.9804869  10.2617633  43.2169390   6.7798060  91.1314201
  43.1268740   6.1733365  91.8664837  42.4124050   6.6644746  90.6257915
  97.2717094  98.2189178   6.4834207  96.6215229  98.6290550   5.9130871
  97.2404099  97.2903156   6.2533069  75.1062393   7.4159378  19.7315323
  75.0722742   8.2646126  19.2901373  74.9521732   6.7774767  19.0352118
  14.1781056  32.9038858  40.9464169  13.7497687  33.6054492  41.4368916
  14.1050911  32.1361351  41.5133905  80.6879807 105.9488487  21.1155677
  80.4621792 105.1284981  21.5540481  81.4178276 105.7198620  20.5401397
  96.3716984  13.8733900  28.6815882  96.2098312  13.4244108  29.5113158
  96.6427326  13.1782234  28.0819893  78.2598591  43.3857155  44.7107601
  77.7772284  44.2039537  44.5933485  78.7277746  43.5002136  45.5379105
  53.4372997  53.5303688  91.9935703  54.3363285  53.3235836  91.7381859
  53.0091953  52.6780605  92.0743275 113.4016609  29.0104723  46.0988760
 114.0952301  28.9948750  46.7583752 113.8500881  29.2404389  45.2850819
  31.7840433  26.7049026  13.6333930  32.3000646  26.6650844  12.8281808
  31.4371037  27.5968289  13.6516714  22.9758668  17.8452015  11.5209174
  23.4272528  17.2106802  10.9642625  22.0556211  17.7744544  11.2671959
  96.0883522 102.6929855   1.6011105  95.9693336 103.5328579   2.0446062
  95.2192593 102.2919750   1.6103545   7.0286274  14.1972351  17.7290893
   7.2492528  13.2689703  17.8057659   7.8503656  14.6543097  17.9081440
   7.5052798   5.2670634  15.7511091   6.7987639   5.1152283  15.1234055
   8.3017552   5.2656591  15.2202082   9.7347605  12.4463272   4.1615486
   9.9684787  13.3728540   4.1053665   9.1924512  12.3833609   4.9477851
   6.7153412   0.1093975  24.4828725   6.8963581   0.4946109  23.6255074
   6.5929967   0.8613998  25.0623178  89.3482494  90.6949997  19.5730746
  89.1055679  89.8163795  19.8652554  88.8171196  90.8423901  18.7905061
  55.7289076  96.0691833  37.6081252  55.2588654  96.7100906  37.0747113
  56.6385889  96.1373138  37.3181748   6.7697865   3.7262738  18.0875778
   7.0945811   4.3240422  17.4142170   7.5352603   3.2090643  18.3381283
 112.9695129  39.9934435  15.0367033 113.1987000  39.7528958  14.1390145
 112.0236778  39.8554659  15.0875938  24.2230654  63.4777212  90.1738930
  24.8727298  64.0507793  89.7667408  23.6308146  63.2417870  89.4598866
  17.9134202   2.7030376  43.8533211  18.6017072   2.3511709  44.4178438
  17.8590798   3.6287975  44.0904856  75.6831598  37.7818680  28.9877486
  74.9240398  37.4898195  28.4830904  75.7904053  37.1154118  29.6663976
 102.3701954   9.9313420   7.6678121 103.1934357  10.1404762   7.2264874
 102.5792122   9.9807566   8.6006051 113.8024998 107.0197201   9.6543574
 114.3939114 107.7592182   9.7944117 114.1578484 106.5707874   8.8872713
   0.1173452  94.8720360  60.1293135   0.3178457  95.1631927  61.0188437
  -0.1194044  95.6735134  59.6626091  30.6629133  34.3886805  24.5723724
  29.8732615  34.5377040  24.0523028  31.3168836  34.0976906  23.9368558
  99.2207623  99.0505219  31.4504552  99.8808861  99.2751408  32.1062136
  99.4884396  98.1907368  31.1258864 106.3129902  36.2634540   7.9132575
 105.7535934  36.8664765   7.4236977 106.3223839  35.4643083   7.3864639
  13.9635265  29.2057705  62.9080200  13.7154055  28.4399080  63.4258270
  14.2599595  28.8443279  62.0727205  21.1380959  62.8573465  92.4861336
  20.3037548  62.5165653  92.1636868  21.7499280  62.1282530  92.3845673
   4.9998978   9.1663623  20.4881907   5.8380091   9.4062471  20.0928974
   5.0405377   8.2141072  20.5764556  19.2734396  20.6642652  12.7241385
  19.6658647  20.5269432  11.8619454  19.3620849  21.6044140  12.8806520
  29.7929478  43.7946224  29.1273427  29.7019553  44.0108967  28.1993461
  29.3419743  44.5047140  29.5841002  71.8409634  40.4930735  92.7207279
  72.3947048  40.4611921  91.9406128  72.1366024  41.2716198  93.1926441
   0.3958435  30.3038025   4.0865666   0.7391242  30.0287223   4.9366969
   1.1233284  30.7691431   3.6737043  76.3672304  89.0157223  91.0082054
  75.5002165  89.4021034  91.1316109  76.2289524  88.0755043  91.1226845
  25.3532219  13.6280060   4.8290971  25.2883267  13.8870168   5.7482994
  24.4656205  13.7345791   4.4869900   2.9320565 104.4871044  14.4032097
   3.3941981 104.9567509  15.0975370   2.8753132 105.1170158  13.6847162
  54.1322184 104.4479179  30.1394010  54.5703173 104.5587730  30.9832072
  54.6396112 104.9877930  29.5333385  49.8942232   3.3088031  93.1408978
  50.1974869   2.4824204  93.5168648  50.6676006   3.6748028  92.7117538
  14.6701229  12.9256892  34.0262508  14.7376990  12.2506988  34.7015667
  15.0829828  13.6964190  34.4158077  34.6352005 103.3571434  62.4700880
  35.1091790 103.6460304  61.6902685  33.7407446 103.6707687  62.3366117
  79.1005993 103.3029366  21.2143946  78.9998388 103.5242081  22.1402001
  78.4307766 102.6385498  21.0526490  25.4341674  32.2951078  38.5970783
  26.0916257  31.8216562  38.0873466  25.5030751  31.9267416  39.4778681
  41.5204573  14.6911120  13.3038652  40.6094265  14.7907948  13.5801303
  41.6605139  13.7445843  13.2774031  39.2718577  87.8291035  69.4742823
  39.3091011  87.2264767  70.2170372  39.6023321  88.6577034  69.8213243
  68.8777208   5.1715410  84.6550465  69.0423679   4.3105775  85.0395775
  68.8348341   5.7646352  85.4051304 107.7735233  17.7442837   9.8181224
 107.1006966  17.2425878  10.2783763 107.9847431  18.4637749  10.4130590
   4.7799167  25.3124452  19.7655046   3.9368552  25.2262425  19.3204772
   4.6945286  24.7677112  20.5479407  61.3238287  36.1796498  25.7204366
  61.5238619  35.7242942  26.5382814  61.7865276  35.6792426  25.0483251
  54.2791367  91.5773487  85.1400757  54.4575882  92.0533085  84.3289948
  54.2532444  92.2555637  85.8150387  18.3693326   9.8903477   5.5409318
  18.1094766   9.3960923   4.7634888  18.1167030  10.7928967   5.3464717
  13.6808670  26.3971829  55.8901072  13.0366361  25.8868480  56.3807774
  13.6096430  27.2816014  56.2492180  30.7392979  27.8524065  23.2355165
  30.7139158  28.8024569  23.1215239  30.0895309  27.6753473  23.9157248
  91.5750980  38.7125325  89.5277023  90.9171772  38.8286638  88.8422108
  92.2956657  39.2865157  89.2677975   5.1052648 105.8363724  15.8172894
   4.9085659 106.7705631  15.7477832   6.0588121 105.7867336  15.7500947
  28.4666133  27.7420020  13.4386647  28.0969310  27.8609085  12.5637770
  28.4625244  28.6192298  13.8216627  13.1578684  10.8476186  13.6923301
  13.6206114  10.0677443  13.9987588  12.2309637  10.6322193  13.7956929
  28.4248090   7.5616318  19.8823571  28.7319350   8.4388381  20.1112986
  28.8820815   7.3527700  19.0677953  37.0141840  69.0318108  90.0205040
  37.0721865  68.9398527  90.9715080  36.6777134  69.9177170  89.8856163
   3.7156084  11.9322312  13.5234380   4.3635932  12.2027278  14.1739595
   3.3341807  11.1316919  13.8838291 103.3351135  18.4441209  23.3615494
 102.6872349  18.5328639  24.0605545 103.4473133  19.3330419  23.0247068
  63.2849360  91.9530201  23.1448293  62.4020958  91.7472076  22.8374815
  63.6627388  91.1039543  23.3741164  90.1878166  26.3774562   5.0659084
  90.0028896  27.3003149   5.2401638  90.2006435  25.9682322   5.9311265
  30.7297659  11.8786442  14.1331124  30.9235334  11.3811159  14.9275625
  29.8958898  11.5233779  13.8254297  15.6155729  19.9632895  20.3059697
  16.4787519  20.3763723  20.2832508  15.1197934  20.4064012  19.6174312
   0.3127513   2.4557114  46.5659857   0.5490682   3.1072599  45.9057808
  -0.3487682   2.8897038  47.1047544   5.8005363  16.6284728  18.9811504
   5.6893909  17.0560944  18.1320214   6.4992064  15.9900010  18.8381600
  35.6798077  37.3964429  40.8884859  35.4887938  36.7693233  40.1910162
  34.8551965  37.8634882  41.0230875  31.9628263  71.8725681  70.0947380
  32.5894022  72.5668716  70.2986431  31.3810682  71.8442917  70.8543348
  83.3238506 108.6483860   5.2507919  83.7600231 107.8010178   5.3398895
  82.8049374 108.5676956   4.4505069  98.9302158  39.9434519  27.8942227
  98.1200886  39.5603895  28.2306767  98.8161945  40.8865118  28.0119920
  30.1200199  56.5590000  92.5511646  31.0601640  56.6225338  92.3828697
  29.8724198  55.7010651  92.2063923  18.1134200   6.2865990  51.8988991
  17.2325921   6.0041165  51.6527748  18.2128274   7.1456856  51.4886284
  99.7022724   6.3079607  39.8190928  98.7996864   6.0053450  39.7191095
 100.1122761   6.1217320  38.9744401  19.9013233  57.0635414  79.4168186
  19.6220505  57.9401922  79.1527700  19.4927585  56.9294453  80.2719975
  99.6246529  47.9257059  40.5104351  99.1143131  47.1328163  40.6750679
 100.1106548  48.0705976  41.3222504  19.6619427   5.1426387  10.0707161
  19.7925699   4.6503535   9.2602700  19.5803070   6.0532671   9.7873026
  96.1097622  23.2145166  29.1920137  96.3140678  22.3492432  28.8373470
  96.9113350  23.7215662  29.0631557  31.8638611  19.3450558  15.1146793
  31.0115314  19.6492231  15.4265296  32.2210097  20.0891423  14.6299005
  19.5631325  36.1783576   8.3432108  20.0234032  35.7041669   7.6507330
  18.7397432  36.4524508   7.9393089  58.9624548  99.3280983  80.4779625
  59.6213627  98.6839008  80.7369614  58.1361628  98.9686394  80.8008575
   0.7101218  14.5759451   0.1359943   1.2917563  15.2869725   0.4050188
   0.2790247  14.3001044   0.9448818  24.9692082  93.9184189  92.2063065
  24.6784902  94.7931576  91.9483566  24.1589952  93.4280109  92.3451996
  67.2720575   2.6526666   9.5562392  66.5700293   2.6088044   8.9070362
  67.6250267   1.7634806   9.5877707  70.1250458 107.7355862  12.2510266
  69.2551184 107.3554516  12.3733354  70.6764746 107.2818470  12.8884339
  11.3993871  37.0129013   0.8460123  11.0272622  37.8739500   1.0366771
  11.6035628  37.0418620  -0.0887097  42.2859192  14.3213356  10.6842363
  41.5911674  13.9836383  10.1189816  41.8456173  14.5247972  11.5094447
  11.2576735  27.8734350   9.4447070  11.9687784  27.3187947   9.1238701
  10.5185902  27.2752881   9.5552033  33.8139129  17.2167516  46.9258451
  33.2549262  17.9699981  46.7350960  34.4086647  17.1642923  46.1776781
  29.1982341  19.7639215  10.9795856  29.9047136  20.3060699  11.3305712
  29.5959735  19.2995358  10.2431202  52.6872778  68.3913660  90.5141640
  52.9152346  68.5454893  91.4309597  51.8312693  68.8061380  90.4072094
 109.6242046   6.7825383   2.2471601 108.9300251   7.2930342   2.6639795
 109.2198086   5.9350252   2.0616345  14.1165400  74.5561504  13.0854428
  13.6025155  75.2049255  12.6047111  14.6687460  75.0742054  13.6710370
  37.0852804  49.9162388  29.1542244  36.2159395  49.7919321  28.7734008
  37.4479771  49.0326214  29.2166901  33.0549550  13.7709677  17.0060956
  32.3823500  14.1105819  16.4157617  33.6818337  14.4890547  17.0933175
 106.1844063  15.8123755  27.1221876 105.8289051  16.1806357  26.3133407
 105.5417252  16.0428870  27.7930522  28.0199027  25.6567645   0.5757314
  27.4135447  26.3806963   0.4192565  28.4038615  25.4762173  -0.2822949
  31.9349980  36.5519953  29.0529013  31.6799593  35.6701708  29.3241405
  32.3896813  36.4243793  28.2203078  62.3061371  11.3474405  23.4998178
  63.1326342  11.2834620  23.9783978  62.5626183  11.3458431  22.5776196
  17.6243448  51.1495447  35.0438404  16.9640648  50.7036352  35.5743337
  17.7432382  51.9972515  35.4721999 112.0957088 103.8456631  29.5910525
 111.4915752 103.4310627  30.2069807 111.5288067 104.3115044  28.9763570
   4.0628988  48.2183504  13.7349129   4.0728134  47.7225637  12.9161763
   4.9764270  48.2272482  14.0206039  28.1095195   6.3744074  44.5110416
  27.6004243   6.9110322  45.1185703  28.4341621   6.9944382  43.8580513
  29.4945812  14.4713497  30.9573102  29.6661377  13.8950360  31.7020679
  28.8429666  15.0933719  31.2809181  20.8962917  14.0011203  42.6941204
  20.2080870  14.5183790  43.1125116  21.3616896  13.5885608  43.4217405
  23.2307696  33.0217481  12.9257333  23.1811976  33.9768171  12.9659617
  23.6797905  32.8397799  12.1002042 103.8913822  27.1354747  15.1379800
 104.1940308  27.3125505  14.2473149 103.0530548  27.5930834  15.2015054
  49.2945147  75.3948116  67.6031780  49.8702145  75.9606218  68.1176281
  49.7459221  74.5510435  67.5803804  31.3596296  66.6521263  89.6268654
  31.0283995  65.7963467  89.3545341  30.5733466  67.1639490  89.8166847
  26.8269801  27.1013474  31.9720960  26.5503621  26.6574335  32.7737522
  26.0468078  27.1024394  31.4175129   4.1158226  38.9357996   8.3456939
   3.6445525  38.3560920   8.9440876   4.9969244  38.5649347   8.2972026
 107.3933315   3.5319993   3.5635272 107.4557590   2.6331207   3.8865626
 107.7849483   3.5005671   2.6906717   6.5674078   6.1795622   4.7344977
   7.1268153   5.6753325   5.3253007   7.1792001   6.6751879   4.1901660
  99.5010662  12.6006758  18.9469755  98.9137840  13.3519661  19.0299845
  98.9163876  11.8453932  18.8843238  55.1317406  23.5964942   9.4820094
  54.7330713  24.1953254   8.8505876  55.7562256  23.0859685   8.9666289
  32.7839661  29.8743486  15.2538097  32.0431638  30.2574897  15.7235396
  32.7027011  28.9327621  15.4055989   0.9637873  27.7413225   1.7417122
   1.5407836  28.2526588   1.1744009   0.1069049  28.1578970   1.6497929
 114.2082119  16.0315144   5.7114375 114.1037083  15.0802326   5.6920689
 113.3483410  16.3720036   5.4646409  45.6745052  53.7951374  87.7493286
  44.9260902  53.5191154  87.2202492  45.4405499  54.6709347  88.0566978
  39.3173933  16.3530922   7.1986645  39.5440054  16.9860876   6.5173459
  38.6132503  15.8302498   6.8151957  16.4936996   9.4782692   9.6608841
  16.3816583   9.7820687   8.7601155  16.0314488  10.1269674  10.1916826
   7.4304801  15.4756010   7.4055666   6.6582167  15.9956014   7.6279193
   7.9483032  16.0464656   6.8379360  65.2940035  83.5080147  85.6597519
  65.9524584  83.9891434  85.1585579  65.4586506  83.7543201  86.5699482
  84.2558670 106.2745380  15.9689844  83.5925484 105.7774448  16.4476609
  84.0200806 106.1634731  15.0479531  44.9924183  49.5040083  92.9117680
  44.9585915  50.4602337  92.9385757  45.3030062  49.2999697  92.0296478
 103.5504627  14.1515481  17.6918721 104.0393162  14.9709249  17.6152146
 102.8693485  14.2154717  17.0223677   9.9625438   1.8204096  18.2916427
  10.1238787   0.9284444  17.9840696   9.5383018   1.7074029  19.1422188
  20.4657650  47.5647116  38.6087084  20.5077791  48.0413389  39.4377398
  21.1352158  47.9758549  38.0618715 113.6922932  11.8265462  38.6663795
 113.8074398  12.5361204  38.0343366 114.4097805  11.9419348  39.2893696
  98.6095047 104.2133999  27.6845837  98.9813614 103.4512806  27.2405982
  98.1248093 103.8468838  28.4241557  13.1299841   8.5250866  28.3384967
  12.5612998   7.9149914  27.8688025  13.0591822   9.3442154  27.8483462
  19.4861519   6.5458512  14.7033811  20.0749755   6.0609514  14.1251171
  19.9052346   6.5025705  15.5628741   1.1958801  35.1254129   5.7445443
   0.9818214  34.2337322   5.4701060   0.6458814  35.2780652   6.5129399
  28.1882858  12.0794511  16.9622934  28.7973809  12.4707043  17.5885165
  27.3275638  12.1846044  17.3676753  56.6656876  94.0777016  11.6992617
  56.1929798  94.7914124  11.2710285  57.5006151  94.4661713  11.9604421
  52.1229553  98.5511494  15.6915689  52.9036522  98.1596851  15.2997828
  51.8332338  97.9097271  16.3403153 111.7029285  96.2266922  27.9140472
 112.1050072  96.9919205  28.3251262 111.4575100  96.5262794  27.0386934
  14.0501773   9.7375530  21.6927266  14.0964746   8.9856726  22.2832894
  14.8599911   9.6930283  21.1843443  21.6870070  14.7280514  67.1690655
  21.4086533  14.6221256  66.2593794  20.8707190  14.7475111  67.6685953
  98.2669640 101.5299606  36.3269234  98.0027866 101.4629841  35.4093432
  97.7283859 102.2380543  36.6801500  10.1343381  32.4835443  15.7839906
  10.7812500  33.1003428  15.4415011   9.5992357  32.2516179  15.0249743
  95.8303833 107.3884010  33.7943316  95.3532219 106.8180943  33.1915879
  96.3328648 107.9714108  33.2252645  33.9558172  20.6753635  32.8909206
  34.7581983  20.5577755  32.3824024  33.2535267  20.6417990  32.2413898
  11.4683604  32.5122070  38.0197763  11.1733139  31.6112661  37.8875542
  12.3337150  32.4246287  38.4194326  96.2830830   6.3248491  50.3044510
  95.4585743   5.9616148  50.6276941  96.9404125   6.0209465  50.9303808
  11.8890560  20.6722617  23.4108806  12.3868656  20.2350450  22.7200413
  12.5513983  21.1227059  23.9349365   8.3326352  51.2039661  10.0192201
   8.8974297  51.5873718  10.6902182   8.0436444  50.3727436  10.3957593
  69.1978645 102.7363968  16.6626179  68.6781454 101.9330406  16.6353512
  69.9815750 102.4979591  17.1577692   8.9664495  22.1934104  19.9856472
   8.6421555  21.6369963  19.2775023   8.5087091  23.0254054  19.8652899
 115.6539536 108.9069462  15.0664413 115.8654404 108.1554794  14.5125461
 115.0146961 109.4065189  14.5584989   5.9817982  40.5098867   6.4674616
   5.4324841  41.1768484   6.8793440   5.4736012  39.7020864   6.5411472
  28.2881975  65.6426001  67.0516253  27.5011778  65.7635641  67.5828457
  29.0063071  65.9188366  67.6210451  76.9064999  50.3030777  30.9064627
  77.7483177  50.1620388  30.4732370  76.4122391  49.5012188  30.7362843
 108.5497189  14.7118878  42.2455835 109.3524170  15.2136862  42.3873568
 107.9035854  15.1272154  42.8167677 107.8836060  25.8376360   8.8523144
 108.1970692  26.6040230   8.3720839 108.6764145  25.4392552   9.2114490
   5.8888680  27.4061084   1.4580737   5.4307848  27.3004174   0.6242745
   6.5388626  28.0882430   1.2894648 100.7896423   1.0332292  26.4306188
 101.5776825   0.7011920  26.0005236 101.0893726   1.3159144  27.2946119
  36.6392684  48.2545280  23.5781503  35.9400940  47.6841307  23.2587266
  37.2560477  47.6607323  24.0061903  16.5793145   5.4350603  24.4621420
  17.3893273   5.8057350  24.1118407  16.8260205   5.0873613  25.3191566
  11.3796401  25.1288414  42.9054022  11.9960248  25.0002599  42.1844530
  11.7089593  24.5652199  43.6054802  92.1443844  29.4872618  30.0597501
  91.2397861  29.7458386  30.2360487  92.2488976  28.6535954  30.5183458
  99.7604370  41.5870905  86.4632130  99.0018082  41.3815403  87.0095348
 100.1665401  40.7381821  86.2880898  11.3159752  19.0777063   9.4352227
  11.5521240  19.1970766  10.3551233  12.1535110  19.0711939   8.9718395
  63.8691425  94.9784851  18.5990489  64.6261644  94.3947411  18.5501552
  64.1668940  95.7123280  19.1366839 106.2437344   0.5447677  43.1518841
 105.9516430   0.0739722  43.9324331 106.2208652  -0.1104172  42.4544287
  14.6550310   2.6066548  28.0645227  15.4708183   2.2881384  28.4508777
  14.4169223   1.9378202  27.4224973  12.2088778  82.9796028   4.7813335
  11.2579858  83.0051804   4.6746483  12.4516428  82.0826912   4.5514533
  27.1238971  30.2666306  26.0069990  26.7446136  29.4687796  26.3755226
  26.6565251  30.3948903  25.1815629  41.8976116  80.4162979  18.4855211
  42.0177126  81.3507462  18.3163822  41.6520309  80.3697586  19.4095111
 112.3695183   6.3140404  55.7259274 112.9979324   6.2549019  56.4455318
 111.6659069   5.7137167  55.9724426  27.4657440  66.1129189  91.9152737
  27.7290010  65.4988050  91.2298584  26.7891979  66.6526318  91.5063381
   6.6857934  11.5872419  10.9593523   6.6585016  10.7269990  11.3782430
   5.8179730  11.9586003  11.1181366  47.9185820  43.4533691  33.5314751
  47.3089647  42.8919983  33.0524540  47.9447794  44.2653084  33.0252123
   7.4036258  36.0173082   7.1551639   7.8582537  36.4839911   7.8564143
   8.0114603  35.3252482   6.8947327  68.9842987  26.5861940  33.0625033
  68.5837793  25.9144974  33.6144447  69.0708399  26.1708450  32.2044659
  13.1728113   0.1547015   2.1743092  14.0336192  -0.2545845   2.2622067
  13.3142328   0.8821844   1.5685037  99.9790478 107.0411205  30.5045366
  99.1263390 107.0264626  30.0699234 100.5717278 107.4217129  29.8563695
  35.3456616  57.0321369  76.7446184  34.8738313  56.7498159  75.9610987
  35.4887486  56.2265158  77.2413397  46.2537956  65.6388378  66.7038488
  47.1901178  65.5049992  66.5568066  46.1105204  65.3568697  67.6072884
   4.8003784  41.7696095  40.1401138   4.0825102  42.3649883  39.9246669
   5.5927628  42.2646570  39.9320674  54.4767475  61.1789417  91.1977196
  54.4289303  60.4253101  91.7859173  55.0594139  60.8961010  90.4929256
   3.0564994  15.9318268  28.1615281   2.7912369  15.2641273  28.7940192
   2.5956556  16.7229068  28.4408951  14.6928525   6.9895232   9.1348749
  15.2642083   6.4044559   9.6323496  15.2932322   7.5433844   8.6358637
  18.7224555  38.8991380  34.0492749  18.0525136  39.4183135  33.6044526
  18.3472204  38.0202556  34.1040230  34.9321795   7.1817523  11.0150397
  35.6839633   6.7675972  10.5913317  35.1411605   7.1592814  11.9488776
  38.6882186  36.4424491   6.5313441  38.8670135  35.7054567   7.1153891
  38.0404019  36.9681954   7.0005506  26.6375208   6.7596877   4.8003101
  25.7235432   7.0013392   4.9502543  27.0640516   7.5793213   4.5502996
  26.0985899  37.9472613   9.5576435  25.4120612  37.3587823   9.8716515
  26.8694377  37.3875761   9.4639647  32.4250555   1.7997982  11.6485226
  32.2083664   2.1979146  10.8054447  32.6425862   0.8922023  11.4359629
  21.7692637   9.8767412  19.6666384  21.4300513  10.4749811  19.0008485
  21.4404345   9.0165347  19.4055843  99.7879219  48.8038731  21.5488219
 100.4548550  49.1213560  20.9400201  99.4736195  49.5919132  21.9920301
  63.6777449  71.0075617  86.8894958  63.8284111  71.2280226  85.9702969
  62.8371572  70.5497026  86.8913174  49.2932940  15.8185637  17.6983666
  48.8589716  16.5939248  18.0539083  49.8139429  16.1500204  16.9667304
  40.2568865  38.5798359  27.8156495  39.5222068  38.4952688  27.2079253
  40.1446867  39.4456673  28.2080507  23.0927086  44.6618986   7.0522970
  23.2100201  45.5279160   6.6618085  22.2497010  44.3591690   6.7147660
  87.1732712  77.7179193  84.3625927  87.0771599  78.3800507  83.6780643
  88.0786037  77.4181461  84.2804241 101.9719315   8.1648022  92.1925545
 101.6704559   7.6693672  92.9540634 102.2173977   9.0201622  92.5451756
  93.8007069  96.3678741  11.2452626  94.1803169  97.2317219  11.4061582
  92.8623962  96.4875031  11.3919055  13.8073945  18.0287850  38.0399847
  13.4468257  18.8159657  37.6318550  13.6450362  18.1483185  38.9757109
 101.9955063  23.1012273  22.1984434 101.8723869  23.8927722  21.6744852
 101.4425564  22.4449348  21.7744684  55.3159189  92.4993896  78.0896235
  55.9990883  92.1400452  78.6556435  54.5073605  92.3877716  78.5896301
  41.3981295  22.0438910  50.4932690  41.5954256  21.1145949  50.6104040
  41.2518120  22.1409273  49.5523119 103.3537865  98.1299114  43.6594343
 103.5751152  98.4541321  44.5324326 103.2356453  98.9206409  43.1331110
  61.5856886  60.9803247  88.4556580  61.6972208  61.4506769  87.6294804
  62.4379683  60.5759954  88.6180210  45.4684448  32.6658702  16.0210598
  45.0967455  32.1099615  16.7059255  45.3482294  33.5583520  16.3454962
  98.4477139  28.9446044  27.2866416  98.1782055  29.8534012  27.4196386
  98.0845928  28.7096167  26.4327359 110.8446312  94.9584675  22.6765156
 110.6062698  95.8359337  22.3774099 111.6571903  94.7593689  22.2114038
  29.5639372   6.1593759  17.8380084  28.8399482   6.4071846  17.2629786
  30.0686502   5.5256957  17.3281598   1.8563427  77.0943832  19.0245461
   2.0675597  76.6614437  19.8516977   1.3248266  76.4559984  18.5489607
  36.2683368  53.7675333  75.1804399  36.7004323  53.1976032  75.8166027
  35.4133964  53.9544582  75.5682182  96.3461590 105.4898930  13.0989039
  96.8406105 106.1472893  13.5883749  96.9338512 104.7359657  13.0494392
   5.1393825  26.8747067  29.3681812   5.4861158  27.3265386  30.1375008
   4.1888267  26.9269371  29.4679165  23.5799646  48.2014132  69.7520304
  23.3019400  48.8682938  69.1241741  24.2396402  48.6391640  70.2900219
  12.2341216   4.4059548  21.8932796  12.5443780   5.0280797  22.5512552
  11.3996017   4.0886170  22.2383952 109.9848366  47.2832298  27.4966908
 109.3319321  46.6057777  27.6727867 110.4695797  46.9573545  26.7383599
  63.4588861  82.2000885  90.8289242  63.5608244  81.6283226  90.0680542
  62.5486612  82.4934101  90.7878685  34.9581909  32.3411608  19.1940141
  35.2791452  32.4547195  20.0886226  34.8921037  33.2313585  18.8484550
   4.7718468  35.5071068  94.1840649   4.1363496  35.4866552  93.4685516
   4.5203370  36.2689900  94.7060871  12.1043515   7.6192468  13.4947467
  12.5304842   7.6769376  12.6395774  11.7796671   6.7199528  13.5403764
  72.2110128 108.3795834  17.2804606  72.5261736 108.8217735  16.4921868
  71.3293886 108.0841637  17.0530927   1.6816483  62.1508455  47.8531027
   2.3955500  62.7600718  47.6649046   2.0823233  61.4732313  48.3976507
  43.3520174 104.9779034  55.7606602  43.6487818 105.1513100  56.6540194
  43.0776072 105.8329391  55.4292202 103.5858631  21.1931944  42.3860598
 102.9176712  21.2686825  41.7048407 103.9532948  22.0739818  42.4598074
 114.6270466  90.3371048   8.0032861 114.5032501  89.4622803   8.3715016
 114.0274715  90.3702736   7.2578752  57.7760935  45.6189346  13.1618190
  56.8360567  45.5276775  13.3174896  58.0068874  46.4526701  13.5715199
  84.5028305  81.8378448  31.9105077  84.9578762  82.6124287  32.2409320
  84.6494198  81.1699963  32.5803733  23.3113170  29.1509962   1.3935843
  23.4093690  30.0113392   0.9856340  23.1079030  28.5628462   0.6663038
   2.1385325  31.3370228  29.0770197   1.8197984  32.1935654  28.7924576
   3.0871654  31.4450455  29.1452765  47.1676350  61.3832664  90.5001259
  47.4931669  61.2097168  89.6168709  47.9162121  61.7617655  90.9612179
  20.9258389  13.4269595  32.4754786  21.7850828  13.5760307  32.8700805
  21.0980415  12.8352535  31.7430449  23.6776686  21.4397550   4.1853574
  23.7750196  21.3013554   5.1274824  23.0091000  22.1207404   4.1111341
 110.4614067  50.6935215  51.9330120 109.5309925  50.6483650  51.7127275
 110.7839870  49.8031282  51.7938232  68.7727499  88.4073544  62.1620083
  68.4200621  88.7608242  62.9786444  69.2481041  89.1396713  61.7695951
   8.1388307  37.9835892   3.9347908   7.5927615  37.2018099   4.0176049
   8.5515004  38.0795193   4.7931224   9.8658085  56.5636158   8.8918740
   9.6830034  56.5751791   9.8313844   9.0905011  56.9577551   8.4921449
  24.9233103  20.6379366  13.3876634  25.7299423  21.0621333  13.0950344
  25.2159619  19.9648452  14.0020990  19.3707466  49.8604298  42.1301079
  20.1802969  49.3526936  42.0748043  19.6198189  50.6582737  42.5966263
  88.6447334  56.3875437  20.2359509  88.0388451  56.2098265  19.5165420
  89.4780159  56.0177469  19.9441934  50.1034641  85.3715897  90.2872753
  50.3963614  84.4758415  90.1197052  49.8953056  85.3847122  91.2214756
  61.9518089  94.0765572  86.3195896  62.3928881  94.5131874  85.5908585
  62.0961046  93.1434345  86.1624432   3.2306120  47.2032070   1.1899840
   4.0519774  46.8638802   0.8343890   2.6072517  46.4851809   1.0800296
  79.8264980  75.1374292  88.2123280  80.5795002  75.5323505  87.7727127
  79.9706745  75.3163576  89.1415310  70.0760078  85.2937794  83.5712719
  69.9031353  84.5529938  82.9902554  69.7622156  86.0569572  83.0861759
   8.7818277  33.9844251  11.7366183   8.7937725  33.7726688  12.6700258
   9.3219852  34.7711778  11.6625738  47.9615211  49.5790100   5.4704392
  47.3212719  49.5653105   4.7590154  47.4389505  49.7177362   6.2603164
  24.6850634  44.9297237  27.0879745  24.5508289  44.1034794  27.5522280
  23.9977932  45.5063677  27.4217010  30.3735709  30.3468966  23.9170289
  30.7420039  31.1784434  23.6186671  30.0252652  30.5379820  24.7878909
   2.0829251  58.5898590   9.0217805   1.3038990  58.1012964   9.2875981
   2.1841182  58.3912754   8.0908895  59.2714882  70.0720263  91.6249561
  59.9571228  69.6273947  92.1233940  58.9017296  70.7061481  92.2392845
  31.9816685  19.8974228  51.2898540  31.9279671  20.8491158  51.3771963
  31.6236305  19.7160757  50.4208565   7.7627778  16.5825009  41.1179256
   6.9798619  17.0108831  40.7718563   7.4440044  15.7540178  41.4760208
  29.8280239  31.8013835   2.6283810  29.7390175  31.0582232   3.2250583
  29.7768259  32.5710559   3.1951392 110.3607368  41.5598631   1.3746656
 110.3398418  40.9564304   2.1174037 109.6794128  41.2373018   0.7847607
  39.5765042  94.8083401  93.1409454  40.0460815  95.2987766  93.8156319
  38.9110303  94.3163776  93.6219311   0.9349389  46.4623976  14.6664441
   1.3571911  45.8957434  15.3120756   0.7108867  45.8763599  13.9435363
  93.5964680  80.6061554  15.5088866  92.7758408  80.1882267  15.7699132
  94.2016983  80.4135799  16.2250137  93.3234119 108.5299778  52.2781658
  94.1624641 108.0780792  52.3676491  92.9836559 108.2388973  51.4319563
   8.9097065  16.3062203  21.9089746   8.7472254  16.4487112  20.9764886
   8.9097166  17.1847165  22.2890735  56.0434151  81.9007874  89.8312473
  55.2124929  81.5615273  90.1639652  56.3489676  81.2296391  89.2209625
   5.7541907  24.6360898  16.3445079   5.8964300  24.7641754  15.4066420
   5.8271712  25.5135942  16.7198670 107.7113152 107.2852516  37.6052523
 107.4073887 106.3952351  37.7833748 108.5499096 107.3479939  38.0624866
  43.2111549  18.6507928  30.6555247  44.0114021  18.9104140  31.1120701
  43.4407425  18.6925125  29.7272038  26.7180967  41.9491911  29.4071770
  26.9349647  42.5745964  30.0986004  25.8272004  42.1812630  29.1451144
  72.0790291  73.9712667  72.3829508  71.1245012  73.9352989  72.4447632
  72.3786306  73.1883383  72.8450060  35.8530831  48.0225849  19.9863708
  36.4955258  48.6296749  19.6190274  36.1169720  47.9188919  20.9006166
  64.2308807  93.7476349  88.2710552  64.8354626  94.4761372  88.1296635
  63.4605646  93.9708042  87.7485180  24.0759516  20.9911323  41.3715744
  23.5803199  21.5891695  41.9309807  23.5918760  20.9789371  40.5458927
 114.2857265  23.8127851  12.7445030 114.6669674  23.1149244  13.2773030
 114.8484802  24.5704889  12.9039788   7.9288417  69.3380737  17.1035421
   8.5267282  70.0694227  17.2581041   7.5534737  69.5138073  16.2407279
  17.8462493  35.4826736  16.0526752  18.3608603  34.6967793  16.2364638
  17.5110269  35.7546806  16.9069993  93.3538914  31.4545107   6.4165622
  94.0315437  30.8143187   6.1993855  92.6045132  31.2024331   5.8770007
  55.1622057  67.0595360   1.3242951  54.5431137  67.0496655   0.5943227
  55.8640289  66.4687252   1.0511349  73.9255047  71.8154907  88.1925392
  74.6849060  72.1708488  87.7307415  73.9353275  70.8808994  87.9859734
  83.8377571  82.8043556  87.6494503  83.6219978  81.9091702  87.9108334
  83.3073616  82.9601192  86.8680096  18.5206509  30.6067157  32.8634310
  18.5144436  30.5365539  33.8180375  17.9163623  31.3239622  32.6720572
  25.6286049  39.4521689  16.9595504  25.6893611  38.9825630  16.1276782
  25.1426077  40.2496099  16.7494810  14.0724146  49.0023041   6.2381917
  14.3723941  48.9816046   5.3294480  13.2280421  49.4516611   6.2015069
  30.3558779  58.5356998   2.9148594  30.9831858  59.1517591   2.5364649
  30.6527972  57.6767206   2.6144743  26.1354184  52.2001600   1.4672013
  25.7836604  52.8332090   0.8413061  26.4707184  52.7354240   2.1864358
  67.5086737  46.0761786   4.2818096  67.9489422  45.4759836   4.8836112
  68.0196285  46.8839931   4.3327111  38.8979769  50.4703188  25.1470208
  39.0898347  51.0356092  24.3987775  37.9431701  50.4035854  25.1581788
  50.2590752  24.8721957  14.1444004  50.8112907  24.7862434  13.3672917
  49.7864008  24.0414071  14.1954243  35.1708579  25.6714773   0.9410843
  34.8360968  25.2043462   0.1756085  35.6608915  25.0102305   1.4298081
  52.1001434  88.7275410  80.2638721  52.4532080  87.8889942  79.9665260
  51.8718576  88.5794067  81.1815739  80.5044270  72.9378796  83.4792233
  79.5804930  72.7811861  83.6742115  80.5243492  73.8190937  83.1060028
  70.3360176  18.9226019  89.6651459  70.5819273  18.0027509  89.5670033
  69.9875641  18.9837825  90.5545712  24.6363258   0.7674143   3.7673101
  24.9035645   1.6280949   4.0898699  23.7984395   0.9243668   3.3319423
  24.0972710  45.3045893  40.2258539  24.4190168  46.1257935  39.8539162
  23.9433408  45.5039740  41.1493158  78.3339119  95.8413601  82.1983624
  78.0172396  95.0537777  82.6406956  78.2779598  96.5281200  82.8627872
  85.2702236  79.3307638  80.1406193  86.0859966  79.8242855  80.0559330
  85.5500889  78.4210777  80.2424812  88.9921379  93.0638027  92.6726532
  88.2008553  92.6798344  92.2949314  89.3699455  93.5816097  91.9617558
  10.6918955  28.3924007   5.8741581  10.0883424  29.1289210   5.7767308
  10.1237547  27.6313114   5.9932899  97.1736526  75.8552217  78.9986324
  97.5956726  75.1134729  78.5651064  97.2889233  75.6836414  79.9332476
  90.2657700  41.3107586  88.2123375  91.1917782  41.2766886  87.9723835
  90.1710987  42.1376896  88.6850452  82.0049763  70.9310246  85.7349968
  81.4959145  71.2880659  85.0072575  81.4372158  70.2631712  86.1195183
 100.0249958  67.4971771  18.8410819 100.2577972  68.3132601  18.3983099
  99.9584866  66.8528557  18.1363392  19.7925580  29.9517608  17.9100454
  19.1675711  29.9538445  17.1850502  20.4529285  30.5975509  17.6588500
  14.8314178   7.2414553  23.0802488  15.3116393   6.5469927  23.5311794
  15.3881967   8.0148727  23.1699967  24.0165687  15.8767712  10.0381804
  24.5775318  15.8761942   9.2625839  24.3156385  15.1256573  10.5506408
  17.5711215   5.5226535  31.0549688  17.6749754   6.4301646  30.7688403
  16.7118132   5.2634853  30.7223225  25.8385420  13.1301630   9.7555834
  25.1540303  13.2506883  10.4137242  26.3924026  12.4348783  10.1106191
  56.5608931  84.6847057  75.9963036  56.7883921  84.7854042  75.0719976
  55.6637573  85.0124454  76.0592365  73.4252405  71.8923950  91.1662769
  73.8089800  71.6687346  90.3183651  73.1063366  72.7881527  91.0560608
  86.0299301   6.1855984  11.6363502  86.1244774   5.2651650  11.8814945
  85.4136753   6.5418261  12.2763216  58.0967808  31.3061237  25.5436563
  58.6301327  32.0889163  25.6815171  57.6212215  31.4803171  24.7314167
   0.7539849  98.9088535  16.3288832   0.5319768  99.8336983  16.2211537
   0.9785736  98.8227940  17.2553742 115.2698326  40.2306986  16.4162636
 114.4089890  40.1941729  15.9993052 115.3423977  39.4015098  16.8889320
  60.7385302  87.8477955  94.5688629  60.9568071  88.5359955  93.9404011
  59.7819614  87.8133965  94.5637608 115.0724030  39.0515590   0.3870275
 114.1895866  38.9125752   0.7299086 115.6325436  39.0580058   1.1631921
  73.7746239  98.8746452  67.6549435  73.8551569  98.2526016  66.9318867
  73.0261421  98.5582733  68.1608248  32.1182346  24.8243022  15.3246021
  32.1875000  24.0845895  14.7210634  31.7529058  25.5325985  14.7944283
 101.9869804  23.8499379  27.9115152 101.9984245  24.8029518  27.8228283
 101.1787796  23.5785818  27.4763060  47.7613401  89.9347115  72.2197008
  48.0501366  90.3677273  71.4163828  46.9019651  90.3151798  72.4012280
 108.8478088   0.3402086  57.4696541 108.8388634   1.1416931  56.9464207
 108.0229282   0.3616637  57.9547834  12.4183524  38.3960867  10.3445685
  12.0208597  37.5551462  10.5705142  11.7677712  39.0469694  10.6078708
  31.8488097  59.7198343  92.9471111  32.0475864  60.1843596  92.1341324
  32.6862121  59.3445587  93.2194328  19.5035243  11.2223637  11.6900194
  19.4899559  10.3685236  12.1224618  19.6795452  11.8452263  12.3952079
  17.8038049  46.2796402   1.8725830  17.4085534  45.7148790   2.5367036
  18.1277013  45.6744242   1.2054729  93.5203457  26.2884307  19.7976804
  94.4275379  26.0628200  19.5919406  93.4309864  26.0944176  20.7307434
  34.4952822  34.9656749  27.2299075  35.0962400  35.4846668  27.7644444
  33.9690423  35.6145144  26.7626691  15.7585597   4.2360732  42.1306658
  15.8090818   4.7582611  41.3300419  16.6130161   4.3516642  42.5463295
  52.1374607   8.8517618  37.1336699  52.9273987   9.3076843  37.4241281
  52.4530411   8.2027173  36.5048766  48.1929922  57.5875473  86.4176655
  47.6770306  58.3481264  86.1502171  48.3312654  57.7101803  87.3568535
  25.6411934  22.7880168  19.8181975  26.0952926  22.8847265  18.9811349
  25.7509375  23.6354494  20.2495289  92.4634075  75.2892876  93.2833004
  93.2641792  75.1420450  93.7866116  91.9910049  74.4584703  93.3363438
 114.5511055  18.4684169  10.9173667 113.9321613  18.1277859  10.2715206
 114.7640324  17.7137351  11.4663196  66.4420843  86.3527393  84.8726845
  66.7151976  85.8703423  84.0923500  65.4875851  86.2809944  84.8767662
  57.1303654  48.1692982  11.5084195  57.6611471  48.4819984  10.7758081
  57.3896027  47.2544909  11.6187048  53.6181402  90.4874897  94.0053082
  54.2991352  90.1129532  93.4465694  54.0425825  91.2299442  94.4352436
  53.6777306  83.3353996  83.6469364  53.5057354  82.3965931  83.5741806
  53.0124426  83.7443829  83.0934429  41.3556194  33.9237690  47.3528004
  40.5607319  33.3997869  47.4519300  41.0487175  34.8302603  47.3706436
  61.6516447  68.9289618  89.5854187  61.8432474  68.2975292  90.2788258
  61.2687016  68.4040022  88.8825607  52.7777433  64.1499472  31.8756175
  52.9243469  63.8004446  32.7545881  53.6567879  64.2780113  31.5190911
  37.1821833  11.9185245  24.0710878  36.4230561  11.3761997  24.2851996
  37.6751924  11.4000988  23.4351563  21.6437984  30.5724072  12.3423147
  20.7484484  30.8821964  12.2058916  22.1488047  31.3673186  12.5135386
  67.1681833  94.0526581  80.0482178  66.9314718  94.6726036  80.7380390
  66.9803429  93.1926918  80.4242706  29.6936607  49.1294527   8.6272681
  29.0870166  49.1751003   7.8882617  29.3148947  49.7132683   9.2844814
  15.5887496  20.0773549   2.5969458  15.7557261  20.6164193   3.3700946
  15.7832515  20.6528115   1.8571824  76.4599752  97.8024006   2.9381445
  75.5490351  97.5171757   2.8669751  76.4558887  98.4414101   3.6508060
  49.9527025   5.9068805  81.9985867  50.4928827   6.6010714  81.6210556
  49.9602270   6.0824877  82.9395103  63.8500929  32.0530200  83.1240273
  64.2677593  32.2395444  83.9648533  63.7412167  32.9115486  82.7149963
  54.2296219  87.0890427   7.2642303  53.5219193  86.5944195   7.6774341
  54.1986990  86.8279171   6.3438553  54.8633814  31.7683268  54.9181414
  53.9227819  31.6871357  54.7603083  54.9410772  32.4986625  55.5319881
  69.8489952 108.8063240  90.5367661  69.3401384 108.1323338  90.0861740
  69.9170828 109.5194817  89.9019527  38.5331774  25.6292200  79.5146751
  38.2298994  26.0229683  80.3327370  38.1124139  24.7697568  79.4921112
  28.6153650  28.5493755  81.5402985  28.5040760  27.8670955  82.2023678
  29.2638469  29.1445732  81.9163799  54.1926670  70.7353306  31.5290046
  53.6346865  71.5108967  31.4708209  54.1194153  70.4554796  32.4414444
  37.9908442  46.8596458   6.5995502  37.3324347  47.5242805   6.8020058
  38.7169290  47.0533895   7.1924198  38.7913990  30.3910184  91.0179996
  39.3951893  30.4963470  90.2827644  38.8230753  29.4563293  91.2219334
  89.7090149  61.8306351   6.4280879  90.3250313  62.0895433   7.1134460
  89.3236256  61.0149717   6.7481041  29.7434044   8.2254070  89.1269016
  30.0594783   9.0279526  89.5419312  29.9650884   8.3308822  88.2017231
  89.5171070  55.5720568   0.2257524  88.8686848  55.3144360  -0.4295396
  89.0134048  55.6765461   1.0329651  75.1281023  40.5728674  37.1492839
  75.4256487  40.3189754  36.2756515  74.5196772  39.8798943  37.4058747
  68.2609606  64.1670275   1.4097689  68.7815619  64.3362236   2.1949938
  67.8025007  63.3481598   1.5982053  22.1665740  64.4286776   6.1042303
  22.6793027  65.2349281   6.1616188  21.2880158  64.6829319   6.3865823
  97.1869373  73.2647085  18.9565563  96.4784336  73.9036751  19.0338492
  97.3492050  73.1996775  18.0154550  62.9628515  64.3748474   3.6962563
  62.6462173  64.3042660   2.7957040  63.8888073  64.6006155   3.6075750
  50.9811640  87.3535252   6.5954185  50.6230307  88.1208801   7.0416671
  51.1882353  86.7409611   7.3011953  61.8692827  94.1870117   8.4909290
  61.7217255  93.3151627   8.8574362  62.6927996  94.4758892   8.8841313
  38.6663008  39.6144676  78.5833788  39.4227862  39.0478301  78.7346458
  37.9357576  39.1539884  78.9962912  64.2877817  66.4192963   0.6524079
  63.9983654  65.6142139   0.2230914  63.5272121  66.7087317   1.1563829
 102.0144749  66.8934155   3.5065308 102.2975445  66.1096430   3.9774898
 102.1039963  66.6626501   2.5818872  91.8232250  91.5849590  19.9994195
  91.9653893  90.8326149  20.5738807  90.9292793  91.4736843  19.6758270
  99.8176098  92.1037388  80.3967857  98.9727688  91.6539955  80.4116535
  99.8944092  92.4397087  79.5037842  62.7670813  25.7613039  92.0972347
  61.9464827  26.1818957  91.8404388  62.5789499  24.8237014  92.0555496
  73.2200813  93.9412498   6.2356693  72.5554943  93.7281704   5.5805719
  72.7276993  94.0526009   7.0489293  49.9914455  92.3647499  16.8474925
  49.2831373  91.7212868  16.8694925  50.0492239  92.6881790  17.7465403
  19.1390181  31.2258673  93.9202976  19.8861814  31.7937183  93.7318134
  19.5305908  30.3832316  94.1502285  54.5503473  98.3258057  13.5036409
  54.0012789  97.7920723  12.9292858  54.7689819  97.7456474  14.2329204
 113.8174343 106.5060425  77.2488356 114.7714901 106.4366245  77.2143650
 113.5724545 106.8652344  76.3960695 110.0575733  79.5550299   3.6630636
 109.6383762  78.7941790   4.0650812 110.6085587  79.1876125   2.9719478
  50.3891945  58.8482571  29.8271585  50.4822969  59.5207691  29.1524029
  51.1585855  58.2896900  29.7163796  85.4831123  83.0263329  11.7085636
  84.5669842  82.9750443  11.9811630  85.9705067  83.1325340  12.5255108
  80.3868198  76.8725491  20.5351806  79.4596386  76.6365385  20.5056882
  80.5294323  77.3832512  19.7382617  84.3189240  59.4662809  15.8705807
  84.6200275  60.0468874  16.5694809  84.3136883  60.0167418  15.0875115
   8.6576784  13.4054768  94.1915703   8.7931722  12.5944841  93.7015057
   9.4189948  13.9447308  93.9774799  28.0178571  98.0294895  78.8521194
  28.4223557  97.2067451  79.1272593  28.7476277  98.6456108  78.7883568
  87.8163338  85.4731178  22.4777818  87.6214790  86.3995552  22.3364091
  87.6514339  85.0615215  21.6294765  44.6517992   2.5752199  71.6872978
  45.4955769   2.1272431  71.6273832  44.4938564   2.9076734  70.8036900
  65.9299278  54.8379850  28.9958191  65.0023222  55.0624990  28.9224768
  66.3644409  55.6713629  29.1772413  26.3554478  83.2746983   5.7306409
  26.0160255  83.5802078   6.5718830  25.5778766  83.0027390   5.2431470
  89.9382782  96.8223667   0.0496173  90.4587555  97.2681904   0.7178777
  89.0458393  96.8313694   0.3956173  98.2988739 102.5248623  94.0162468
  98.2894516 101.8345356  94.6792603  97.3764420 102.7453995  93.8869667
  17.6029563  25.8879495  49.0617752  16.9195175  25.3011823  49.3855762
  17.5992846  26.6219687  49.6761274   9.1926193  47.3603153  76.6847754
   8.9257860  48.1975079  77.0644331   9.3791300  46.8032169  77.4404716
  30.3470206   8.3286029  86.6373062  30.5317688   7.6774824  85.9604454
  31.1019301   8.9167380  86.6163063 113.3302784  39.2305112  79.2030907
 113.9743042  39.7603965  79.6728516 113.2395935  39.6614957  78.3532286
 105.6148338  95.0790977   6.3835096 105.4628754  94.1749573   6.1084390
 104.7965240  95.5320930   6.1800689  81.6404152  41.9213486  40.4953337
  82.2517967  42.4761248  40.9797668  81.1535358  42.5299168  39.9396157
  99.0641308  72.0980787  25.7209516  99.1004753  71.9909286  24.7704625
  99.1451263  73.0418253  25.8588600  53.3952236  33.9997602  84.0041256
  52.9756784  33.8611341  83.1550026  52.6702547  34.1777611  84.6032619
  25.1249719  85.6548405  21.2983990  24.8151493  86.4922905  21.6432619
  25.7291460  85.8940411  20.5955529  78.6161184  67.1114063  33.8403344
  78.6333942  66.9776869  32.8926778  78.3957958  68.0366993  33.9476776
  80.0584030  79.5140743  39.2065072  80.2887440  79.3102932  40.1129532
  80.8666897  79.8569536  38.8252735  35.7139301  24.9268222  33.0958366
  35.1209188  25.5623507  33.4966755  36.2723780  24.6331692  33.8156509
  41.4223051  14.0784836  93.5005569  40.4950094  14.0329099  93.2675743
  41.8841124  13.9395905  92.6737118  49.8341990  62.9349232  82.7917957
  49.3196392  63.2642317  83.5286903  49.3612289  63.2358599  82.0159245
  91.3908195  70.5494833  17.3031831  90.7866764  71.2916756  17.2833252
  90.8284855  69.7864103  17.4363470  33.6278534  34.7487783  89.8013973
  34.1279531  34.5062351  90.5807018  33.9368963  34.1491818  89.1222763
  26.9201565  23.0222368  89.3639755  27.1977592  23.2622576  88.4799194
  27.4963474  23.5241032  89.9404907  86.0847473  74.4466400  16.1814451
  86.6677284  74.4316959  15.4224038  85.2066326  74.5201254  15.8076084
  27.2727895  13.0926335  86.5406513  27.0714760  13.6202943  87.3134899
  26.4174795  12.8717089  86.1720467 111.0820484   0.7960186   1.5477939
 111.8664646   0.4506775   1.9740218 111.0157776   0.3012930   0.7310406
  62.4826527  72.2894955  26.0932207  61.8372631  72.1096897  26.7768693
  62.6255846  73.2347345  26.1414075  28.7572217  16.6060936  84.6322346
  29.6607518  16.6847157  84.3261528  28.4723544  15.7473493  84.3197536
  70.8693075  62.2381067  29.8512626  71.6983986  62.6138020  29.5551348
  70.7612610  62.5691080  30.7428885  83.2353878  64.5995092  23.0058670
  83.1372166  64.4365263  22.0677662  82.6245213  63.9899874  23.4200740
  61.6860533  18.1036830  48.6686420  62.4458265  18.2920873  48.1177521
  60.9471083  18.0882823  48.0604076  68.5221481  68.3236647  12.4951935
  69.2410994  68.9386082  12.3496532  68.5015821  67.7873182  11.7026401
  51.1863184  57.7754641  10.4981530  51.1632538  58.6878300  10.7867491
  51.6943026  57.3238420  11.1721098  68.7117338  67.4529982  31.3973308
  69.1631365  67.7761316  32.1771097  69.2111492  67.8137207  30.6647396
  27.0688009  30.6166101  81.4263821  27.4246240  29.7288823  81.4659119
  26.1227393  30.4995155  81.5129089  39.3460441  22.0440650  93.7733173
  40.2122974  21.9102025  93.3887100  38.7442183  21.6202569  93.1614113
  45.4599333  32.6021218  70.3138351  45.6317282  33.2984257  70.9477758
  45.6561232  31.7935753  70.7871151  49.8377323  76.6937399   1.0616557
  49.8191404  75.7380676   1.1124511  49.1792345  76.9800854   1.6945982
  73.4382010  35.7715583  13.5514998  72.5430489  36.0657597  13.7199736
  73.9899874  36.4728284  13.8978851  67.4552679  32.8962111  89.6822834
  67.5445557  32.3189592  88.9239693  66.8019772  32.4667883  90.2345848
  31.2725902  20.1834989  80.6557274  31.5579033  20.3991556  79.7678566
  31.6425848  19.3165505  80.8222675  37.9507947   0.7195274  73.3021545
  38.3394766   0.5662757  72.4409485  38.5884380   0.3616098  73.9198399
  39.6451139  23.7502718  82.3305798  39.3513489  23.5387468  83.2166958
  39.7826672  24.6974492  82.3435593   2.1205541 107.2491074  56.4600706
   1.7087777 107.6322460  55.6855583   2.7859837 106.6570854  56.1094332
  63.6996508  62.6752090  27.5353098  64.3802404  62.3931980  28.1464601
  63.0793524  63.1637621  28.0763960  20.4933190  43.0214548  50.8112240
  20.9451365  43.7876225  50.4575539  20.1095152  43.3278275  51.6328430
  46.4755869  21.6924739  58.2379389  47.0094109  22.4523997  58.0060530
  46.4804554  21.1472893  57.4511862  20.6403685  28.5758686  89.0912056
  20.9946322  29.0006042  89.8724365  20.7307982  29.2319059  88.4000683
  75.6000328  79.1206217  11.8932319  75.2458715  78.6851311  12.6685679
  76.3458872  78.5794497  11.6342676  33.0590844  36.7079329  73.1636238
  32.7710032  35.7967830  73.1084490  33.5826302  36.7455482  73.9640713
  63.4258652  73.3479309   1.5081175  63.7741852  72.5765085   1.9551210
  62.4769402  73.2765198   1.6114311  76.0590744 107.9502487  88.7677193
  75.9330225 108.8220406  89.1423035  75.2272558 107.7517700  88.3377075
 104.1057777  96.2602520  86.0849762 104.1629887  96.2880421  87.0400620
 103.2812023  96.7017078  85.8814812  47.7571821  97.5028992   7.2565800
  48.1881952  98.3042145   7.5538254  47.5227928  97.0436954   8.0630726
  88.8861084 104.1386604   7.4129361  89.5199013 104.7283554   7.8213567
  88.3391762 103.8357258   8.1377280 104.9408722  83.4303284  12.4443042
 104.3996620  82.6418591  12.4037337 104.3496227  84.1398716  12.1928918
  79.2295980  86.2783146   3.7433955  79.2652416  87.2003937   3.4889430
  78.3048773  86.1171627   3.9308700  83.1163692  59.6759033   1.8937694
  82.5932407  60.2947855   1.3843013  82.5892830  58.8771725   1.9147196
  90.9234715 102.3346329  94.2607689  90.4154301 102.7520943  93.5651684
  91.8212223 102.3249054  93.9288330   9.4595432  28.7803531  93.4689522
   9.0903246  29.3226290  94.1659832  10.2581739  29.2382884  93.2068157
  73.2331991  91.4403915   2.4008714  73.4439945  92.3740768   2.4065132
  72.2768879  91.4109230   2.3720950 114.5362091  85.4460526  45.7181454
 114.9365997  85.1598263  44.8971748 115.1870251  86.0268116  46.1123276
  31.0561872  84.6503830  76.9815493  31.8336987  85.0305080  76.5726328
  30.3432226  84.8545837  76.3763905  85.4580116  62.6591778  24.6604395
  86.1195755  63.0391550  24.0823507  84.6357918  62.7566671  24.1801500
  98.4068680  87.6612282  19.9525023  98.4960175  87.5317097  19.0083039
  99.2829323  87.9145908  20.2432680  33.6695981  27.7515578  18.2759643
  32.7262616  27.6397538  18.1582737  34.0555120  27.3820329  17.4817657
  33.5369897  55.2003908  61.1282206  34.4278336  55.3131104  61.4597750
  33.5560179  54.3593788  60.6715345  15.8334434  46.3240767  61.2460613
  15.8341408  47.2547579  61.0223150  15.3424501  46.2753010  62.0662928
  74.9743462  82.5406551  11.6545737  75.0513411  82.0990562  10.8088243
  74.9907541  83.4733772  11.4401269  25.9432387  35.6097221  71.1779785
  25.6376052  36.4924788  71.3866901  25.4539394  35.3664136  70.3920889
 114.0032864  15.1662171   9.1708171 113.7496853  15.9454930   8.6762005
 113.5204887  14.4514632   8.7557721  78.5627460  96.1258698  13.0874074
  77.8463650  96.4085865  13.6558294  78.8094711  95.2642727  13.4235549
  13.2908463  92.2779942  27.0155931  14.1927540  92.2731972  26.6950107
  12.8483582  92.9332352  26.4760566  38.8663316   0.9368357  78.4397840
  39.0893602   1.1268616  77.5285292  39.6928406   0.6611802  78.8361788
 108.4627056  96.8643188   0.3106998 107.5485706  97.1419048   0.2512752
 108.4176731  95.9156513   0.4300018  69.8935461   3.0124751  85.9130001
  69.3076420   3.0375582  86.6695213  70.6070328   2.4337250  86.1817169
 110.5429077  96.9817829  86.3700485 111.3528061  96.5710163  86.6726398
 110.2585697  96.4380932  85.6353569 109.6705914  29.2800403  65.6337643
 108.8316154  29.7381997  65.5844164 110.0285530  29.5269847  66.4864779
  15.3435338  30.6581306  65.0476694  15.2927136  31.5863252  64.8194075
  14.6321309  30.2506781  64.5535851   3.5645807  87.4359608  32.1496892
   3.9824763  87.7332687  31.3414788   3.2032043  88.2320786  32.5393558
  58.6394215  93.2445145  22.8064799  59.4256592  93.7781620  22.9217243
  58.8922453  92.5810623  22.1644950  31.5170240  18.5609412  68.4884167
  31.7929673  18.6690879  67.5782585  31.7276883  19.3973100  68.9035559
  60.2029753  50.7615948  23.4658504  60.4760504  50.2463913  24.2249465
  60.8391380  51.4752960  23.4193754  85.0472164 101.4431667  22.1013308
  85.4315567 101.0887241  21.2995338  84.5586395 102.2138977  21.8123484
  25.6448722  38.3489490  90.2167892  24.7838116  38.7062860  90.4338551
  25.5960488  38.1588221  89.2799282  38.2337022  20.7673192  73.2260752
  37.6289678  21.4826369  73.0289793  38.8000298  21.1153698  73.9148188
  69.2467260  97.5751209   6.9726843  69.9111748  97.2514915   7.5809640
  69.6663952  98.3126354   6.5297508  61.3538694  94.2071438   5.6935334
  61.3642311  94.5014668   6.6043013  61.7248154  93.3252239   5.7225937
  55.3818178  36.7279649  77.5325632  55.1800776  37.2980094  78.2745743
  55.1043510  37.2273231  76.7645264 115.9752607   0.2524658  10.1855838
 115.1057147   0.2085491  10.5833113 115.9281635  -0.3460888   9.4400990
 104.7397900  87.3424244  48.7653208 104.8286438  86.9181347  49.6187305
 104.9410152  86.6527271  48.1328249  61.7384434 100.0975800  37.9417539
  61.4968491 100.9554195  38.2909966  62.3124409 100.2934647  37.2012234
  83.1360149  70.7826138   6.7399818  83.4798241  70.3499603   7.5215411
  82.2268391  70.4885578   6.6838080  95.7634163  97.9388809  26.4394307
  95.7250214  98.5823727  25.7318473  94.9158955  97.4952507  26.4059830
  85.1057911  77.6463366  10.1394928  86.0380459  77.4306774  10.1645255
  84.6639347  76.7973900  10.1228166   8.8913924  56.1595297  92.5700855
   8.4923494  56.6012049  93.3197021   9.2786843  55.3654003  92.9383183
  35.8945370  26.1007428  90.9607601  35.0021291  26.2623262  91.2669086
  36.2614608  25.4925966  91.6024399  40.6874323 104.7182941   0.5406138
  40.2094364 103.9397144   0.8262036  41.0098553 105.1121616   1.3512594
  57.2422457  49.9138546  91.6909218  58.0824709  49.8253822  91.2410164
  57.3322821  49.3724060  92.4751186  52.1226835  31.2272191  83.4916878
  52.2030592  30.7286382  84.3048286  52.4152994  30.6223750  82.8099537
  69.6872759  19.3427145  86.1347389  69.8667765  20.1211286  85.6074047
  70.4468918  18.7775862  85.9938526  19.6553206  69.8956251  74.1577148
  19.7570705  70.8176613  73.9216375  19.7388017  69.4253731  73.3281851
  18.0098081  67.5925922  72.8045845  17.7218759  67.3556852  73.6861753
  17.3406994  67.2249556  72.2272062  94.3785095  95.1304913  13.8712585
  94.6266651  94.2250919  13.6844265  94.4577789  95.5791473  13.0294394
  53.1877804  28.1436658  78.4948778  53.2699108  27.7790833  79.3761063
  52.4640989  28.7667894  78.5599661  25.0424170  51.0883713  78.3941078
  25.9714270  51.2834358  78.5170794  24.6034837  51.5552998  79.1051245
  40.8395386  80.5519390   4.1226965  39.9533343  80.7825661   3.8439697
  41.3848400  81.2729645   3.8080537  69.6461487  90.4089260   0.1331281
  69.8042488  90.9417343   0.9124557  70.0703144  89.5725060   0.3247408
  58.4268856  75.8420658   5.5693221  57.4754238  75.7396460   5.5908602
  58.6248875  76.3993788   6.3219351  18.2360494   6.6581500  38.2293487
  18.6008227   7.5413519  38.2852626  17.6399863   6.6921169  37.4811602
  76.3693190  99.4246101   5.3074527  75.5056143  99.6096039   5.6762683
  76.9813919  99.8598289   5.9009051  43.7481499  44.7798157  75.4042959
  44.5059824  45.0557661  75.9198236  43.7345123  45.3797102  74.6585274
 114.6371460  29.8354483  43.3831358 115.2754116  29.7099519  42.6809311
 114.4394970  30.7717943  43.3626318  41.3144064  49.8330927  51.8676519
  41.3432693  50.7663918  52.0782375  41.9310713  49.7319794  51.1425781
  24.4379735  22.7642488  93.4253216  23.7492204  22.1747589  93.7324905
  24.3157125  23.5632110  93.9381027  88.9811230  81.6038322   8.7803489
  88.1405830  81.9607353   9.0673304  89.5058823  82.3737240   8.5609818
  28.2855988  17.0708799  29.9978781  27.4812245  17.3897886  30.4071593
  28.9813185  17.5913966  30.3994584  26.0779023  40.6816435  59.7455406
  26.7948627  40.1436615  59.4097137  25.4900455  40.0581360  60.1720333
  49.7033024  40.6207991  67.5078630  50.6134319  40.7243156  67.7856731
  49.5240545  39.6869826  67.6178122  78.6744022  80.1705647   8.9923316
  79.0343428  80.8032608   8.3707470  79.0465355  80.4258251   9.8364818
  89.8058701  78.3398676   6.4283705  89.9838924  77.4114180   6.5784383
  89.1111088  78.5542107   7.0509470 113.3425045  98.9171791  17.4403715
 112.8516197  99.1915035  16.6657698 113.8365078  99.6952438  17.6988363
  14.6931076  26.1255956  23.8919830  15.1244378  26.9639897  23.7268186
  13.7760353  26.2791944  23.6647868  40.6985569  19.4103718  64.5713806
  40.6446171  18.9960766  65.4325867  41.6370153  19.4697094  64.3924952
  95.0766754 108.1556606  91.8856430  95.0182819 107.2765350  92.2597504
  94.4659901 108.1433868  91.1486530  59.4474316  18.3276320  91.8071938
  59.2419338  17.9455841  90.9539413  59.6208763  17.5741553  92.3714828
  44.7201777   9.2775720   8.0072415  45.6185913   9.1316360   8.3035320
  44.2380381   8.5112786   8.3179915  67.8319836  84.6394062  26.4225173
  68.6309385  84.1463661  26.6091084  67.2352266  83.9939785  26.0436487
  19.2618012   5.2227330  90.8854485  18.7821996   4.4986761  91.2878895
  18.8303924   6.0098875  91.2178707  35.3376484  52.0033026  70.9354353
  34.8060560  52.7308369  71.2584400  35.1902437  52.0003748  69.9896574
  54.0780210  24.8773909  82.1983910  54.3295860  23.9639044  82.3343754
  54.9059248  25.3342247  82.0497036  98.1623173  74.5829010   9.9989748
  98.0926132  75.3464746   9.4259745  99.0331936  74.2280912   9.8203367
  81.7877769  87.5526619  67.9275703  82.5897217  88.0672455  68.0188322
  81.2217426  88.0879021  67.3713779  32.4853992  81.6109467   4.2882672
  32.6814485  81.4941883   5.2178717  32.6682520  82.5351810   4.1191655
  87.9190254 106.6451645   9.7061437  87.2500896 106.3626385  10.3297925
  88.6564064 106.0551071   9.8621571  54.2022610  27.7290726  65.6321096
  54.5699739  27.6460123  66.5119505  54.9414062  27.5632381  65.0469685
  88.1231117  72.8573751   3.1078893  88.7532616  72.6863956   2.4079579
  88.0396175  72.0203829   3.5647318  70.9238338  80.0828266   1.8589734
  71.5645742  79.7715044   1.2196278  70.5751419  80.8878517   1.4761114
  86.7209244  91.4982319   1.8919326  87.1236610  92.0506191   1.2219306
  86.4598942  90.7053471   1.4235044 101.0070705  94.8657322   5.2047879
 100.6117344  94.0226936   4.9829137 101.4781857  95.1251507   4.4129637
  38.6890697   2.5256354  76.1607075  38.1385326   2.9139572  75.4807425
  39.5849490   2.6914585  75.8672190 101.8299580  66.4678812  25.0527382
 101.9846630  66.9124603  25.8861923 102.5192738  66.7954111  24.4749951
  60.5486345  42.6108694  94.1877270  61.2980747  42.9312325  94.6896648
  59.8061895  42.6946354  94.7860527  84.4644356  72.5242186  64.2050457
  85.3186417  72.3719263  63.8008451  84.5043564  73.4286785  64.5158339
  49.2978477  75.0363064   8.0599535  48.8741207  74.1785479   8.0292642
  50.1935196  74.8716784   7.7651721  15.8862388  74.9937916  63.4949636
  16.4606321  74.3460798  63.0865860  16.4034712  75.7991266  63.5065460
  61.7187977  70.2711058   1.6185240  61.3403749  71.1437702   1.5113597
  62.2388697  70.1366282   0.8262660  94.1668606 105.3120804   0.1762407
  93.9029312 106.0097027   0.7761529  94.3957615 105.7670116  -0.6342383
  65.8610106  92.8181934  39.3144608  66.1395693  92.1499825  39.9406695
  66.6437769  93.0003548  38.7945342 115.1552868   1.6163383  21.4617372
 114.2389774   1.8930195  21.4544654 115.5580521   2.1026701  20.7423615
  63.1405115  28.1561065  86.9532776  63.8020515  27.4743414  86.8358421
  63.4238386  28.8664579  86.3776398 110.3523540  41.5413046  78.2661104
 110.3898239  41.6180611  77.3127317 111.0898495  42.0658779  78.5778046
  65.2770424  89.0580750   1.7059812  65.0450611  89.0915966   0.7779226
  64.5909643  88.5231304   2.1051860  71.4430332  89.0487480  25.3896642
  70.8618450  89.4613838  26.0285521  72.2492933  89.5629120  25.4321814
  76.6633224  85.7749462   3.8794371  75.7696533  86.1177254   3.8702422
  76.6329002  85.0113297   3.3030635  84.7354507  84.1495228  55.2587080
  84.2515469  84.4666767  56.0212612  84.2303944  84.4614601  54.5078135
  50.6829786  30.4734445  87.5104618  50.6314659  30.9319639  88.3491135
  51.4492464  30.8504057  87.0780659  45.1970005  14.5710886  92.8320408
  45.4924679  15.3054857  92.2939014  44.9765730  14.9658251  93.6757374
  45.7307768  52.1088362  92.9898071  45.1681423  52.8727198  92.8626919
  46.6063118  52.4140167  92.7520466  57.6551056  15.0788891  79.5718002
  57.0861959  14.6754861  80.2274227  58.5386419  14.9756110  79.9252462
 115.5685997  98.0302811   4.2347229 114.7105312  98.3760548   3.9889750
 116.0401058  97.9481792   3.4057659  75.5464172 101.2497807   3.1963938
  75.6017017 100.6258678   3.9202121  76.3641834 101.1296368   2.7136365
  27.9964304  85.5785084   5.6215650  27.7490973  84.9148941   4.9776196
  27.4328756  85.4028511   6.3750762 104.7844410  84.6970272   5.6388110
 105.2896500  84.1649914   6.2535667 104.0410423  85.0144196   6.1515021
 115.5063152 104.4669342  19.6186817 116.2216282 104.7078896  19.0300322
 115.6991291 103.5645199  19.8730576  90.3028774  75.8911610   7.6948255
  89.4833946  75.4870129   7.4096251  90.3678989  75.6708622   8.6240572
 103.9019775  88.1086159  11.7493105 103.5508442  88.9653301  11.9921732
 104.3306351  88.2557106  10.9061909 108.9431572  72.9121780  20.3067350
 109.4292831  72.0876312  20.3127289 109.6090698  73.5838890  20.4536891
  27.0170116  18.6039197  74.0545273  27.9232979  18.3003414  74.0023661
  26.8956661  18.8387799  74.9744987  80.9736061  83.5515881  15.7336366
  80.4750729  82.8355312  16.1272836  81.3329315  83.1789684  14.9284828
  95.0821018 104.7424412   3.2649380  94.4601917 105.4300308   3.0268621
  95.3823662 104.9839783   4.1411391  60.6275415  55.1650095  17.0223677
  60.3968191  54.2489481  17.1767497  60.2665854  55.6330729  17.7752686
  80.2596664  42.1537399  21.1039758  79.5021152  42.6738358  20.8359194
  80.7688046  42.7419567  21.6616607 113.7544918   3.9194646  36.7878866
 113.1251907   4.3457234  36.2060690 114.6000195   4.0400288  36.3557148
 107.4963570  73.8912296  17.9677987 107.6111221  73.7383223  18.9057124
 106.7106915  74.4347191  17.9080987  10.3397787  28.5752892  21.8130279
  10.0281274  28.8948226  20.9662676   9.5694816  28.6095500  22.3802137
  34.4723368  13.3396792  93.2515049  34.7581124  13.9280391  93.9503574
  33.6154985  13.0245292  93.5391521 107.0417881 102.2929668  13.3539259
 106.2497902 102.2120571  12.8224838 107.7471733 102.4061775  12.7168643
  73.9034224   7.1810758  34.9638224  74.4372892   6.3866335  34.9729514
  73.2227755   7.0047975  34.3143034   3.5122526   1.1937861  67.2694254
   4.1445079   0.5326234  66.9877386   2.6683226   0.7426132  67.2480583
  45.8508587  45.7024336  65.3293943  45.7903719  46.5722275  64.9343872
  46.5536785  45.2681828  64.8459673  53.9922905  64.4691133   4.3483353
  53.6605549  65.2838612   3.9710239  54.7221470  64.2219305   3.7804952
  55.3846931  13.7798297  78.0208778  55.3224182  14.4684947  78.6827612
  54.6353674  13.9324820  77.4451685  37.9260278  35.6907821  92.2360229
  37.1986175  35.9087539  92.8187752  38.7100530  35.8522296  92.7608776
  67.8061914   0.9193514  92.3937988  67.9485798   1.2787476  93.2694626
  68.6727571   0.6273184  92.1109295  98.9986515  39.0417743   3.9634728
  98.3982277  38.4256220   4.3830925  98.4912491  39.8486876   3.8759270
  91.9514942  85.3955269  14.8864424  91.6503143  85.6737328  15.7513833
  92.4368572  84.5869827  15.0504625  78.2104254   5.6259477  80.7796383
  77.8335476   5.0253195  81.4226246  79.0721798   5.2578741  80.5843639
  23.4234262   0.0731525   8.1045192  24.2599726  -0.2473738   7.7673483
  23.3882236   0.9885417   7.8269315  57.9370022  35.0613189  84.5653343
  58.8298798  34.7796750  84.3661499  57.9978848  35.4517674  85.4371643
  24.5758796  48.0926275  83.7263775  25.0644875  48.8832331  83.4973812
  23.8521814  48.4068823  84.2683506  88.8694859  94.0161419  17.7649522
  89.7427750  93.6288166  17.7051365  89.0167713  94.8810101  18.1477666
  24.5641398  56.1786318  92.3389339  24.4092798  56.4199018  93.2521915
  25.4367757  55.7852602  92.3397923  78.9203072  66.3219261  16.3772893
  78.8860846  67.0170784  17.0344198  79.3557692  66.7240524  15.6256914
  96.4888287  44.4454050   2.8999633  96.6258812  45.2368546   2.3793274
  96.8545532  44.6573544   3.7587732  22.0342255  54.9729061  93.9877987
  21.1676788  55.3787088  93.9623642  22.6397610  55.6889725  93.7959671
  34.5877481  41.8380737  89.2920494  35.3935146  42.1473598  88.8781548
  34.3526816  41.0511875  88.8003349  85.3542423  97.0157146  40.5323076
  84.6829319  97.5545979  40.1137638  85.9772205  97.6465607  40.8930874
  96.0468578 107.5512981  74.6249914  95.5832100 108.3259869  74.3069983
  95.4271412 107.1284676  75.2194595 109.0730381  96.9086933  47.6076126
 108.4742737  96.1618996  47.6026440 108.9018059  97.3474312  48.4409285
  76.7189741 107.0489407  12.5145340  75.9904337 107.5662804  12.1712959
  76.3006210 106.3520145  13.0200112   0.4162433  12.0701015   6.1990660
   0.3312202  11.7255414   7.0880443   1.2583750  12.5251234   6.1980790
  70.2519417 103.3741570  27.6892376  69.9915171 103.6998272  26.8276405
  69.5810699 103.7085533  28.2844996  58.3810759  95.6645584  36.8429136
  58.2769442  94.7528076  36.5707016  59.2704391  95.8947182  36.5740323
  60.1135492  35.2698207  74.9166679  60.8156586  34.9580288  74.3456507
  60.2654409  36.2120080  74.9904633  58.9041328  91.4059830   5.4158771
  58.3067036  90.9293747   5.9922004  58.3820391  92.1341133   5.0790101
  89.3075180  89.0720940   2.7832788  88.9922905  89.9622345   2.6266912
  88.5127926  88.5400295   2.8227076  70.8214760  97.6609802   3.6996475
  70.9415913  98.6083508   3.6341119  70.1443005  97.4601555   3.0536309
  15.3277946  53.8603115  72.6484442  15.3065586  54.7013855  72.1919632
  14.5722258  53.8872623  73.2354879  96.7095852  57.4331665  18.4048915
  96.6372013  58.3672476  18.6010611  95.8224106  57.0940161  18.5237551
 112.2444248  64.9839783  14.6056497 113.1217766  65.3583241  14.6854126
 111.8819523  65.3889704  13.8177264  58.3570099  98.4046555  35.2102184
  58.1431293  97.4781036  35.3197217  58.7614393  98.6568451  36.0403228
  36.7816353  44.3236256  92.6003838  36.9505572  45.0252724  93.2291794
  37.3252320  43.5957575  92.9019451 102.3203659  90.1453686  15.5775011
 101.5095997  89.6726418  15.3892827 102.4874878  89.9746513  16.5044093
  36.8281627  90.5946636   2.0586519  36.5655065  89.7099781   1.8045396
  36.8211102  91.0909843   1.2402102  78.0994606  16.0201550  24.6399903
  78.6987734  15.7695615  23.9369535  78.1620312  16.9744992  24.6792603
  34.6280527  48.6643410  87.3997498  34.9911070  48.2107830  88.1604767
  33.7531686  48.9356041  87.6776409 105.3126526   0.8585748  25.4358459
 104.5372105   0.3011648  25.3708291 105.7039452   0.8273557  24.5628357
  65.7964325  69.8557472  12.0289981  65.5220938  69.1235495  12.5811315
  65.7498980  69.5132113  11.1363983   3.5613540  29.1652679  79.3039942
   4.3427956  29.6094251  78.9748955   3.4634775  29.4856787  80.2006435
  54.0356779  26.3762426  76.4481688  54.3793821  25.6524062  76.9717693
  53.7796974  27.0369530  77.0917225 104.0271091   6.1151147  30.3294539
 103.5592842   6.4450711  29.5623136 103.4091091   6.2244433  31.0521984
  30.8368134   7.2629988  51.8487263  30.0374866   6.7639709  52.0168829
  31.1333036   7.5396776  52.7157736  47.9202366  24.2137361  91.4335251
  47.0326519  24.1809034  91.0766697  47.7961302  24.2395878  92.3822880
 102.8090668  99.3104553  22.3576736 103.6042023  99.8425007  22.3880863
 102.8837109  98.8146114  21.5423203  81.5534878 105.6462574  28.9812922
  81.0609722 106.2543583  28.4300447  81.1591148 105.7362461  29.8488188
  73.1956387  22.3118687  86.0397816  73.8188505  22.2817445  85.3138828
  73.5143185  23.0196953  86.5998363  53.4657574  43.4400129  87.9671383
  53.4396076  42.9608059  88.7953377  53.7376785  44.3248224  88.2108688
  82.4516296  96.3706875   8.7778854  82.5869370  95.6138802   8.2076561
  81.8407631  96.0606766   9.4464344  23.8080502  47.1280050  91.2207317
  23.0594754  47.7243090  91.2036896  23.4181809  46.2538481  91.2115574
  12.9124379 102.3766422  92.9171753  13.2079363 101.7057991  92.3016357
  12.5790215 101.8836498  93.6668587  74.0688467 103.3740997  20.1863432
  74.0662193 103.2968998  19.2322636  73.1431246 103.4196281  20.4255033
  60.4359150  13.5725176  47.7205086  60.7970476  12.6867425  47.6856422
  59.8014545  13.5444808  48.4366846  -0.0332733   7.6428246  -0.1446809
   0.8100551   8.0614448   0.0279068  -0.4743640   7.6335496   0.7047804
  78.9315939  61.7786026  28.1328464  79.1382885  62.4690390  27.5029230
  79.7761345  61.5454483  28.5183620  93.2616043  97.3701668  26.2579536
  92.9932022  96.4862156  26.5086126  92.8456688  97.5148106  25.4080677
  79.9240637  77.3449039  24.2777061  79.5645189  78.2237196  24.1567135
  80.6625843  77.3025370  23.6702347  94.7228146   8.3407742  22.3371601
  93.8624668   8.4470129  21.9312644  95.0013065   9.2326415  22.5451112
  57.6735640  25.7737470  68.3155727  57.7206516  24.8304605  68.1599379
  58.5462999  26.0972238  68.0921459  30.6488872  52.2150898  87.6581860
  30.0093460  51.8003082  88.2371330  30.2142000  53.0111694  87.3523521
  64.9439573  44.3190384  94.0395451  64.8466444  45.2655983  94.1434097
  64.8277330  44.1678095  93.1015396  94.9218273  87.8468037   5.4067659
  94.4318962  88.6691189   5.4053062  95.0116062  87.6231289   6.3331270
  43.4362936  11.2326443  54.8823547  43.2723331  11.6304028  55.7374239
  44.3503952  11.4430678  54.6916342  39.9330068  28.2867742  67.8114796
  40.6342316  28.5641766  67.2219324  40.2414799  27.4577045  68.1771564
  18.4615850  72.5126457  13.0433989  18.4076655  73.3661509  12.6134562
  19.3848276  72.2688580  12.9768956 108.3416271  89.3706512  45.2303123
 107.6822853  89.6045971  44.5770359 108.1409836  88.4630203  45.4587221
  58.4123564  21.8053460  41.0912943  58.1986189  22.3551774  41.8451071
  58.3618927  22.3974991  40.3409338   8.3545721   7.5200695  17.0376658
   7.9469150   6.8420994  16.4987731   9.2682517   7.2459233  17.1168196
  88.5340977  63.0576468   4.2349318  89.2831421  62.9754210   3.6446807
  88.8395405  62.6864576   5.0626713  15.2216303  28.8219357  83.0859280
  15.3470731  29.7436237  83.3117294  15.6824255  28.7143254  82.2538757
  94.1765213  78.7183046  41.4840651  93.4036827  78.1763077  41.6427565
  94.7945118  78.1322002  41.0472536  90.8186626  95.0257874  15.2313387
  91.4224052  95.7684422  15.2176726  91.0705471  94.5266151  16.0082638
   5.9074897  33.3580422  88.3000374   6.0876530  32.4476933  88.5346413
   6.7678767  33.7773871  88.2892990 112.8706646 103.9742088  22.8544617
 112.9739952 103.1645870  22.3544025 112.8384018 104.6631908  22.1907616
   0.8901999  27.5828028   4.5426783   0.4785983  28.3775806   4.8820093
   0.9842383  27.7438879   3.6038280  78.7366629 107.8582764  19.4263482
  78.3940554 108.7389088  19.2735577  79.1863346 107.9191113  20.2691555
  37.0919752  59.8153496  93.7410736  37.6802516  60.5702257  93.7229824
  36.3728046  60.0857735  94.3119431  46.3513899  27.0972776  59.1678381
  46.0115957  27.9012418  58.7748766  47.2313786  27.3291206  59.4646549
 110.0301266   8.9182866  30.2699184 109.7180653   8.1643522  29.7694921
 109.7734356   9.6767473  29.7454405  48.6748648  34.5385027  91.0393333
  48.0796528  34.0470529  91.6054058  48.7974977  35.3745151  91.4890862
  90.4012680 107.4154282  15.5802810  91.1017895 107.7040768  14.9953163
  90.0454140 106.6326332  15.1597750 112.4733353  11.4235091   3.4263682
 113.2910252  11.1476564   3.8405204 111.7869473  11.0522294   3.9806801
  26.3289165  18.0896914  18.1409502  25.7104874  17.5679469  18.6523783
  26.4399481  18.8941634  18.6476338  14.2148197  86.3526917  12.5499833
  14.6462238  85.9907532  11.7759526  14.6087551  85.8832073  13.2852614
  99.7406673  14.8673892  10.3726661  98.7948322  14.8499918  10.2266300
  99.8657227  15.5280983  11.0538828 107.7085304  87.5364208  18.6381900
 107.9820919  87.5699043  17.7215230 108.4722900  87.1956348  19.1037703
  38.5229182  20.7627702  80.3262520  38.9472818  20.8332753  81.1813450
  39.1846919  20.3618002  79.7627783  31.4371967  59.3996620  83.4615231
  32.1829295  59.7915459  83.0070496  30.8993649  60.1457214  83.7267780
  66.5061331 106.2157822  25.0359988  65.7728958 105.8630943  24.5318127
  66.6869783 105.5464363  25.6959271  50.8619499  37.2015619  85.9949303
  50.8905697  38.1580281  86.0191154  50.5631208  36.9931841  85.1097679
  20.4368353   1.9603387  13.3914137  21.3544297   1.6941628  13.3330810
  20.0519872   1.6766861  12.5621581  97.7888012 105.0369835   7.7903718
  98.0740356 104.1335011   7.6540238  98.6019421 105.5384541   7.8499550
  34.3895102  43.4453869  91.6438961  35.2327132  43.4416294  92.0969200
  34.4656372  42.7501678  90.9903622  56.4468575  31.7979360  94.8381329
  55.9126663  32.5757813  94.9988365  56.8720388  31.9688106  93.9977455
  93.5393524  75.3897572  43.8982344  93.6401272  75.3526735  42.9470778
  93.3523273  74.4867086  44.1546679 113.0326653 107.1477127  17.5874591
 113.1123066 106.3565254  18.1202924 113.2452202 106.8607807  16.6993606
  52.7502346  19.2350125  93.8171577  53.6702585  19.4208217  94.0049362
  52.5578356  19.7474062  93.0318737  20.7450056   4.7473207  13.1416595
  20.5878234   5.0739390  12.2557437  20.5661488   3.8086224  13.0860984
   6.4028597   1.3612300   6.9690675   7.0393372   1.7587295   6.3748258
   5.9344321   0.7256050   6.4279687  78.3479786  66.7268753  31.0854530
  78.8009787  67.4587297  30.6666279  79.0186930  66.0499001  31.1753368
 110.5594349  32.2655773  14.4731343 109.8190022  32.7128029  14.0632772
 110.2790165  32.1161771  15.3760624  95.7744789  79.7369385  17.4808538
  96.7214298  79.6926403  17.3483562  95.6720448  79.9447823  18.4095836
   3.0936152  12.3338699  19.7670650   3.4794337  11.6097832  19.2740393
   3.4506074  13.1209123  19.3555403  81.3739491  98.2783699  30.5588555
  81.5380859  99.0462112  31.1063051  80.4922199  98.4152889  30.2123904
  70.7076359 104.1516495   1.3796687  71.2820244 103.5293007   1.8257502
  70.9399319 105.0019264   1.7528784  44.6893358  24.0987754  73.7273932
  44.4235277  23.6135268  74.5084906  45.2272224  23.4804749  73.2328129
  25.1445174  73.4502411  85.3419781  25.8854890  73.0150461  84.9203205
  25.1035976  73.0610132  86.2155056  73.0297136 102.6310158   2.5733694
  73.8720465 102.1932411   2.6960811  72.6182938 102.6052570   3.4372586
  85.3709316  95.7945347  30.2811074  86.0174179  96.3264656  30.7451534
  85.1397991  95.1032162  30.9015012  71.5689945 103.2453442  21.4409089
  70.9463930 103.5744190  22.0892167  71.8537903 102.4006176  21.7895603
  49.2556858  64.6934080  85.3379345  49.3611336  65.3925228  85.9831810
  48.7848139  65.1051998  84.6134090  55.7094908  48.2545662  89.9857330
  55.9307098  49.1037035  90.3681755  54.8037815  48.0997276  90.2539635
  63.7113285 104.9471188  37.5728464  63.4438324 105.8146381  37.8763223
  63.6244106 104.3863773  38.3437204  62.4786520 101.2897396   9.4198936
  61.9782829 101.6479492  10.1530719  62.4618292 100.3427601   9.5583773
  46.6254807  92.2436047  19.6873665  46.8804073  91.6152287  19.0117931
  45.8303165  91.8735981  20.0708222  84.6949291  82.5978851  15.9887695
  84.4001293  81.9928169  15.3081691  85.5279160  82.9381561  15.6623065
  29.3605471  35.0203681  93.0274868  29.7487259  35.5281925  92.3149776
  29.9120307  35.2117252  93.7860870  76.0281277  90.9663677  22.1029019
  76.3050985  90.3648472  21.4117455  75.0717306  90.9446335  22.0702600
  75.9280777  81.5353107   3.5473853  76.2122631  82.3281956   3.0926323
  75.4298258  81.8559265   4.2991695  25.8769751   7.9325551  18.8378835
  25.6837630   8.8485390  19.0375674  26.6621757   7.7364683  19.3490028
  59.4614744  26.2484241  70.8583927  59.8375702  25.8310199  70.0834370
  59.3139458  27.1563625  70.5936050  97.4886608  45.8293152  16.3142431
  96.5369606  45.8325481  16.2117684  97.8171062  46.2393332  15.5140936
   1.1162257  57.4631023   2.0223643   0.1619302  57.3975801   1.9868936
   1.4205167  56.9265032   1.2904513  86.7977524  98.0067730  10.8319497
  87.4894905  97.3816013  10.6154060  86.0873032  97.7974224  10.2255940
   0.5945979  41.1130428  92.3738003   0.0783077  41.6220713  91.7488480
   0.3397556  41.4558601  93.2304001  87.2364330  56.3103104  83.0316257
  87.8575802  55.9674406  82.3890972  87.7848434  56.7278767  83.6957836
  96.6568661  95.9493732  74.9836588  95.7238960  95.8902836  75.1893663
  96.7150021  95.7002544  74.0612793  91.9863796  97.9085732   1.8680878
  92.6604652  97.3697472   2.2822295  92.4712372  98.4918499   1.2842007
  49.4282341  56.0445833  90.8594704  50.3691816  56.1171675  91.0194302
  49.0312052  56.1209345  91.7270947  16.4879084   9.2912370  19.7941446
  15.6090391   9.2975086  19.4149613  17.0749712   9.3137795  19.0384459
  52.4110889  86.1544800  79.4996262  51.4881802  85.9637547  79.6672440
  52.8240013  85.2940369  79.4263077  74.9046946  65.2280140  14.8550725
  75.0694513  66.0683346  14.4273496  74.8263359  64.6034861  14.1339207
  18.7161350   5.4595810  17.5218236  18.9279842   5.2735007  16.6070962
  17.8589785   5.8842444  17.4875522  90.0479412  79.1251469   9.2560047
  89.8975372  80.0691509   9.2063850  90.7877731  78.9693117   8.6689806
  65.2766085  52.0882034  87.9101849  65.3877687  52.9757881  88.2508755
  66.0530186  51.6167688  88.2121181  91.3912582  96.9494438  12.0077527
  90.9877110  96.3259220  12.6115739  90.9920692  97.7905941  12.2298872
 101.7474747  86.9830036  10.0969148 102.2927189  87.3527908  10.7913172
 102.2977161  86.3127708   9.6916240 107.7235413  85.5545330   4.1850260
 107.6409245  84.6043682   4.2661610 108.0208969  85.8436298   5.0477177
 109.3760872  98.2845497  10.7079601 109.9054527  98.0215073   9.9550939
 109.5407772  97.6079273  11.3646817   5.5254263   1.6104639  19.5449638
   5.6731057   2.4627414  19.1350305   6.0291696   0.9969299  19.0101266
   9.7630060  22.6946640   5.2243924  10.6499588  22.9624343   5.4649019
   9.5722443  23.1873059   4.4261768  37.2959495  69.7115231  82.1362019
  37.1369028  70.3504276  82.8309917  38.1520987  69.3381453  82.3455524
  44.5248890  50.7990360  81.1594868  44.6505404  51.3828421  80.4114151
  44.8278332  49.9452257  80.8505154  61.9266844  73.0183983  91.8499470
  61.9063663  72.5604963  91.0096169  62.5474119  72.5185633  92.3801231
  42.6675272  94.8944473  34.3561697  41.7584944  95.1942348  34.3609214
  42.7028513  94.2479801  33.6511445 110.5043888 102.6570797  31.6061902
 110.7904911 101.8353748  31.2072039 109.5551586 102.5655270  31.6886759
  94.5404053  71.6799307  19.9276102  95.4065228  71.3074970  20.0930667
  94.5433426  71.8871832  18.9931214  39.3113375  39.9515200   8.2911110
  40.0532627  39.4811630   8.6713028  38.5809398  39.3358278   8.3517247
  49.6840954  79.2096043   8.3171785  49.6492910  79.0314293   9.2570049
  49.2592716  80.0617409   8.2190603  58.9874792 104.7117710  13.5322261
  59.4056797 103.8740826  13.7312829  58.0575466 104.5616055  13.7022758
  44.7020054   0.3504872   6.3627708  44.7746515   0.4400991   5.4125482
  45.2304363  -0.4197703   6.5718031  99.4384956   1.1717827  36.8282628
  99.9767780   1.2889181  37.6110554  98.9565468   0.3603818  36.9882131
  35.7933950  28.5230684  86.8746281  35.3256440  29.0293932  86.2104893
  36.6074014  28.2594323  86.4455318  46.1131763  47.5352478  60.2452135
  46.1256456  48.1340122  59.4985104  46.6583204  46.7980719  59.9702263
  57.6765633 100.0754929  21.6361761  58.4656668 100.0904465  22.1777678
  57.1682215  99.3380928  21.9738817   1.8671834   8.2215530  17.5094092
   2.2137748   8.3378434  18.3940470   1.5641195   7.3138422  17.4883127
  87.6058292  27.3992825  83.3695984  88.1542873  26.9005823  83.9751816
  86.8750095  26.8139315  83.1708622  11.3167381 108.6951828  23.4697652
  10.9426975 109.5253658  23.7649298  10.5908704 108.0733967  23.5220385
   2.0883396  12.3240948   3.2338998   2.0834583  13.2386863   3.5162649
   1.3548155  12.2582769   2.6224732  74.1445017  87.1232224   4.2566994
  73.5015249  86.6111088   4.7471559  73.6220837  87.6366806   3.6405185
  54.6447134  32.0143461  79.6031141  55.5716419  32.1976495  79.4500017
  54.2637444  31.9581485  78.7267923   4.4778916  96.2869740  29.5976424
   4.3451318  96.4481831  28.6635017   3.7465352  95.7232285  29.8497176
   6.4264673   7.9358619  31.0852885   6.6146469   7.5138742  30.2469897
   5.5251700   7.6821887  31.2841463  91.6648960  75.7881832  47.7607822
  91.8682480  76.7006922  47.9662323  92.2561550  75.2801275  48.3162308
 113.8276672  88.3957767  29.9031496 113.1656837  89.0688133  29.7449660
 114.4557476  88.8117027  30.4937005  60.4781580  62.5712824  90.6694889
  60.9577417  62.2084522  89.9247837  60.4241896  61.8485165  91.2947369
  94.0718746  21.4547300  40.4630995  94.2020893  20.7728314  39.8040938
  94.1450024  22.2755408  39.9761128  67.4862432  98.0001068  49.1203642
  67.0692158  97.1433353  49.2113161  68.4232616  97.8195763  49.1954660
  97.5065136  86.2975502  46.8953133  97.9839802  87.0966053  46.6722441
  97.8141308  85.6498051  46.2612534  89.3310738 109.4074440   7.7898455
  89.7862434 108.5832977   7.6171035  88.7398911 109.2070293   8.5154891
  61.0055590  33.3510756  93.1353188  60.4346609  34.1124392  93.2384396
  61.3306284  33.4153295  92.2373009  37.5989556  45.6031799  90.0675583
  37.4916387  44.9487877  90.7578373  38.1097722  46.3015509  90.4769135
   0.3069663  94.2572403  20.4805160   0.8136601  94.0423298  19.6973741
  -0.2491477  93.4914112  20.6236076  41.5228796  46.3812876  93.0740738
  41.4042282  47.2353125  93.4897614  42.2266102  45.9673882  93.5737514
  18.3995509   8.6807865  57.0754957  18.3524895   7.7740258  57.3784828
  19.1100192   9.0677047  57.5871181  27.5018716  52.0789957  79.5766258
  27.0225954  52.6463318  80.1804924  28.1475115  51.6350794  80.1264572
   4.3171474 102.1171951   7.2542328   4.6753550 101.6612148   6.4926559
   4.2590928 101.4432526   7.9314756  78.6010790  95.0171566   3.5136047
  78.2144594  95.6785297   4.0874904  77.9931259  94.9543476   2.7769357
  69.0001822  60.4019833  94.7569180  68.6943150  59.9472761  93.9721107
  69.2315483  61.2789011  94.4507980 114.4158649 106.5524387  23.7529325
 113.6214066 106.0819340  24.0053177 114.4038486 106.5465927  22.7958250
  92.8941345  24.6562600  80.8437061  92.0779324  24.2624497  81.1518574
  92.9099178  25.5231142  81.2493515 102.2222519  72.0492506   5.4614621
 102.2147274  71.1021090   5.3232598 102.3016739  72.4189806   4.5821315
  89.9685192  79.2049503  12.4337506  90.1222515  78.3762598  11.9800222
  89.1705036  79.5519018  12.0349693  33.2233548  72.2283220  76.3019514
  33.7849331  71.7233515  76.8900537  32.3553729  72.1842003  76.7030668
  77.7320528 107.7830696   7.8689492  78.5494900 107.3621273   8.1351036
  77.0604563 107.1173668   8.0173993  71.9820595  69.6145630  37.9514766
  72.1829033  68.7659359  38.3460975  72.3523855  70.2548742  38.5590076
  72.0502424  91.8830204  18.9215899  71.1234903  91.9630527  18.6958456
  72.1716166  90.9522057  19.1088927 109.7955322   6.3056892  18.5031950
 109.8133373   5.3663892  18.3198106 109.0572929   6.6357577  17.9910529
  43.0053616  26.9352746  86.1391735  43.3779573  26.0612774  86.0228539
  43.2281685  27.3999310  85.3325272  52.5923538  78.1799316   8.3068103
  51.7803955  78.6786175   8.3977515  52.8142595  78.2508135   7.3783892
  29.1269612  13.4215295   7.5670058  29.5752811  13.8700747   6.8500328
  29.7244501  13.5016894   8.3105206  89.0936375  22.3020983  28.4569764
  89.1459084  22.3577952  27.5028276  88.1651592  22.4264598  28.6536527
 110.7019901  12.6475275   5.7147712 110.2083969  12.3803794   6.4901584
 110.1558971  12.3747313   4.9774796  71.6382742  98.6547661  34.4899440
  71.3472509  99.4567585  34.9239326  71.7630053  98.0283642  35.2028894
   6.4766783  69.1091061  88.0308437   6.9158334  69.3248177  87.2081375
   7.1521401  68.6827230  88.5582733   5.6822139   4.1656718  12.8849125
   5.2366441   4.3626687  13.7088621   5.1552743   3.4724206  12.4874604
  91.2988091 105.9043121  17.8426170  90.9563828 106.6195011  17.3064542
  92.0039749 105.5270576  17.3166287  77.0506001  90.8898067   5.0178945
  77.3094416  91.6066360   5.5970204  76.6027212  91.3201237   4.2895645
  77.6544094 100.7021427   7.3725784  77.9095554 101.6032219   7.1746123
  78.2395029 100.4380322   8.0826098  54.5639372  45.9778929  88.6147881
  54.0062189  46.5444708  88.0817127  55.1840782  46.5760326  89.0317917
 108.5106850 107.7006054  13.2263947 109.1730499 107.0255756  13.0786073
 107.9545116 107.6648808  12.4481773  29.6577954   0.3452586  16.7003965
  29.6285820  -0.0816440  15.8441651  29.7292542   1.2785937  16.5003693
 113.8500690  79.5254230   5.5887550 114.4867992  79.6890020   4.8930219
 113.4066200  78.7198305   5.3230274  30.5361176  34.5599055  69.7626066
  30.4568529  33.7041306  70.1840305  31.0879922  34.3997145  68.9970970
  59.0474892  52.6045752  91.3902378  59.6864653  52.1132278  90.8739853
  59.5755672  53.2046413  91.9168186  39.2827606  40.1536226  82.7434540
  40.1129055  40.1037884  82.2695255  38.6918592  39.5829129  82.2521687
  10.0456178  23.2684588  25.8422494  10.0587451  23.8494468  25.0816488
   9.5174056  22.5205398  25.5632520  30.3052235  22.2905350  93.7562943
  29.4287682  21.9247103  93.6370087  30.4035473  22.3723459  94.7049141
  16.9227171  91.5211582   2.5787261  16.5156758  91.7365360   1.7395845
  17.6656640  92.1209908   2.6455155  38.8468504  47.4588394  91.6384792
  39.6133065  46.9491386  91.3758373  38.7495756  47.2803688  92.5738430
  43.6758232  27.4859834  78.3727455  43.2509232  27.0366192  77.6421547
  42.9911709  28.0441523  78.7414265  74.4578266  63.4244347  12.9267049
  73.7355757  62.9691029  13.3594334  74.1684914  63.5250473  12.0198464
  23.6836433   3.0453426   7.5215858  23.4333658   2.9854000   6.5996313
  23.7753296   3.9841402   7.6843274 104.4462585   3.2978499   2.8324351
 104.7591972   2.6117140   3.4219417 105.0042343   4.0515068   3.0245245
 108.4944630  51.5171146  47.0868397 108.5437965  52.2126961  46.4311218
 108.6223698  50.7094383  46.5893173 103.3424377 106.3798523   9.9902600
 103.2814217 106.2370682   9.0457386 103.4448242 107.3270130  10.0831854
  63.5314322 103.8601494  19.3719864  63.2198334 103.3074951  18.6552489
  64.3878508 104.1717434  19.0792656  96.8000221 108.7860298  20.5548525
  96.8898392 107.9091835  20.1816177  97.3774147 109.3332386  20.0224829
  28.3007669  48.8439274  81.5623188  27.6509404  48.7675619  80.8636570
  29.1252875  48.5829306  81.1520958  -0.3141655  90.3543854  11.5163732
   0.0254400  90.1373196  12.3845792   0.4594668  90.6084919  11.0132301
  80.4327774  90.2409458  83.8990879  80.0123692  89.7426987  84.5999718
  80.7296085  91.0464001  84.3226051 107.3261929  80.7774544  18.6169946
 108.1230450  80.3124237  18.3620226 107.6382732  81.5282822  19.1220737
  69.9328566  76.1361694  33.8609600  69.5000648  76.3066196  34.6975422
  70.3526068  75.2838755  33.9777160  79.2042828 107.4806213   1.8831898
  79.1353703 106.9311523   1.1024453  79.1102314 108.3751011   1.5556212
  18.8248622  -0.2480969   6.4764595  18.7582994   0.3062693   7.2539419
  19.3483889   0.2647593   5.8607244  29.8436499   8.0368614  27.1001530
  28.9876628   8.4649628  27.0843649  29.8853779   7.6164436  27.9590726
   6.6081327  12.1987259   3.5255691   6.2910438  11.3033009   3.6434692
   6.6614574  12.5527632   4.4132885  13.6958349  62.4867821  74.0246105
  14.0370810  63.0507708  74.7186565  14.3536592  61.7978096  73.9307117
  10.1931226  78.1348038  17.4166143   9.5664901  77.4118900  17.3855734
   9.7126698  78.8505363  17.8326929  76.0203457 100.2751446  20.8088398
  75.5765915 100.3633118  21.6523671  76.9522667 100.3209400  21.0225224
 106.0837746 100.5022717  33.9722085 106.3188171 101.4207363  34.1041780
 105.1454639 100.5198479  33.7838292  22.4122214  74.8064756  85.9298038
  22.5257158  74.0303087  86.4783669  23.2067347  74.8415518  85.3971195
   2.1606945  29.8207068  20.8657837   1.9930273  28.8783073  20.8681488
   1.3648465  30.2046514  20.4977560  10.1697338   0.5376308   3.1704947
   9.9482793   0.2493487   2.2850099  10.4930246  -0.2513865   3.6054271
  45.1016998  49.5346546  54.6242809  46.0224676  49.2741728  54.6004486
  44.6264410  48.7630129  54.3161678  21.9205213  38.5106587  23.2440662
  22.7237678  39.0311170  23.2562733  21.2212348  39.1457796  23.3985114
  31.7134190   4.9965301  11.4023316  31.6384912   4.2889374  10.7620728
  31.0894132   5.6576693  11.1027634  28.8466239  25.0672460   3.2279342
  28.4704089  25.4410267   2.4310768  29.7834015  25.2517867   3.1599289
  67.9009199  94.7581673  89.9481392  67.3585892  94.5042515  90.6948853
  68.7698841  94.4143486  90.1553154  39.3809509  81.5911579  87.3660564
  39.7754288  82.4459362  87.5392056  40.1136303  81.0408783  87.0892906
  39.3989301  90.0865936  92.7752495  38.7006378  90.7332420  92.8775215
  40.1689243  90.5021477  93.1633949  98.8505650  69.5743275  93.0802155
  99.5415974  68.9152718  93.0142307  99.1680050  70.1887798  93.7419701
  55.4144001  11.3187540  36.4998627  55.3582716  10.9369719  35.6238937
  55.7108355  12.2166777  36.3512397  32.1809840   5.4935300   6.0523754
  31.8908954   6.3329720   5.6954187  31.4141393   5.1505286   6.5112096
   8.7386101  10.5492485   2.3553373   8.0688399  11.1246073   1.9857405
   9.2109537  11.1010802   2.9787195  80.3020000  85.8786201  94.1158485
  79.9514723  85.9352303  95.0047493  80.7844353  86.6966343  93.9960766
  32.1809053  18.2332194   4.7147396  32.8475094  17.6211786   4.4028476
  32.6130152  19.0871632   4.6976134  48.7316656  45.0267792  13.8280749
  48.9699984  44.6488619  14.6746027  48.1995153  45.7913113  14.0483832
 101.5898037  88.4153080   4.2860743 101.8362808  88.1877804   3.3895737
 101.0062218  87.7080822   4.5608494  12.2890699  10.7684243  20.0006390
  12.8963280  10.4314971  20.6593871  12.8424382  10.9719145  19.2465770
 105.3546047  31.9420648   3.2270515 104.8382759  32.6336646   2.8131351
 106.1832809  32.3645020   3.4530622 106.7868710 104.7448063   2.7688944
 107.0393753 104.3202591   3.5887918 106.2389946 104.0985966   2.3233931
  35.2837324  81.0470390  88.7945366  35.6672549  81.0621548  87.9176617
  34.8761845  80.1836300  88.8628578  36.7963052  97.7914906  75.1698828
  35.8874440  97.8167248  75.4691553  36.8859768  98.5634422  74.6110582
  41.5700102  54.2968607  93.3793449  41.3408327  54.8437881  92.6279545
  41.2378740  54.7789240  94.1366577  18.0405414  26.0555673  17.4146652
  17.5399482  25.7796884  18.1824744  18.9365673  26.1555386  17.7361822
 114.0419674 107.9580975  35.1587987 114.9452686 108.2325840  35.3167391
 113.5540867 108.2964039  35.9096289 107.3534679  40.7542324  86.2382984
 107.4044800  40.1206017  86.9539452 108.0000210  40.4491997  85.6017780
  10.3839171   5.4056674  40.2262831  10.1481867   5.6833363  41.1114740
  10.6878686   6.2055641  39.7973180  87.3784828 103.2742977  18.9525092
  87.7548981 104.1345215  19.1384113  86.9840336 103.3677864  18.0853844
   6.4666134  19.6943116  13.1509233   6.1473548  18.9324975  13.6346030
   7.2386235  19.3750656  12.6836812  44.3999338 102.2465134  88.1205082
  44.4261312 101.7132664  88.9149857  43.5446596 102.6754379  88.1480312
  28.9714718  23.5275817  35.0996065  28.7876678  24.3875551  34.7215939
  29.6499109  23.1576824  34.5346928 103.6569023 107.5633717  38.0053711
 104.3660736 107.6776981  38.6380100 103.9930058 106.9187355  37.3827100
  57.5512409  83.2081890  61.2070465  58.4398985  83.5414696  61.3313341
  56.9883585  83.8735294  61.6029072  60.9228373  82.2441292  90.1523781
  59.9968719  82.0685005  90.3196144  60.9409189  82.6134396  89.2694759
   7.5264239  20.2556038  38.8209772   7.2844201  20.4518557  37.9159069
   8.2985765  20.7969379  38.9852023  46.6731262  11.8961847  13.7973368
  46.2116671  11.3744569  14.4539070  46.0145473  12.0726430  13.1255007
   5.3492349  24.9979091  46.2629080   5.9340721  24.9573183  47.0195770
   5.6052744  24.2508864  45.7219553 100.0380802  94.5100594   1.8209925
  99.7990131  93.6213779   2.0842710 100.0820160  94.4731522   0.8655142
  55.9043837  44.0966320  90.3348160  55.5179787  44.9660683  90.2299500
  55.4563332  43.7254953  91.0949039 115.1359940  14.9812770  33.2147622
 115.6173325  15.7109487  32.8247309 115.8165932  14.3852317  33.5274076
  89.0158653  84.0233517  12.7328348  88.9173889  84.3182468  11.8275368
  89.6640491  83.3205223  12.6866245 112.6136971  16.0970616  37.1321082
 112.7978516  16.3887358  36.2392235 113.0193520  15.2320004  37.1899509
  84.7729206 108.8930416   8.6956757  85.5231190 108.5882473   8.1852555
  84.3302822 109.5177746   8.1212044  61.5385818  31.1595821  10.5431378
  61.7430925  31.6070175   9.7220355  62.3764086  30.8006382  10.8354270
  28.1191182   1.6575623  31.7746162  28.7671971   0.9753197  31.9500279
  27.3063850   1.1793274  31.6103292  12.6795518  22.0162868  15.6340337
  13.1659997  21.5859556  14.9308860  13.3277774  22.5694156  16.0700178
  74.2172241  71.1677599  75.7499123  73.4517574  71.5999556  76.1287260
  74.7312832  71.8804359  75.3703594 112.2586250   0.6732883  14.7167611
 112.2099495  -0.2550282  14.4885254 113.1874847   0.8907957  14.6384895
  35.1864076  58.1686831  84.6110630  36.0289025  58.5954332  84.7670174
  35.4154944  57.2953463  84.2932129  18.2230926  13.6253798   2.6201472
  18.5327125  13.5014319   1.7229272  18.6805773  14.4088435   2.9253104
 102.4777222 104.1821671   7.9512906 102.1258354 104.0816784   7.0668060
 101.8250465 104.7111130   8.4100580  80.7973576  23.0990839  24.9226570
  80.3678417  22.7613807  24.1367126  81.4308453  23.7370062  24.5940566
 102.8407574  98.0863857  74.9241161 102.7462578  98.1000614  73.9716911
 103.7863731  98.1061363  75.0712919  58.9366102  19.2801833  20.0929332
  58.2142496  18.6921787  20.3135753  59.0711164  19.8017514  20.8842015
  24.9567723  25.7176709  10.8426750  25.5605078  26.2094665  10.2860141
  25.0620270  26.1055875  11.7113948  32.5246620   6.4699149  24.5537615
  32.1020675   5.8425122  25.1402855  32.3837423   7.3199642  24.9706411
  78.1477356 103.9356613   4.0856314  78.2921457 104.8815060   4.1131637
  78.9436197 103.5833549   3.6872834  14.1599357  14.7508025   3.5873243
  14.5320082  13.8790631   3.4536695  14.6669817  15.3191054   3.0075246
 108.9974594  11.1809540   4.2010105 108.7334347  10.2999783   3.9356744
 108.3815098  11.7607200   3.7530044  58.4445095  85.5157566  92.0899773
  58.4765387  86.2534523  92.6990891  57.5116491  85.3228283  91.9962978
  33.5504603  37.1315241  10.3250003  32.9881787  36.8528152  11.0477674
  33.0641389  37.8394675   9.9024588  51.3752937  12.3414516  75.4091215
  52.2277069  12.7503836  75.2594709  51.4983702  11.8127990  76.1975431
   6.3758969  55.5978012  87.1787930   6.7261088  55.2076006  86.3779640
   6.7627627  56.4728546  87.2078896  40.6288052   8.5919684  30.7349181
  40.4409695   9.3791991  30.2238250  40.9796762   8.9215904  31.5622473
  42.7020025  64.5951653  83.0815411  42.1317101  64.0717411  83.6445904
  42.5748301  64.2298746  82.2059727  16.3314509   6.8384105  18.0200744
  16.3458896   6.8383557  18.9771652  15.5106616   6.4014614  17.7928925
  37.5116444  51.7852974  88.1179714  36.6479707  51.7057991  88.5229206
  38.0205989  51.0684729  88.4965992  92.7631474  91.2804699  47.7016878
  92.9579258  90.8042145  48.5088301  93.5842705  91.2644100  47.2100306
  25.5544043   6.9019789  42.4010611  26.5038085   6.9412601  42.2856379
  25.4330492   6.7547655  43.3390522 109.7393799  20.7590342   5.1222807
 110.3221321  21.1420560   5.7779652 109.0375996  20.3547812   5.6324971
  41.8519926  22.4480343   3.4903726  41.5769339  22.4077463   2.5744289
  42.7613068  22.7448344   3.4545517  94.1200161   0.4936710   4.2149705
  94.8538208  -0.0966436   4.0438074  93.9866543   0.4418424   5.1614171
  47.6100445  74.1176128  63.0515862  47.5508356  74.0750694  62.0971680
  46.8958616  73.5604048  63.3609390  63.1463432  82.8500271  68.3848286
  62.9369164  83.5346603  69.0201616  64.0815687  82.6872635  68.5076571
  64.0320778  70.9746552  94.1961670  63.6079550  70.2881718  94.7110367
  63.4067249  71.6993141  94.2019558  97.6709270  97.8064823  23.3600831
  97.6325321  98.4236145  24.0907764  97.2978592  98.2868862  22.6209855
  94.0963364  14.3098009   0.1270018  93.1992912  13.9760971   0.1131900
  94.1527271  14.8115611   0.9401976  68.1401539  58.8762617  92.8254509
  67.2669029  59.0024090  92.4542999  68.4123087  58.0145121  92.5099373
  12.8697622  26.0555696  36.3866329  12.6035130  26.5121961  37.1846533
  12.0701599  25.6313896  36.0752845  35.7515883   3.9384148   9.1593742
  34.8092198   4.1052133   9.1780591  35.8425570   3.1353232   8.6465383
 105.7347870 102.8509140  29.6693492 105.7865810 102.8126335  28.7143183
 104.9462891 103.3640003  29.8460841  14.7335017   5.9306693  20.5431676
  13.9424658   5.3970999  20.6193185  14.5915782   6.6573310  21.1498427
  86.7392731 107.6368332  45.4450607  86.0177803 107.1641350  45.8600807
  86.8504047 107.2074699  44.5968103  41.7234468  51.9912577  85.3813553
  40.9299469  52.4481821  85.6603050  42.2542048  51.9265413  86.1752892
  64.5787716 103.5848808  30.7335544  65.2121544 103.0173683  30.2942586
  64.2240906 104.1341591  30.0344586  41.6334677   0.4963996  17.4418569
  41.5236950   1.4000055  17.1457505  40.7410717   0.1812430  17.5851917
 112.2846603 100.2831841  32.3743391 111.8015766 100.0756359  31.5744758
 113.1071949 100.6631088  32.0655966  48.8874388  26.4963222  16.0800195
  49.7069359  26.9650054  16.2381196  48.9622355  26.1801004  15.1796639
   0.5082583 104.3364048  34.6866512   0.2892011 104.6213913  33.7995005
  -0.1831425 103.7155819  34.9163675  95.1023293  12.3792040  19.6011269
  94.6109867  11.6634691  19.1979635  95.9640217  12.3418105  19.1860116
  87.4551487  61.0795450  31.9341302  86.6089725  60.7158804  31.6734314
  87.5894260  60.7583380  32.8257728  27.5610733  15.4187453   5.1452899
  27.9916692  14.6038020   5.4035228  26.6662407  15.3313279   5.4737186
  53.5541677  14.2086875  10.1921654  53.1267023  13.3675301  10.0310433
  53.8406515  14.5013738   9.3270093  33.3907557   0.2712571  28.2434702
  33.1476831   0.2578430  27.3177433  34.1064453   0.9048711  28.2940197
  99.2635632  80.7040024   3.3230624  99.9859142  80.7452679   2.6963764
  98.7461376  81.4891815   3.1441793  82.7713203 106.5011883   0.6227659
  82.9958534 106.1940384   1.5011019  83.5933113 106.4527988   0.1346901
  87.7400780 101.3910961  27.5668669  88.6345291 101.1659241  27.3109841
  87.5808716 102.2417068  27.1577787  50.6682873  88.9583302  87.0200634
  51.2017584  89.2283249  86.2725735  51.1565065  88.2354069  87.4140835
 100.7632732 105.1570988  10.4656029 100.3963184 105.8472538  11.0181010
 101.6771126 105.0893211  10.7422543  37.6166558   6.0732585   8.5412675
  36.8520451   5.6029183   8.8735050  37.2863722   6.9454652   8.3258629
  51.7267084  83.1117439  93.9900589  51.1037350  82.4981785  94.3795013
  52.5781775  82.6870441  94.0943050  56.2042761  74.5688248  84.4977093
  56.9198275  74.6246147  85.1310349  56.5547419  74.9733210  83.7041187
  91.3272667 107.5957680   6.0271567  92.0403385 108.0562496   5.5847502
  91.7396641 106.8156433   6.3980615  25.8497262  69.7409344  93.1313229
  26.3896084  68.9625740  93.2688713  25.4464960  69.6042967  92.2740173
 109.8279190  58.4015512  72.4195671 110.0884151  58.6571360  73.3044720
 110.5375290  58.7176418  71.8603039   4.3894735  14.3981457  44.7946501
   5.2116072  14.6766579  44.3912172   4.3509147  13.4553945  44.6335173
  10.2953708   5.9938186   1.3397907  10.0326478   6.2258112   0.4490673
  10.2659404   5.0372207   1.3567083  48.2286310  36.7516589   4.0571404
  47.3823261  36.5754914   3.6460865  48.8688183  36.3530350   3.4676573
 110.3914833   0.5070978  81.5210056 110.5348778   0.2774730  82.4391270
 109.5219421   0.9070251  81.5071392  68.9000463  56.3912344  91.9818497
  68.6043596  55.7865667  91.3012886  69.2092085  55.8241129  92.6882648
  44.8046875  86.1738873  69.6985149  45.3127861  86.9558430  69.9143839
  43.9176655  86.4993668  69.5452642  42.3866940  84.7722530  67.5608110
  42.5604963  83.8369465  67.6667643  42.3349571  85.1090908  68.4552908
  55.3593254  70.0950003  89.7987270  55.3824377  70.4466581  88.9087582
  55.3992796  69.1457510  89.6822929  23.2875586  16.7103875  37.4603057
  23.9946437  16.7662692  36.8175459  23.7071490  16.3657844  38.2486105
   8.5736829  40.3601742  22.6614141   7.7525860  40.8395481  22.5508261
   8.5087472  39.9719906  23.5339570  74.5608759   2.1706387  31.5001845
  75.0274944   2.1669675  30.6644297  74.2117834   1.2832691  31.5834928
  77.5862265  89.5451069  73.6855268  78.4256840  89.8149109  74.0580177
  77.0349407  89.3607330  74.4460011  49.2658043  53.9025736  89.3172169
  49.9242496  54.2188358  88.6986256  49.1552353  54.6225357  89.9382305
  18.4078598  35.1868081   0.5469244  18.1034565  35.6410098  -0.2387419
  17.7615440  35.4084635   1.2172809  63.4978867  77.3892498  65.2020502
  63.4667301  76.6930437  65.8582211  62.9152822  77.0876694  64.5050192
  71.9989109   5.6925881  13.8383269  72.0949650   5.6149960  12.8891253
  71.1844969   5.2297992  14.0352738  42.0938683  17.5813937  12.8818750
  41.9618654  16.6628158  12.6473105  42.8954315  17.8329325  12.4231231
  80.1014519  82.4557590  89.3139267  80.4743576  82.0257664  88.5443306
  80.2731705  81.8489933  90.0340462  18.2392478   0.8133868  86.6842365
  18.6034203   1.1562464  85.8681107  18.9133215   0.2208296  87.0170021
  10.1375663  29.3690467  25.0951219   9.2292953  29.6675467  25.0485110
  10.1112282  28.6122966  25.6806731   2.0967299  66.2791157   2.9866707
   1.4105290  65.9719467   2.3942102   2.8633595  65.7534409   2.7582479
  60.5258226  11.7339301  14.3637311  59.8886967  12.4015820  14.1096711
  61.1476755  11.7072487  13.6365330  71.7840052  78.0031157  74.9973249
  71.6130257  78.9446354  75.0203466  71.2721252  77.6848364  74.2537451
  77.6633978  82.7208614  64.4578457  78.5382652  83.0088139  64.7184610
  77.0968771  82.9922390  65.1800919  25.6300735  49.7954941  37.2605801
  26.3559747  49.8732853  37.8796482  25.5987191  50.6448412  36.8202853
  70.0676394  96.0634995  74.0724802  71.0130930  96.1330986  74.2047787
  69.7136641  95.9120846  74.9488401  24.1648841  61.4704275  31.0808253
  24.5110536  60.6061697  30.8584404  23.5482240  61.6699457  30.3764415
  59.2672968  13.5320270  27.5075388  59.0046644  12.8347206  26.9066906
  58.6252594  13.4918594  28.2163477  44.1696119  40.2949667   3.7734419
  44.9093914  39.7756505   3.4583762  44.4593668  40.6357908   4.6196768
  27.1195555  15.1451254   1.9400890  26.3456678  15.4972541   2.3797874
  26.7681479  14.6148133   1.2248876  65.6689930  41.2070227  39.7585106
  64.8849964  40.7415676  39.4670796  65.5145741  41.3779688  40.6875753
  51.2884951  51.7334080  16.1146581  51.4211512  52.3152304  15.3662479
  50.9237242  50.9340572  15.7349074  43.4685564  27.9621983  12.7230680
  43.5420370  27.1220803  13.1758726  42.7245188  27.8510237  12.1312249
  81.4998245  79.2783785  85.6537342  82.2399330  79.8574924  85.8356667
  80.7426739  79.8626518  85.6138897  84.7218227 100.7355022  75.6014442
  84.5428085 100.4994583  76.5116453  85.6345177 100.4822063  75.4633808
  47.1615076 100.3275967  28.1727028  47.5013256 100.1918411  27.2882104
  47.1012783 101.2786484  28.2627892  47.9409456  27.7805448  19.0040970
  48.2934380  28.6429167  18.7843299  47.8952265  27.3198771  18.1662858
  50.4967690  25.1991963  11.0371697  49.6259022  25.1079226  10.6505191
  51.0769272  25.3428125  10.2894950  62.7653837   9.0977252   9.6953303
  63.5436821   8.8545150   9.1940045  62.0315886   8.8634747   9.1270804
  27.7195859  78.1107998  73.7439156  27.3028517  77.5027943  73.1332636
  28.1491876  77.5471783  74.3873501  18.7551594  18.4141791  21.0134482
  19.7054696  18.3267105  21.0875487  18.4094667  17.8937948  21.7386580
  27.9022884  50.9384775   9.8870504  27.7223110  51.6978836  10.4412520
  27.1988153  50.9435606   9.2379504 107.7502728  86.9458580  74.2779350
 108.0520821  87.8090954  74.5607090 108.0867386  86.3448906  74.9426603
  46.2078667  65.2362680  93.3544731  45.9195185  65.8831215  93.9984131
  45.4456758  65.1030684  92.7909470  39.4882679  23.5951495  11.4394975
  40.0250483  23.2235122  10.7395113  38.8842583  22.8916955  11.6773164
  28.9505363  45.2634811   1.4469896  29.4956684  44.4817114   1.5358385
  29.5662880  45.9603167   1.2200483  53.8527393  28.9375186   1.1925265
  53.9503527  27.9900122   1.2870683  54.2987061  29.1434503   0.3709796
  77.8455687   2.9065913  44.3031406  77.9991436   3.6700666  44.8596954
  78.2229662   3.1471884  43.4570265   3.0994260  12.4075258  42.3829269
   3.6188483  11.7379689  41.9378090   2.2625375  11.9799244  42.5646019
  50.6252146  33.8273597  27.4399781  50.0231028  33.4202647  28.0628467
  50.7239389  33.1784773  26.7432451  20.2123690  34.4193244  13.0376494
  20.4173112  34.5233274  12.1084487  19.8857284  33.5226560  13.1119728
  62.5456524  74.9020767  85.2380657  63.1906462  74.4157410  84.7245598
  61.8462801  75.1026964  84.6160889  53.8438511  23.7172699   2.1655521
  53.4551096  23.1013131   1.5444969  53.8865852  23.2318234   2.9894131
  23.7726450   4.8129022  88.7078190  24.0532970   5.0610232  87.8269672
  22.8734732   4.5047596  88.5948086  27.5306249  33.0733204  10.4195273
  28.2736611  32.5132918  10.1948154  27.6080608  33.8224769   9.8287648
  32.2169280  13.8870883  21.6540837  32.4383807  13.4562862  20.8284926
  32.9961681  13.7759948  22.1987653  83.4597492 102.4829292   0.2498879
  83.2517624 102.9216766   1.0747955  83.7390900 103.1888676  -0.3330743
  13.8810837  13.6214280  27.9474592  13.2690310  13.6433077  27.2118354
  13.3242548  13.6768675  28.7240553  86.8063927  71.5919495  70.2206802
  87.1664715  72.4209023  70.5359602  87.2214508  70.9264135  70.7693338
  34.1390610  29.7957325  20.0443316  34.2416310  30.6565642  19.6385241
  34.1691208  29.1804504  19.3116927  65.6641912  24.1592836   9.0618813
  65.3421497  24.7045445   9.7796631  66.4079523  24.6458817   8.7065291
   6.4857036  65.8189487  79.7417736   7.3792773  65.6712484  80.0515175
   6.5803373  66.4529848  79.0309477  47.1095800  93.0309868  64.9546432
  46.4144516  92.4773407  64.5989847  46.8630791  93.9195442  64.6978331
 107.9064083  72.3362875  76.6026878 107.7217484  72.4096203  75.6663322
 107.1263885  72.6911402  77.0291519  93.6439514  58.5321379  90.1239777
  94.0154648  58.9064503  90.9227943  94.3091965  57.9166603  89.8159885
  91.9841957  89.6313381  87.6571655  92.8296375  89.9916077  87.3894501
  91.3919640  89.8501205  86.9377041  81.1560917  62.4408579  58.7243700
  80.3059196  62.8061438  58.9693308  81.1202812  61.5313148  59.0204859
  69.3542767  82.8356552  82.1356392  69.4008970  82.4011707  81.2839985
  69.4005489  82.1217442  82.7715874  64.6467113  14.5043135   5.2974349
  65.5935526  14.4347274   5.1754409  64.3187475  14.8155463   4.4537485
  61.2374496  78.6816072  86.3278103  61.7536497  79.3415070  86.7907333
  61.6704559  77.8525972  86.5314865  74.2684841  86.3691902  79.3993044
  73.8692045  85.5385780  79.6579170  75.2104425  86.2143707  79.4698381
  54.2488289  84.2776680  73.2532930  55.1901674  84.2653561  73.0802107
  54.1081381  85.0802231  73.7556410  52.0412970  85.3894615  62.0072222
  52.7540588  85.5574036  61.3907814  51.4756918  84.7637367  61.5546799
  12.0220649  61.2130356  15.0032413  12.6235569  61.0400867  15.7274842
  12.5789750  61.5626860  14.3076646  16.3294733   5.0486153  10.1886165
  16.7823422   4.3751261  10.6961143  16.5413857   4.8450601   9.2776340
   9.0630382  72.2011614  19.2209578   8.5538340  72.3681974  18.4278357
   9.9731433  72.1952724  18.9244676  52.6235104  68.2382393  87.6984406
  53.1838655  68.8623333  87.2372055  52.7777433  68.4178448  88.6259079
   9.0682846  72.1097469   4.1131046   8.4136504  71.5760756   3.6626792
   8.5927868  72.8958368   4.3817922  16.7065799  17.1377861  19.8774755
  17.3927164  17.7828395  20.0488043  15.8932042  17.6419795  19.8984528
  60.4308653   9.9492645   2.9495662  59.5529652  10.2782249   2.7564085
  60.3545094   8.9988762   2.8649315  23.3721066  26.5674901  35.4837036
  22.7540231  26.7821908  34.7850561  23.3807826  25.6106949  35.5101466
  92.7723408  73.7821293  66.9643641  92.1638489  73.0439425  66.9320583
  92.2096920  74.5565081  66.9641018  20.2373743  13.4751415   5.9039366
  19.4018996  13.2616830   5.4884237  20.8620262  13.5140753   5.1796961
 104.4554615  93.4939766  92.1085644 104.9892998  92.7428722  92.3675919
 104.3763924  93.4151554  91.1578941  46.7288446  54.2227221  11.9556534
  46.9342995  53.6773348  12.7149785  47.4280405  54.8760843  11.9338214
  34.1007900  50.9679604   7.2134686  33.7272859  51.7120600   7.6857477
  33.4308314  50.2867651   7.2714460 102.6339817  10.2326357  74.2385006
 102.7756977  10.7540476  75.0286102 103.5149670  10.0369978  73.9194202
  17.7811134  42.5851917  25.2396488  18.7185609  42.7077913  25.0900126
  17.5136113  41.9499540  24.5754552  75.9063625  71.5928555  78.6553907
  75.8566618  71.2646008  77.7576065  76.6773224  71.1627436  79.0253305
   4.1761649  27.9986906   6.2973773   4.3592986  28.0027413   5.3578681
   3.2344088  28.1586576   6.3585168  89.4330788  62.9068661  89.3388557
  90.3653049  63.0573463  89.4955158  89.2851734  62.0046043  89.6221924
  69.7745705  21.2764549   2.1775001  70.5543184  20.7385421   2.3149031
  69.7781277  21.4682722   1.2397233 108.1300640  78.2835579  67.4911118
 108.2721138  79.1289139  67.9170513 107.3324394  77.9425192  67.8957319
 100.6021404  81.7753124  57.9057693  99.9792194  81.2453842  58.4031391
 100.1285553  82.5847816  57.7141476  98.9230156  96.1157894  79.4721889
  98.1396198  96.4591312  79.0424871  99.1040897  96.7403316  80.1746082
  33.9589763   4.1374460  12.4049211  33.6621714   3.2623675  12.6546764
  33.1650925   4.5852789  12.1126413   0.3803480  14.9087524  21.6705132
   0.8158533  14.9728286  20.8205366  -0.3743932  14.3421018  21.5108132
   5.3246480  10.0581670  81.2690449   6.1823714  10.1201713  80.8486938
   5.5044067   9.6655941  82.1233368  24.8026252  31.8903255  17.6180732
  24.1704869  32.2917771  18.2142854  25.5740428  31.7277122  18.1609404
  61.2064791  89.0638828  87.1181870  60.7449579  88.5235596  86.4768696
  61.2029648  88.5402012  87.9194164  29.2734861  37.5848007  23.2539201
  29.6416879  36.7031097  23.3112073  28.3336115  37.4609232  23.3862853
 115.5715275   7.6223469  72.7749729 114.8520184   7.0075452  72.9183531
 116.2542439   7.0984983  72.3557949  59.8225641  14.7386134   1.8910538
  60.1866484  14.4794762   2.7375308  60.5769825  15.0503790   1.3911676
  58.5255194  55.8939075  15.3261280  58.8459158  56.3931561  14.5749092
  59.3087626  55.7150221  15.8464801   5.8581120  55.1724195  81.0244274
   5.2196670  55.5108976  80.3966904   6.6782761  55.1301861  80.5327225
  10.7493246  20.1318765  20.5368733  11.7064917  20.1240110  20.5365801
  10.5143678  20.7140994  19.8143470  61.3380527   5.2896082   9.0612370
  61.8080521   5.4186052   9.8850656  60.4517698   5.6042928   9.2393047
  52.7413797  34.3138933  28.8056087  53.4788799  34.7142172  28.3450985
  52.0992327  34.1342306  28.1188774  14.5939803  21.1420321  24.4604325
  14.9559867  21.2746978  25.3365517  14.8528945  21.9242859  23.9733219
  69.6502972  94.2772675  87.1941566  69.9724531  94.9160767  86.5582561
  68.9921761  94.7538853  87.7000713 106.1264038   4.5425615  86.8264675
 105.4731178   3.9092007  86.5292931 106.7035294   4.6630663  86.0723877
  22.2202516  38.2669497   6.7940146  23.0875039  38.3744526   7.1845889
  22.2636414  37.4239326   6.3427180  17.3953950  52.5905991  10.6710148
  17.2270906  51.8671179  10.0672913  17.2485793  52.2166395  11.5398264
 114.5716476  69.2177677   5.4607069 115.1253223  69.9855947   5.6025440
 114.4254494  68.8626480   6.3374877  74.8832607  12.0498586  72.2226763
  74.9725056  11.8461037  73.1536722  75.7087946  12.4749994  71.9903326
  66.9923306  73.6553097  87.1770000  66.3906765  72.9161263  87.0883656
  67.8628397  73.2572699  87.1739960  77.5791121  88.2330227  77.3699093
  77.1932983  88.0735874  78.2312775  78.4327364  88.6229897  77.5582743
  40.9114313  73.0038834  62.5462437  41.8148470  73.0900478  62.8506136
  40.9654331  72.4035168  61.8026876  31.7447615   6.0285091  19.4197571
  30.9673476   6.0853350  18.8642156  32.0195842   6.9373810  19.5408225
  31.4039898   3.4026617   2.3657306  30.6846356   3.9592314   2.6640442
  31.4513159   3.5575598   1.4223331  42.3090410  53.3578730  24.2158675
  42.3352623  52.8939438  25.0527143  41.6370535  54.0290403  24.3350458
  82.7794933  88.2880306  64.2841196  82.3399162  87.6195049  63.7586832
  83.3407497  87.7929115  64.8808432  52.9303265  30.8202028   8.5783589
  53.1814289  30.8465910   7.6550585  52.2799683  30.1197600   8.6297733
   9.4488513 108.8589191   0.5788783   9.3809032 108.0356693   1.0624832
  10.1180005 108.6922169  -0.0849596  47.9563189  60.7869148  35.1025009
  48.0570269  60.9718084  36.0362601  48.7608814  60.3279781  34.8610783
  12.9702365  44.5012665  85.1711845  13.4487450  43.6859512  85.0210953
  13.4465337  44.9312449  85.8814526  60.5633545  47.9577780  19.0941095
  60.5167437  47.0175886  19.2675924  60.3161764  48.3668995  19.9234200
  31.6533017  21.2635183  18.4759498  30.8084488  21.3160110  18.9228272
  31.5012026  20.6634760  17.7458501 112.3315620   4.3700370  81.8347454
 112.2081184   3.4681070  82.1305752 113.2647991   4.5389700  81.9642544
  41.1770010  43.8596964   1.2089174  41.2174177  44.8007679   1.0386710
  40.3522873  43.7365246   1.6789211  32.7027631  23.7250853   2.5647068
  32.2474337  23.3186436   1.8273373  32.3413181  24.6102142   2.6109305
  75.9368658  85.5780983  62.0124197  75.1713705  85.5905914  62.5869608
  75.7935524  86.3052273  61.4066362  88.1067657 108.5672283  17.2737312
  89.0376568 108.7272167  17.4289024  87.9893875 108.7256718  16.3370621
  37.7474737  22.7034307  63.9884853  37.9891062  22.4213958  64.8707008
  38.4733963  22.4122310  63.4366941  84.5061207  88.3648205  75.1615715
  84.9812698  88.8260365  74.4703817  83.5955429  88.3636093  74.8664999
  30.6838369  52.1585655   7.6507938  30.6219196  53.0165339   7.2309226
  30.5797648  51.5329742   6.9338310  94.9482727  97.8816032  90.3096581
  94.9113846  97.9438305  89.3551922  95.4303360  98.6623764  90.5821228
  26.9600987  35.6449866  30.6932783  27.4280357  34.8099685  30.6904769
  27.5437927  36.2450838  31.1574101  44.9038458  17.6445138   8.4110743
  44.2184401  18.2965124   8.2649434  44.4758844  16.8051410   8.2421446
  19.0371144  25.3950763   0.3123076  18.1654787  25.7169104   0.5423189
  18.9236391  24.9898243  -0.5474176  39.8202419  29.0414572   2.9504797
  39.9862576  29.9260688   2.6246974  40.4762650  28.9113688   3.6352730
 105.2552605   5.4336172  93.0969524 105.7569790   6.2197423  92.8812790
 104.5260143   5.4372931  92.4769306 108.6201477  21.9972992  75.3716183
 107.7547169  21.6121721  75.2339602 108.6158657  22.7925825  74.8389482
  31.1805964  60.9837723   8.2114524  31.7948270  61.0072613   8.9452112
  31.5790510  60.3798151   7.5847924  67.1603823  97.0422173  91.7937660
  66.4403296  96.4159012  91.7197704  67.9275084  96.5034580  91.9873619
  18.6621046  19.4268835   0.8535490  17.7926266  19.0791976   0.6551681
  18.5171032  20.3601766   1.0090218  34.7692132  21.4634061  22.4523687
  34.2855358  21.9084096  23.1482553  34.6714807  20.5320621  22.6505589
  60.0809956  36.7996526   3.1050131  60.5032063  37.6170659   3.3692148
  60.6678677  36.4291072   2.4458390  20.5646420  25.7902718  13.6740863
  19.6668923  26.0577846  13.8708389  21.0398483  26.6130900  13.5584068
  76.8168545  77.9602051  94.4790936  76.7070293  77.3208523  93.7752438
  76.7285061  78.8097143  94.0469360  39.0115404  14.3283474  28.9417648
  39.6268201  13.5952139  28.9283967  38.1970072  13.9637768  28.5955620
  91.1158371  49.6796894  93.0014896  90.3825188  50.2886820  92.9143047
  90.9161282  49.1756868  93.7903690   6.9659376   7.6867139  79.4102812
   7.7071977   8.2897216  79.3541765   6.9929034   7.3569447  80.3084755
  48.9664793  12.8909552   9.2922330  49.0392351  12.0343018   9.7130454
  49.8606920  13.2324207   9.2879558  76.9480801  56.0054827  34.6761656
  77.2164679  55.1219273  34.4241095  76.3229275  56.2678289  34.0004492
  86.4547443 103.2235432  82.3132038  85.7937431 103.4266281  81.6513443
  87.1233082 103.8990021  82.1991539  86.0375118  68.9386511  81.1377716
  85.4667950  69.0526628  80.3778267  86.9009590  68.7616920  80.7644558
   4.5238325  37.5264335  31.7704678   4.5500967  38.4629798  31.9664788
   4.2563400  37.4812603  30.8525157   0.9311289   3.3833477  52.7645016
   0.9126277   2.4484366  52.5599766   0.6224150   3.8095880  51.9649744
  53.6812258   3.6477944   3.1597394  54.6292925   3.6677310   3.0293339
  53.4180832   4.5680010   3.1453803  62.4070072  21.7665029   0.4941764
  63.2038641  21.4066911   0.1045775  62.6319933  22.6724195   0.7061432
  73.6005306  82.8250599  91.6302872  74.2846918  82.9134178  90.9667015
  73.4920168  83.7088394  91.9815731  74.3392897  54.9714899  15.4455483
  74.8848724  55.4424429  16.0754466  73.7920332  54.3992662  15.9834182
  59.1837358  89.0752888  80.0266552  59.2502069  88.9198494  80.9688091
  59.4371557  88.2427311  79.6280766  10.7964945   0.2462731  73.9478779
  10.4047894   1.0872792  74.1834831  11.5897930   0.4783890  73.4651470
  55.4809904  50.7968569  16.0031343  55.8632088  49.9332905  16.1593151
  55.8529186  51.0756207  15.1663589  16.2314737  35.0194955  18.0948448
  15.2837658  35.1254869  18.0120993  16.4021182  34.1332817  17.7758777
  67.9885435  86.0826111  81.6793919  68.1506252  85.7129574  80.8114529
  67.3252392  86.7569065  81.5324879  34.5437026  48.1340647  38.1225324
  34.6519256  48.5827732  38.9610887  35.4280901  47.8567553  37.8833818
  49.4147539  22.0471549  41.7227840  50.2695465  22.1562362  42.1395111
  48.7840557  22.2604275  42.4105120  85.5804348  26.9049525   4.8376292
  85.4840660  25.9745049   4.6346265  84.6974087  27.1920800   5.0701362
  94.1760540  88.9784718  83.8489914  94.0640926  89.6708012  83.1975460
  94.5778942  88.2569599  83.3650589  56.8118143  79.9296999  88.0098534
  56.7542505  79.2076349  87.3841190  57.7507257  80.0895023  88.1054592
  77.3795128  26.1383009  25.1694965  76.4570427  26.3921142  25.1401472
  77.6356268  26.0596228  24.2505598  47.4789667  19.4136000  26.1619687
  47.0524693  19.8910058  26.8735957  48.2240582  19.9627233  25.9179688
 108.5278416  91.9498348  81.9737053 108.4366608  92.5210285  82.7363682
 109.4402409  92.0544338  81.7038441  41.4149046  54.0969086  74.1883850
  40.9452391  54.8430157  73.8155985  42.3260021  54.3866110  74.2353344
  98.4228230  47.4644184  18.1396186  97.9410267  46.7141104  17.7915621
  98.9172745  47.7994537  17.3916245  48.2874823  24.2410111   1.3708164
  48.5854530  23.8534427   0.5478736  49.0130424  24.8000240   1.6488472
  60.3072834  97.4940681  93.1342602  59.5199633  97.3852444  93.6676598
  60.7938719  98.1962967  93.5659409 109.9838066   1.6036175  92.0676422
 109.9783421   0.8113838  91.5304565 110.4078865   2.2627009  91.5181065
  23.6765313  14.5229864   1.0800503  23.9811730  13.7740850   1.5924683
  22.7448845  14.5926917   1.2883925  89.2489243  58.9232540  21.7219257
  88.9959335  58.0678368  21.3748169  88.4451008  59.2730284  22.1062994
  41.6532755  90.2712059  88.8446522  40.7714653  90.1588440  89.1996479
  42.1605825  90.6302452  89.5726395  51.3141012  38.3481479  13.4179771
  52.0708561  38.6111331  12.8941536  51.6660404  37.7200603  14.0487528
  79.9189520  66.1395073   1.2306114  79.5106411  65.6185102   1.9220445
  79.1877031  66.5854311   0.8032221  49.5313501 106.7917538  92.4014091
  49.6556664 106.9552040  91.4664936  49.1319418 107.5955296  92.7340412
  32.7589440  27.2303891   5.2074438  33.3481526  27.2012854   4.4536430
  32.5147939  28.1526613   5.2851343 109.6544456  79.5657444  71.4245319
 109.0041637  80.2308464  71.6503620 109.1873264  78.7347984  71.5115356
  99.9807167  98.7464046  71.6596937  99.8512268  98.9004135  72.5955057
  99.8636055  99.6068001  71.2569046  27.9079342  34.3954635  12.8031969
  27.4109554  35.1650929  13.0805302  27.4270248  34.0596080  12.0467854
  36.2730765  22.9778028  42.7288437  36.6089249  22.9231691  41.8341637
  35.8396387  22.1367526  42.8737497  13.4273636 105.8987522  93.1962109
  14.2090464 106.3443851  92.8696918  13.1940436 105.2839279  92.5006676
  58.8463449  30.5723333  20.1724553  59.4478273  31.0085320  19.5689797
  59.3885660  30.3434110  20.9273195  67.6256466  36.8996477   1.6507307
  66.8317461  37.0483232   2.1643905  68.3406210  37.1412086   2.2395346
  72.5701523  55.5198097   3.3555615  72.9975605  55.9318972   4.1063869
  73.2576561  54.9931145   2.9479304  12.0642984   3.0594328  67.5438452
  12.4272823   2.8957912  66.6733885  11.5266466   2.2891653  67.7278280
  53.3569002  51.0551453  17.9471517  54.1345358  51.0647488  17.3891020
  52.6485968  51.3525057  17.3760819  47.7741337  32.4017501   5.2305454
  47.8783607  31.4694667   5.4208589  48.3567286  32.8394914   5.8511871
  93.7900925  80.0949097  75.9875917  93.9497185  79.6740866  76.8323755
  92.8445148  80.0214577  75.8582926  33.0451822  18.4067285  61.8640471
  33.4221148  19.2254138  62.1863985  33.8026428  17.8674519  61.6367388
 102.0354176 100.3157234  49.8344421 102.9167938 100.3295422  50.2075624
 101.4590454 100.5066490  50.5744219  28.9437842  80.7209301   1.8169026
  28.3157635  81.4395905   1.7437877  29.7926116  81.1254692   1.6378148
 100.7379913  95.1534462  73.5853529 101.6919041  95.2122593  73.5322332
 100.5581284  94.2144394  73.6316395  18.5139835  46.0541773  30.7872987
  18.0161190  45.3877831  31.2608862  19.1081667  46.4199734  31.4425635
  58.8898993  98.9808369  85.7342625  59.6693516  98.9427662  86.2885571
  58.4490061  99.7890759  85.9961510  15.9938037  40.2126980  20.5739141
  15.5374074  40.8988905  21.0608244  15.3924537  39.9807930  19.8662210
  17.5060260  33.8899040  10.7631695  17.9835093  34.7084999  10.8978617
  17.5061679  33.4683537  11.6225457  95.4817104  93.9615536  70.0683928
  94.6361160  93.5151196  70.1119089  96.0117722  93.4146023  69.4886398
  33.3385491  32.4969959   6.8245023  33.7344027  33.0294394   7.5144547
  34.0259957  31.8797827   6.5741116  93.0096149  86.7215633  77.1769810
  92.2089291  86.2011623  77.2426653  93.3954906  86.4627743  76.3401031
  86.4830971  75.5294085  56.1600542  86.3309193  74.6924448  55.7212353
  85.9990406  76.1666822  55.6348848  18.2442832  24.4041538  30.1722908
  17.8255606  25.2426577  30.3667474  19.1779447  24.6088338  30.1211691
  41.2369013  81.7668152  12.7661967  40.8525229  81.0392189  12.2772312
  40.8294821  81.7160606  13.6308718  61.9327211  19.7110689   3.9756945
  62.8758287  19.8690677   3.9330512  61.8551636  18.7865639   4.2112914
  33.1936121  14.9180269   9.4537646  32.5791287  14.2554808   9.1380519
  33.2241869  14.7842896  10.4010832  37.0445633  72.2928762  75.7246876
  37.3045254  72.9032516  76.4146852  37.0906043  71.4306450  76.1378145
  61.2112761  33.8538671  15.6251359  61.8743896  33.4045339  15.1011014
  60.5218220  33.2016182  15.7494617  78.2426262  86.7205715  88.0502033
  78.7305450  87.5126648  88.2754803  78.8769341  86.0111332  88.1531048
  37.5638151  34.1029787   5.0900888  37.1907187  34.4334579   5.9072888
  36.8562794  34.1900492   4.4513059  56.3161087  23.7508535   0.7150123
  56.7767000  22.9123020   0.7453924  55.5524349  23.6251998   1.2782577
  19.8844564  41.6172552   0.2060404  20.2553582  41.5086746   1.0817533
  18.9375532  41.6225815   0.3459572  97.9696178  53.9301920  83.5446167
  98.6460209  53.2699776  83.3935452  97.3577595  53.8170290  82.8172493
  60.5287504  40.3559351  12.6846313  61.2183905  40.7852983  13.1908691
  60.2070236  41.0362101  12.0930660  10.3389907  21.6471362  63.9135695
   9.6899003  21.2769341  63.3153534  10.7581007  20.8851886  64.3135834
  14.2991590  71.4570808   3.5619247  14.2513990  72.3325300   3.1778166
  14.2374837  70.8634853   2.8135464  40.7041216  39.7860789  44.2333698
  40.1923752  39.8788428  45.0369549  40.4621077  40.5473995  43.7060690
  73.6507797  27.4953055   5.1023275  72.7453852  27.4172521   5.4029953
  74.1773748  27.2336769   5.8576274  77.0228434  94.8855019  90.0358582
  76.3503075  95.0508213  89.3751049  76.8101263  94.0190125  90.3825283
  37.9617000  49.9516582  34.6674705  37.4704337  50.6525230  35.0960422
  37.2904062  49.3972349  34.2697120   4.7909120  12.7513325  65.7807684
   4.4287962  12.0836270  65.1982975   4.1665465  12.8019226  66.5045357
  67.5831223  52.4403906   6.9626451  67.0195389  52.2495556   6.2128544
  68.3299112  52.9076195   6.5881646  72.1324348  94.7001457  79.0331650
  71.2427330  94.9723530  78.8082933  72.0166445  94.0581417  79.7336340
  26.9249344  39.1424990   2.5984874  27.4117732  39.7075629   1.9985531
  26.6415620  39.7271895   3.3013859  13.4482694   5.6638134  81.8076038
  14.0213585   5.5390692  82.5640774  13.3546245   6.6134226  81.7320824
  85.6822300  76.1357117  62.6758957  86.3785744  75.4789686  62.6703167
  84.9865437  75.7517004  62.1422386  58.4864044  63.7519503   4.6223345
  57.5920963  63.9745188   4.8810017  58.7917900  63.1550264   5.3054571
  23.5415006   0.2221321  87.0925903  22.7691984   0.5557431  87.5491905
  23.6127353   0.7698303  86.3108063 110.0985050  94.4853878  75.0403595
 110.8660316  94.7088909  74.5138836 110.4549503  94.0245152  75.7998180
  55.7851124  39.8465800  14.0827453  56.7308617  39.8232174  14.2285204
  55.4343939  39.1853881  14.6794486  94.9233627  89.1378975  94.7814465
  94.2540169  88.4623432  94.8902893  94.9187660  89.3307590  93.8438797
  58.7413979  88.6450672  91.4731407  58.1681108  89.3919659  91.6455173
  59.6178961  88.9598465  91.6942787  11.0112989  15.8804142  23.9136672
  10.9302163  15.5812752  23.0080342  10.3313112  16.5475535  24.0073347
  82.9536438  95.5482864  56.3398218  83.5136604  95.2912903  55.6073093
  83.2724762  96.4147091  56.5925789 104.1726398  59.8608160  80.8645725
 103.8206387  60.2075815  80.0447655 105.1213741  59.9507666  80.7748985
  11.9361997  57.3994875   2.6359829  11.0975361  56.9620609   2.7827194
  12.1528018  57.7920151   3.4816998  76.9896889  43.1502438   1.3343950
  76.3235235  43.2624054   0.6562551  77.6053572  42.5182915   0.9631468
  88.3204079  78.4883118  68.7300920  87.6240444  77.9490471  68.3552408
  88.1494141  79.3680239  68.3937788  68.4473085  95.5027676  65.3930521
  67.5729704  95.1427174  65.5418301  68.3176756  96.1799431  64.7290850
  55.0896358  11.8146312   6.1411977  55.9496689  12.0904696   5.8242100
  54.5934963  11.6174090   5.3467274 113.6057758  18.3760595  86.9065571
 112.8837013  18.4931302  86.2891960 114.3892097  18.3523345  86.3571072
  62.2932959  37.7111125   5.6501549  63.1444883  37.9921889   5.9858632
  62.0901251  38.3389139   4.9567443  42.2983694  57.3560905  20.7200170
  42.0413542  57.1900749  21.6269970  43.0523062  56.7841387  20.5761981
  13.1266415  16.7448640  31.9570088  12.7845681  16.5745556  31.0793924
  13.8157308  16.0913241  32.0764756  79.5527220  18.1820941  80.3833961
  78.8323116  18.8108313  80.4273033  79.4866514  17.8029609  79.5069742
 107.8799248  87.8482246  56.1732292 107.3467731  88.1676579  55.4452610
 107.3756027  87.1212769  56.5385294  83.1377220  13.0953634  34.1476822
  82.9412270  13.9661336  34.4931960  82.2805691  12.7140772  33.9575958
  35.8627987  38.2399797   5.8479196  36.1719704  39.0064502   6.3307947
  36.5017796  38.1263781   5.1443350  86.5337563  84.5635700  80.8193016
  86.9186211  84.2794132  79.9902248  87.1847820  85.1562977  81.1948872
  25.0362754 107.9329300  69.3988943  24.2409778 108.1919861  69.8643303
  25.5642796 107.4834156  70.0587273  64.1752386  86.5324020   5.2963561
  63.3185387  86.6658115   4.8907712  64.0766573  85.7276440   5.8051479
  99.0072441  78.9853382  71.1967897  99.4186592  78.1305885  71.3247347
  98.0942249  78.8522387  71.4515781 103.7390614  11.8093288  76.2388086
 103.7750816  12.3932505  76.9964170 104.3131256  12.2200894  75.5923128
  63.0937099  63.8947964  25.1168060  63.5055494  64.7455072  25.2681518
  63.4773016  63.3215332  25.7804775  69.9435329  83.0881977  64.4146967
  69.5903969  83.9776421  64.4351721  70.8822155  83.2064819  64.2693901
  19.3235087  22.0950961   1.6921376  19.8292947  22.2412825   0.8927367
  19.2997348  22.9508305   2.1203728 101.2290478  97.2875786  64.6590376
 100.9423828  96.4561462  65.0368977 100.6113148  97.4525738  63.9467096
  63.1254625  52.4719715  15.1121402  62.9104853  52.1172237  15.9747946
  64.0820360  52.5034046  15.0976908  59.2597198  65.3267097   2.6328945
  59.6631289  66.0229301   3.1513274  59.0130424  64.6617126   3.2756686
  80.3593636  98.0079079  72.4570560  79.5015955  97.7285862  72.1369743
  80.5514622  98.8049221  71.9630003  49.3993759  41.9948483  35.1358652
  48.8519239  42.4493837  34.4956064  48.7770414  41.6114044  35.7538462
  75.7315207  75.6668472  83.2633114  76.3388443  76.4064693  83.2819271
  75.5060768  75.5188894  84.1817474  96.3264084 107.6865101  40.9948158
  95.3838539 107.5197124  40.9939861  96.4043903 108.6193085  41.1949158
 113.8247776  82.8888607  76.1485529 114.4696712  82.2723389  75.8017874
 114.1080952  83.7420082  75.8197641  80.3042698   3.4347793  90.9857082
  80.4345322   3.6129281  91.9171143  79.7341156   2.6661551  90.9663200
 104.9252319  65.5902243  54.4573069 104.0960503  65.9297705  54.7940445
 105.5345631  66.3241243  54.5368814 111.4165974  17.9149723  48.3807707
 112.3400116  17.7117801  48.5299015 111.1772251  17.3932397  47.6147890
  55.1929283  67.0391846  13.0023372  54.2563200  66.8559933  13.0760467
  55.2364826  67.9028988  12.5920534  42.5198030  57.6386309  26.5317440
  42.4512196  58.4006310  27.1069694  41.6554308  57.2294235  26.5722060
  22.1226788  93.4561920  91.3335323  21.8643904  94.3680000  91.4681435
  22.1500897  93.3529472  90.3823090  65.5410480  61.9926119  25.4682326
  66.0745716  62.7534819  25.6977105  65.0154352  61.8240023  26.2502408
  37.7392673  30.9598970   7.4054766  38.1947541  30.2124214   7.7928287
  38.1493187  31.0720539   6.5478575 115.2502823  52.4158430  66.6770887
 114.7143841  53.1650305  66.9373894 115.0369644  51.7353868  67.3156071
  31.1966801  53.3479881  22.6436877  31.3317394  53.8221979  21.8232536
  31.2691307  54.0187168  23.3227348  97.6028824 102.1371460  86.3333893
  97.3154831 102.8643131  86.8855286  97.7518368 101.4162064  86.9451714
  50.3750515  42.4823713  24.8667288  50.7489109  43.3615780  24.8079467
  50.8968735  42.0446873  25.5393124  23.2979703  61.1645079  10.0712931
  23.4939528  61.8253803   9.4071621  24.1083145  61.0826349  10.5741560
  32.0757556   6.6859281  89.4072056  31.4025140   7.3433471  89.2317677
  31.6346169   6.0292482  89.9460888 114.0500927  84.8303986  90.1237869
 114.8732185  84.5265770  89.7412014 114.3104458  85.5166435  90.7382107
 109.5364380  81.2060261  66.6148663 109.0504932  81.0770035  67.4293852
 108.9146996  80.9727001  65.9255028  58.7037659  52.1904659  15.6811678
  58.5481596  51.2460232  15.6880879  58.8898516  52.4092436  16.5942621
  85.3825378 104.4171619  79.8773861  84.6684742 105.0265121  80.0646114
  86.1348724 104.9793434  79.6925211  13.1788778 102.0198441  67.6337528
  13.3102787 102.8974056  67.2747898  14.0628135 101.6650200  67.7285337
  26.0509539  16.7213166  67.9475594  25.3672981  16.0514283  67.9574442
  25.6789708  17.4355459  67.4301291  53.4167910   0.8789887  94.0646553
  54.0578890   0.3883794  94.5789814  52.5947332   0.7742801  94.5437050
 114.4100380  92.9403400  58.8657475 114.9851036  93.4270287  59.4562244
 114.2355156  93.5477257  58.1468201  15.9641314  15.4448330  54.3149757
  15.5653322  16.0100520  54.9765778  16.6587901  14.9815309  54.7829819
  92.7998066  95.5380917  68.9564848  93.6087894  96.0353661  69.0768337
  92.8727055  95.1717472  68.0751753  34.2856026  26.6419172  55.0939608
  33.4906530  26.5455031  54.5695639  34.0067339  26.4496994  55.9892368
  38.7184620  30.4786968  65.1728487  39.2006254  31.2204504  64.8074007
  39.3510246  29.7603083  65.1766586  13.3325469  16.3282061  87.6187992
  13.6691606  16.7108190  88.4290695  14.0615249  16.3939738  87.0019531
 105.2563381  32.4000049  11.9113445 104.6648026  32.4590921  11.1611211
 105.8070946  33.1799841  11.8441057   3.6380261  82.9550457  83.4847736
   4.2303485  82.4768639  84.0650558   3.6714604  83.8582802  83.7998772
  34.2406154  41.2334633   4.7101328  34.3535781  42.1835423   4.7387695
  34.7900558  40.9053707   5.4219639  94.9771404  48.2817125   1.9807364
  95.2385330  48.2249355   1.0616723  95.6075478  48.8863897   2.3721291
  95.2757072  70.1839352  55.2134132  95.4733658  69.4089890  54.6874619
  94.9962616  70.8411026  54.5760155  36.1218882  35.3727365  68.4069109
  36.5566206  35.6762862  69.2038393  35.5993080  36.1213040  68.1191730
 101.9439316  13.0074370  58.6166286 102.2130680  12.1675253  58.2446861
 101.2407875  13.3096600  58.0417538  53.8049412  71.3980627   9.1534579
  53.9574480  71.9455862   9.9236482  53.0769587  70.8293819   9.4042110
 101.9207096  35.7417631  60.4185247 101.8399811  36.6954994  60.4286718
 101.5714931  35.4628158  61.2649679  42.4075937  82.8469372  17.3639071
  42.0743990  83.6563778  17.7512228  43.3498812  82.8719330  17.5303626
   4.3837270  69.1313219  92.5110245   5.2446461  68.8763809  92.8427601
   4.5333210  69.9714279  92.0773506  97.6760292  57.4722767  71.3617563
  98.3008575  56.7757654  71.1600113  97.9031277  57.7479267  72.2498322
  14.5260072 108.9888763  77.0788527  15.4184532 108.9120483  76.7414093
  14.0254462 108.3419514  76.5817070  86.1281872  42.8417969   3.1199542
  86.8136692  43.3863878   3.5069492  86.3869095  42.7465343   2.2033194
  24.0715885 102.3418999  63.4210253  23.6281180 101.6699982  63.9388275
  23.3612800 102.8532219  63.0334234  29.5184088   4.1514844  74.8038054
  29.7335863   4.9380088  75.3051138  29.1192579   3.5616040  75.4432964
  24.9851966  88.1726074  57.8051615  24.3522978  87.4642944  57.9233599
  24.5888853  88.7400627  57.1439838 101.6331959  95.1939487  55.5728197
 102.3588085  95.6394005  55.1354551 101.1735821  94.7366047  54.8686790
 114.1861629  90.3030586  75.8234119 113.7543011  90.8113098  76.5100002
 115.0966835  90.2369022  76.1111879  32.4312639  17.8145945   9.5304453
  32.7191854  17.2031212  10.2082598  33.2058477  18.3440101   9.3407828
 116.0773563   4.5979339  50.5625772 115.7775402   4.0599823  49.8298073
 115.5082893   5.3673667  50.5434132 108.7839317  63.5797930  56.7436552
 108.1620789  62.9586124  56.3646269 108.2594395  64.3573904  56.9346523
  53.6466169  72.9331636   0.4349232  53.7582874  73.4287024   1.2462216
  53.8298988  72.0264530   0.6809230   5.6784111   0.1692205  53.1401300
   5.3698653  -0.3899830  52.4271631   5.5407494   1.0612995  52.8215790
  34.7178912  29.4931865   9.5744938  34.2073870  30.2630162   9.3235362
  35.4499984  29.8457837  10.0803852  55.7067060 100.4406261  76.4427233
  56.2069130 101.2345982  76.6315031  55.2867889 100.2188206  77.2738123
  31.4385200   0.5245552  64.6907091  32.2955871   0.1589942  64.9098730
  30.9214759  -0.2298494  64.4082689  31.2846994   5.8661652  38.3491230
  31.0892200   5.5995172  39.2474079  30.7094312   6.6146725  38.1909037
   4.0538678  95.4172039  80.8552456   4.4107687  95.8133793  80.0603199
   3.1608933  95.1670647  80.6180573  42.3906851  19.9978089  79.9607229
  42.5107193  19.9420309  79.0127182  41.5841866  19.5105326  80.1291084
  92.4683380  71.0936260  32.0575023  92.4021053  71.8835163  32.5940824
  93.4070778  70.9860516  31.9044638  43.9375401  20.2261806   4.4855341
  43.4224558  21.0157919   4.6511579  44.8315048  20.4682851   4.7272769
  53.7619448  27.5707626   6.1709356  53.4595537  27.9770041   5.3586805
  54.4684982  28.1404328   6.4750636  83.0161667  90.0662804  31.7827463
  82.8195572  90.7028961  31.0955071  83.9690018  89.9774837  31.7614889
  16.8285322  92.6196671  43.8732624  17.6604187  92.4244976  44.3046665
  16.1853528  92.6198387  44.5821714  37.5074577 100.5078411  78.9556885
  37.3494887 100.5886459  79.8962975  36.6870761 100.7883453  78.5500765
  28.1888890  37.8841877  74.5304155  28.6887813  38.6647606  74.2915678
  27.3747110  37.9596186  74.0327644 102.3233986  23.2916832  13.8058722
 101.3769245  23.2227850  13.6806273 102.6186371  22.3863792  13.9032972
  20.6421614  26.1376524  92.5562096  21.3035393  26.2908483  93.2310009
  20.0218129  26.8590975  92.6606941  52.3221254  49.7278500  23.1947827
  51.8969488  50.5253029  22.8793073  51.9113827  49.0231800  22.6938152
  66.2901926  77.9964161  21.4167881  66.1276340  78.4807253  20.6073141
  65.6914091  78.3864594  22.0536208  76.7019653  59.9586391   5.8032238
  76.9799566  59.1121578   5.4533368  75.7647753  59.8538637   5.9673333
  11.9852805  97.5603771  81.4282799  11.4746273  97.4809647  80.6225777
  12.8531635  97.8382587  81.1353779  85.1893234  39.9127340   8.5822773
  85.6615162  40.7369518   8.7003022  85.6673050  39.4602633   7.8872710
  69.8480797  67.9516411   7.0431894  69.9082804  68.8792133   6.8146795
  70.4868126  67.8363466   7.7467227  87.7550411  91.0907841  12.1397388
  87.0715046  91.3980770  11.5442717  87.9340076  91.8410969  12.7065206
  62.2405434  38.2633328  18.8708091  62.9812384  37.8793573  19.3400264
  62.0768213  37.6594090  18.1464446  68.9791918  66.8066788  10.1764178
  69.8578691  66.7761803   9.7979635  68.5959673  65.9564161   9.9609590
  66.0360098  33.1453323   2.6415572  65.4784441  33.9166379   2.5393531
  65.7253027  32.7301002   3.4460914  53.2252645  65.8836603  16.2771630
  54.1249371  65.6172943  16.4665627  53.1170654  65.7135534  15.3414345
  88.6186123  66.7553139  28.7978482  88.0985641  66.3920403  29.5146537
  88.0776787  66.6241980  28.0191112  36.1044812   8.3470893  88.3550644
  36.8633461   8.9111412  88.2060719  36.4741731   7.4699736  88.4562016
 109.2095757 104.9163246  86.3109207 109.6241760 105.7784462  86.2778378
 109.9310970 104.2988205  86.1912346  48.2509089  14.8101008  87.0487785
  47.8033590  15.6144476  86.7861843  47.8530455  14.1273463  86.5086079
   9.0143597  90.3833103  53.0080557   8.0631292  90.3189373  52.9229164
   9.2341322  89.7698307  53.7091827  24.6804595   0.2779215  42.5571203
  23.7888193   0.5720860  42.7433300  24.7303414  -0.5957594  42.9449701
 105.5373383 101.6746712  83.1338215 105.4200935 102.2129536  83.9165974
 104.8685169 100.9940147  83.2088280  15.7424748 107.7875805  64.9328709
  15.3743088 106.9456387  64.6648836  15.0508988 108.1967354  65.4530096
  27.3979282  85.9637451  87.9156113  27.2366762  85.1795197  88.4402275
  26.6387987  86.5228367  88.0810452  73.3456039  77.8583813  85.8197498
  72.9939032  78.2631826  86.6126347  73.5850334  76.9717312  86.0894775
  60.5285501  19.4671166  12.7606964  59.7930479  19.9276292  12.3567259
  60.7955980  18.8216770  12.1062291  90.2098465  39.7009897   2.1461147
  91.0424137  39.8696136   2.5872847  90.3966522  39.8458171   1.2185584
  68.5026789  18.5003102  21.2573481  69.2562103  19.0730917  21.1147237
  68.8012171  17.6364803  20.9729052   9.2290342  61.6327429  15.5668175
   8.8724226  60.8540726  15.9942889  10.1271307  61.3913965  15.3400886
  93.1658459  95.3630161  94.0684319  92.2952271  95.3753376  94.4660568
  93.0646610  94.8192787  93.2871819  54.5987558  87.8701591  65.2762985
  55.2124786  88.4271431  65.7552004  55.0300646  87.0165157  65.2376699
  93.7385464  80.5139065  69.7885561  93.4287453  81.4194393  69.8046350
  93.0350304  80.0127220  70.2010107  17.5842047  23.6735368  76.3580847
  17.5859380  24.5842314  76.6528130  18.1865108  23.2278681  76.9537687
 100.5425930  41.0715151  78.8350201 100.3781986  41.8623972  78.3214855
  99.8056412  41.0238838  79.4440174  44.9845409 100.5806637  75.3645134
  44.1400862 100.3285789  75.7381201  45.2171850  99.8540688  74.7864437
  97.4205494 104.7280121  90.6014729  97.5256729 105.0158596  91.5083027
  96.5710640 104.2870998  90.5870914  49.5258284  15.7058406  83.7014675
  50.0466013  14.9873745  84.0604019  49.2637968  15.4010117  82.8327560
  43.5794973  10.3758717  67.3741245  44.3434715   9.8255867  67.5466442
  43.2645893  10.0867915  66.5176773  58.2626820  33.6587143  60.1148844
  57.7925825  32.8520489  60.3259087  58.8312149  33.4200668  59.3827343
  47.0769358  26.7010117  76.6910505  46.9323683  25.9105301  77.2111225
  47.4822474  27.3178792  77.3005009  90.8645344  84.8875904  25.6352568
  90.2459908  84.2425537  25.9781408  91.4759159  85.0397968  26.3558674
  41.8992853  18.4948230  93.6188793  41.9046736  19.2827070  94.1624260
  42.8143787  18.2152152  93.5933208  43.3298397  36.2805390  85.1280785
  42.5458574  35.9850597  85.5910015  43.0429411  37.0519257  84.6393204
  45.7660675  34.9865246  76.8336439  46.2105608  35.3676558  76.0764122
  44.8919630  34.7656274  76.5121269  85.8913803  63.0833769   3.4910265
  85.7806015  62.2998905   2.9524061  86.8238449  63.0957603   3.7068740
  76.2310648  75.8544302  29.4576001  76.4622879  75.5342770  28.5856628
  75.9788990  75.0684547  29.9422503 101.4268875 101.7590904  84.4907188
 101.7938614 101.0649395  83.9432526 100.8420658 101.3029575  85.0958252
  91.9394016 106.6837502  62.8647757  91.1592007 107.0639515  62.4610806
  91.6277027 106.3219357  63.6943340   1.2220767  68.5598469  88.2674026
   2.1438947  68.7695789  88.1174183   0.7930961  69.4115114  88.3503437
 107.1966743  72.6523256   9.7823340 107.8522110  72.0153475  10.0665092
 107.7056408  73.3581686   9.3836278 111.3696957 103.5225391  19.5439899
 111.9623470 102.8494549  19.8785770 111.6135597 103.6203384  18.6235559
  36.9978404   9.3368477  50.2741909  36.1699772   8.8834673  50.4333115
  36.8928480  10.1853168  50.7046652  30.6983161  30.0110650  79.0023994
  30.7983851  30.1333308  78.0583286  29.7861433  29.7432065  79.1138649
  43.9345407   9.3411249  64.1381598  43.6171484   8.8694704  63.3680677
  44.6065426   8.7692696  64.5091438  46.1758804  30.8582902  85.4901123
  46.0883713  30.0998330  84.9127769  46.8925238  30.6278372  86.0813332
  31.2329030  25.5476952  84.0838337  31.5931511  25.4913092  83.1988144
  31.6570067  26.3157296  84.4665813   4.2720920  18.5329115  50.3344631
   4.7851887  18.3422947  51.1197186   3.7818950  19.3249178  50.5550623
 113.0427456 108.1469059  71.8905020 113.0665302 107.6693058  71.0613060
 113.7347794 108.8031483  71.8088579 108.1300449 105.3147602  62.3182487
 108.1460285 104.4547367  62.7381659 108.0667782 105.1232910  61.3825321
  49.1941261   8.3085930  68.0741262  49.2397022   8.4865427  69.0135336
  50.1043892   8.3408165  67.7798128  37.2308755  38.8287950  61.1425447
  38.1467986  39.0991449  61.0775280  37.2626376  37.9787135  61.5813875
  99.2899418  85.8098221   9.9685407 100.1076412  86.2555313  10.1897526
  98.6398220  86.1973190  10.5545628  86.7284870  74.5644665  25.0738263
  85.9356022  75.0684357  24.8905587  86.6242027  74.2751169  25.9802675
   7.2001499  98.0515099  91.8943882   6.4660418  98.6100197  92.1500778
   7.0292181  97.8360939  90.9775448  70.7568359  28.2293153  10.6698668
  71.1519146  27.7184677  11.3763940  70.9822845  27.7498746   9.8726577
  50.3008699  12.3759806  93.0818462  50.7147598  11.5190017  92.9793262
  50.0031662  12.6050448  92.2014332  15.5304277 103.3699131  53.8926411
  14.6943367 103.7855721  53.6819029  15.6101131 103.4600830  54.8422480
  50.7816553  30.8252788  61.3013649  49.8748064  30.9222174  61.0107565
  50.7189178  30.3404927  62.1243334  45.2258062  29.7935271  70.5836344
  44.3252611  29.7563052  70.9059191  45.5259085  28.8848615  70.6058884
  43.7905121  97.9635429  36.0463905  43.3164883  97.4462318  36.6974831
  44.6811008  97.6131725  36.0642719 101.2657547  71.1122084  20.2820134
 101.2317467  70.6512451  19.4438076 100.4634380  70.8489895  20.7328296
  35.6141925   8.2715702  85.5420589  36.1425161   7.5996196  85.1112556
  35.8261061   8.1835896  86.4713478  74.9776888  51.0646105  26.9931817
  74.2162943  51.6388178  27.0756388  75.5800915  51.5456152  26.4257526
  71.2419939  59.6468544   5.6962889  70.9049511  59.0659237   5.0142670
  71.1968374  60.5214071   5.3098321  48.8147640   6.8965888  93.4675026
  49.5862675   6.3351476  93.3913708  48.7611389   7.3456377  92.6238728
  53.6503410   5.8621883  86.7736149  53.6429930   5.5684811  85.8626175
  54.5726204   6.0360318  86.9617844  91.2699413  73.5286379  16.5569329
  90.5734158  73.5801315  15.9023786  91.7018986  74.3817854  16.5146506
   6.1775756  85.0646687  24.5400882   5.8275217  84.3817711  23.9679480
   6.1114824  84.6961880  25.4210448  18.7549031  97.3855782  90.5527782
  18.5676908  97.6694870  91.4475250  18.5625505  96.4479065  90.5538273
  15.6473398 100.3434372  86.4887142  15.5852175 100.8269119  87.3125076
  16.5707076 100.0999165  86.4229679  92.1919918  43.2642889   4.3970206
  92.7101994  43.7344885   3.7438694  92.8106308  42.6554585   4.8005572
  28.2020211  28.9808655  78.7640905  28.2101417  28.7859797  79.7012091
  27.4685788  29.5855355  78.6515522  33.1516719  12.0174062  86.5382671
  32.6680994  12.6054204  85.9580708  33.8114953  12.5758207  86.9494152
 115.9289480  31.6635561  78.3400631 116.0942365  32.3251677  79.0117645
 115.3166297  32.0833993  77.7358866  61.4792585  35.9911609  72.3812103
  60.7518578  36.5638924  72.1380997  62.2391605  36.5719891  72.4189234
 104.9462032 101.8855476  78.8445425 104.6869278 102.2566128  79.6879387
 105.8704662 102.1177006  78.7547064  87.4030685  80.7135201   2.1490255
  86.6074467  80.9222412   2.6385802  87.9048729  80.1489258   2.7369505
  96.4804649  31.1356187  15.6331503  97.0325851  31.2656236  16.4041853
  96.3992500  32.0076680  15.2469277  46.7692327  74.9411821  12.7265716
  46.8839884  74.8450994  11.7811441  47.2924280  74.2342663  13.1044149
  32.0137286 105.2539349  86.2543488  31.9545293 104.2996025  86.2098598
  32.5260615 105.4983139  85.4836178  38.2044482   2.7508783  58.1688786
  37.8095698   2.5916803  59.0261745  37.7245784   3.5019928  57.8199005
  84.3024540  63.7099075  20.4420185  84.4256401  62.7625084  20.5011177
  85.1259613  64.0363503  20.0793815 106.0859966  96.8103886  75.5907202
 105.8486652  96.3093853  74.8104000 106.3495541  96.1481094  76.2295866
  88.5026646  98.3115482  60.9689045  88.7819195  99.2268467  60.9905863
  88.8769054  97.9281044  61.7620945  62.7597284  33.5445642  71.3717318
  62.2355366  34.0441036  71.9977665  62.1804714  33.4199190  70.6199646
  84.5125198  69.1553211   3.2476139  83.7009335  69.6593618   3.1883273
  84.3592644  68.5378218   3.9627635  46.1479998  17.3422325  62.1444464
  46.5639973  18.1912386  61.9948959  45.2673674  17.5577748  62.4514627
  35.1618147  16.3178408  33.6479664  34.6284080  17.0771885  33.8827038
  35.4118872  15.9320521  34.4875264  39.7562075  45.0835466  59.7589397
  39.1631889  45.4345989  60.4232597  39.1794634  44.6626139  59.1214323
  82.3462391  88.4319592   1.1719420  83.0393887  87.7842522   1.0444637
  81.9234943  88.5019779   0.3160124  34.0584779  25.0976920  62.2717381
  34.5580792  25.4569840  63.0049086  33.7064433  25.8660579  61.8223858
  65.8664560  22.5807762  93.4903431  65.3690958  21.9752073  92.9406643
  65.2515936  22.8421474  94.1758060  27.9471111  39.3695736  85.6734276
  28.1119990  39.1486597  86.5900707  28.8149071  39.3795371  85.2696133
  29.0927982 106.8525791  79.7349787  28.6877227 106.9087505  80.6004238
  29.8969126 107.3659229  79.8131275  76.7132425 106.5959358  86.5536880
  76.8138313 106.9336796  87.4436569  76.8139696 105.6483746  86.6442966
  37.1789598  11.5028858  71.0266018  37.7938247  10.7768154  71.1314487
  36.6310334  11.4678586  71.8106842  33.9295769  15.7861555  75.9615803
  33.0659318  15.3920877  75.8388805  33.9562511  16.5058172  75.3310204
   0.8969957  76.5742779  14.3025804   0.0257920  76.5611649  13.9062679
   0.7703488  77.0107174  15.1450253  23.1167388  23.0342984  75.1931810
  24.0139174  22.7885461  75.4188204  22.7363968  23.3360648  76.0181141
  47.2198009  32.6454306  77.6907587  48.0992270  32.6438284  77.3128176
  46.9438887  33.5611582  77.6514673  70.8444214  47.1628141  24.4522357
  71.2858677  47.2157001  25.2999139  71.5559196  47.0958662  23.8154292
  51.7936325   9.8452389  88.5252857  51.3657856  10.0969958  89.3437004
  52.2954416   9.0613180  88.7486362   1.0877246 101.8083572  75.7612133
   1.1373018 100.9128094  75.4268932   1.8630403 101.9005680  76.3149405
  42.5222826   1.6201639  93.7574100  42.8925180   0.7378301  93.7320518
  42.8542852   2.0420833  92.9649544  22.0915818   7.6373667  47.9795647
  21.8740439   7.6644325  48.9113283  21.5645576   6.9181776  47.6313639
   2.3975615  93.4144115  77.1802139   3.0533767  93.0360603  76.5945625
   2.1285596  94.2245197  76.7470980  35.9497356  56.4802647  27.1672416
  35.9392047  56.2463284  26.2391281  35.5073500  57.3282385  27.2055411
  35.1816630 105.8633423  80.5894184  35.5657840 106.2394619  81.3813877
  35.0979257 106.6039467  79.9888277  92.7460384  88.7487507  22.0044231
  92.0641804  88.2509518  22.4555182  93.4097958  88.0966473  21.7798829
  56.7955494  35.7424736  80.3906441  56.1579084  36.4181304  80.1601315
  56.5746450  35.5016303  81.2903309  73.4731722 107.1965218   0.4946277
  73.7975216 107.9600811   0.0171277  74.2393541 106.8625641   0.9611802
  66.6463041  73.4221125   4.6059507  67.2757339  73.8579559   5.1804864
  66.4583874  72.5914621   5.0429153   1.5492332  40.6222630  77.4699926
   1.1385323  40.9429884  78.2729197   1.1373109  41.1300564  76.7709255
   7.5904208  58.8255167  13.5207069   6.6732872  58.6354446  13.7181115
   8.0278432  58.8050508  14.3718672 104.4964123  56.2408638  66.0392904
 103.6555386  55.9000492  65.7343292 104.5328617  57.1327877  65.6937838
  76.6926527 102.6220798  59.5825100  77.0583057 101.7459583  59.4602919
  75.9505606 102.4916840  60.1728773  85.0957966  81.1291122   3.5374609
  85.4907227  81.9987869   3.4746858  84.9348068  81.0061359   4.4729757
  27.4801421   8.4374166  70.2051258  26.8687820   7.7266055  70.0122118
  26.9904041   9.0249926  70.7805777  20.6188178  95.6921005  72.4922132
  20.3651810  94.8746681  72.9208088  19.8595679  96.2648773  72.6003981
  58.8864803  30.0819659  72.8656006  59.0903091  29.2607450  73.3131313
  57.9327822  30.1495266  72.9116631  84.0176487  43.2647467   5.1072723
  84.3229008  43.8562679   5.7951367  83.1942558  42.9109859   5.4435849
  22.7674341  26.2338734  68.7506914  22.3935485  25.3786111  68.9627457
  22.8488135  26.2298870  67.7969646  41.9539642  27.6839995  43.6513138
  42.0162535  27.1363020  42.8687668  42.3798323  28.5047221  43.4037590
  93.2523060  95.9407425   7.2535199  94.1156483  95.9124184   7.6659203
  92.9575920  95.0300407   7.2520077 109.4536781  86.7603493  12.6013863
 109.9940586  86.8550873  13.3857596 108.9681721  85.9474468  12.7417707
  25.5482745  25.8965397  76.0631275  25.1762509  26.1268950  75.2117968
  25.2651644  26.6005325  76.6466284  73.5261488  52.7650023   5.3243464
  74.3296957  53.1377268   4.9615601  73.6487484  51.8182135   5.2551150
  94.2478371  77.1756744  16.6551661  95.1683140  77.0070314  16.8564713
  94.2110348  78.1142473  16.4708674   2.2497049  70.6090212  65.1655054
   3.1979373  70.6420469  65.0390291   1.9111362  71.3239288  64.6265173
  28.7372565  24.0395975  91.7505074  28.9420891  24.8611093  92.1970463
  28.4881496  23.4402347  92.4540329  68.9082003  41.1918211   2.3561081
  68.0844831  41.6738558   2.2828674  68.6422682  40.2839088   2.5017476
  95.5481434  64.5480728  21.3210344  96.2148952  65.2342892  21.2932110
  95.1820755  64.6054506  22.2036076  48.3662415  23.9849019  58.3237839
  48.2393694  24.1464376  59.2586851  48.5028982  24.8541141  57.9469204
  20.0596547   4.1710424  61.5653229  20.8173656   4.5676890  61.1354637
  20.2138758   4.3109494  62.4996042  26.9178057  50.8942890  26.4547634
  26.7629838  51.5409279  27.1433258  26.7287874  50.0526619  26.8696904
   5.2020121  98.7794685  87.0486641   5.7714391  98.4683704  86.3449669
   5.7274711  99.4324684  87.5109673  39.4258308   5.6446517  39.5527291
  39.1640401   6.4858240  39.9270654  40.0673294   5.8713716  38.8794470
  26.3217115 100.9037685  45.2792740  27.1297097 100.4163074  45.1187897
  26.5257978 101.8001461  45.0126648  16.6754663   7.5126296  76.3040924
  17.3431742   8.0274987  75.8509827  16.2244594   8.1447691  76.8637562
   8.1939143 106.2366199  57.7947187   7.6380157 106.8267345  57.2858286
   8.8392240 105.9136772  57.1658182  36.6201019  12.5176990  65.5512142
  35.7372427  12.8803706  65.6237507  36.5330434  11.7988276  64.9252129
  48.4392166  -0.0736977  77.2838068  48.4840107   0.6169719  77.9450178
  47.5900555  -0.4905597  77.4300337  79.0001869   9.6653706  18.2079089
  79.7479916   9.7360271  18.8012302  78.9403486   8.7311554  18.0081761
  19.2598486 105.7216835  88.1896210  18.5631716 105.0783062  88.0594444
  20.0691366 105.2298737  88.0503082  40.6146145   3.9028111  64.6074867
  40.7018328   4.3009406  63.7413931  39.9940157   4.4668329  65.0689697
  70.7099819  26.7336655  75.3530121  70.1504278  26.6217971  76.1215258
  70.1377821  26.5415049  74.6101093  61.8624735  86.5623856  10.6478429
  61.8064594  85.9559536  11.3863134  61.4945459  87.3806572  10.9814429
  64.0572262  10.8878660  72.6899242  64.4878721  10.1091623  73.0426216
  63.2386351  10.9523773  73.1818342  49.5712137  16.3132811  56.3423157
  49.8478889  16.9872332  55.7214499  49.6986389  15.4886782  55.8732462
  58.1567669  11.9197536  67.7676249  58.2552719  10.9706223  67.8429842
  59.0508795  12.2579837  67.8165436  64.5638180  79.4492674   6.2105495
  63.9228106  79.9471760   5.7031751  65.3722906  79.5112848   5.7018644
  71.3984442  96.9003963   8.5844225  72.3052597  97.2034740   8.5389900
  71.4229012  96.0160160   8.2190514  57.4011040  36.3184690  75.5712986
  56.8823576  36.3335252  76.3756037  58.3087444  36.3714314  75.8706570
  17.5540841   1.9777614  76.5423870  16.8630838   2.4102433  77.0440912
  17.1360314   1.7396811  75.7148695  71.5407658 105.7352543  30.4638934
  70.9513378 105.3804779  31.1294317  70.9671926 106.2180805  29.8688173
  88.1081486  75.1037788   6.4015180  87.6851368  74.5785093   7.0807755
  87.3838520  75.5248213   5.9385413  43.2913017  25.4871941  92.3662186
  42.3635912  25.2530551  92.3385525  43.3730030  26.0517907  93.1348515
  41.9781590  18.1173658  74.8286247  41.8577766  17.3683000  74.2449808
  41.1479616  18.5917115  74.7838783  13.8108718 104.1577721  83.4926796
  14.6225333 103.9200211  83.0444431  13.8318479 103.6566448  84.3079472
   0.9064814  94.3599987  26.4974904   1.0507442  94.4476223  25.5552912
   0.6519549  95.2373219  26.7834306  93.4297752  75.4854107  23.3381796
  94.3260670  75.1864862  23.1847501  93.4905243  76.0326099  24.1211963
  67.0615959  26.3098645  89.4975758  66.4075994  26.3523340  90.1952267
  67.8908300  26.5040660  89.9344826 104.8944378 103.5928631  81.2211514
 104.0987301 103.8631821  81.6794109 105.1953602 102.8201103  81.6992092
  21.5430021 103.4870529  91.7170715  21.4731979 104.2995644  91.2158966
  22.4841380 103.3235264  91.7783165  28.2693243  13.4152615  75.3383398
  29.0596342  13.4615779  74.8002911  27.5654030  13.2357693  74.7150326
  64.6157598   4.7480774  78.7793922  64.3278694   5.6558824  78.8755131
  65.2243376   4.7667381  78.0408001   8.5054761  34.7347760  72.4884605
   9.4604373  34.7539639  72.4259090   8.2163531  35.4856396  71.9699621
  39.1386390  17.3586607  37.9805589  38.3549428  17.7173293  37.5641370
  38.9856219  16.4140999  38.0055237  50.3655481  65.2214193  -0.1522176
  50.2894592  65.2816391   0.8000511  50.1011372  64.3246317  -0.3573847
   9.4790828 107.3133183  89.6312237  10.0643897 107.6486778  88.9521217
  10.0276804 107.2564507  90.4135513  93.5877800  99.0802288  77.2936964
  94.4401360  99.5102024  77.3633432  93.0860043  99.6380138  76.6992807
  63.0555916   5.3724611  71.0515976  62.7455282   4.5830575  71.4953661
  62.2574139   5.8532608  70.8325577  89.6010780  93.4971523  73.7709618
  89.8584270  93.5761642  74.6895266  88.8449669  92.9103279  73.7836885
  11.2823784  88.3729935  90.0563049  11.4170861  88.5829067  90.9804440
  12.1090555  88.6073303  89.6344948  29.3024206  64.6927309  69.6842909
  28.5139656  64.2748404  69.3379688  29.7365284  64.0045071  70.1884079
  25.8809972 100.6978703  38.3419752  24.9765801 100.9530926  38.1599855
  26.1286092 101.2207890  39.1045237  86.0918522  48.0561352   1.6940850
  86.8166542  48.5548115   1.3169631  86.1997128  48.1550026   2.6400363
  95.5362892   5.7124847  94.5423412  95.1106548   5.1851106  93.8663769
  94.8894119   5.7677591  95.2457047   1.7138760  72.6277828  37.6642704
   2.3228282  72.7023602  38.3990145   0.8847316  72.9630089  38.0054069
  80.3838062  81.7682552  31.3491750  80.6595039  82.6843739  31.3182807
  79.7094631  81.7438316  32.0280647  46.0676575  24.2675614  81.0743237
  45.3484869  24.8280263  80.7829380  46.5009928  23.9942002  80.2657890
  37.5582886  91.3666916  26.3017273  37.2254157  90.9791279  27.1111822
  38.4998798  91.4563942  26.4486623  49.6000862  18.3894348  90.2075481
  50.1659346  17.8405035  90.7504272  50.0923395  18.5116923  89.3957806
   4.3783447  49.6523428  26.4434075   3.6331379  49.9706411  26.9529009
   5.0037050  49.3453979  27.0998693  85.7769012  61.0776281   1.6877517
  85.0980377  60.4781818   1.3778581  86.5998650  60.6321383   1.4864919
  97.3445225  67.2145224  10.1025033  98.2587242  67.4580812  10.2479506
  96.9646549  67.9684639   9.6513909  16.3545823   9.6010619  60.0473070
  16.3680458  10.0699031  60.8817148  17.2039592   9.1616756  60.0057268
 112.4794006 102.8448868  41.8127823 113.0980778 102.1652508  41.5452719
 111.6430950 102.3871899  41.8984604  97.8206444  71.4857149  43.2321262
  98.7736416  71.5716219  43.2067728  97.5296307  72.2091961  43.7872076
  77.5681400  65.8557081  11.4203799  77.9140043  66.6936064  11.1129117
  76.8484163  65.6591320  10.8207238  13.1301165 109.0055084  81.6293716
  13.1798029 108.3959007  82.3656750  13.6739993 108.6059952  80.9505367
  67.4879742  61.8351030  31.1187530  68.1991959  61.8079138  30.4787111
  67.3301268  60.9174299  31.3405347  40.9189415  55.6444979   4.2692265
  40.1638794  55.7064819   3.6841866  40.5821037  55.2033949   5.0490952
  53.2578230  28.3916712  14.8908758  53.5168362  28.7909102  14.0603638
  53.9437675  27.7490807  15.0719500  33.9232492  89.8458767  11.0807598
  33.2415891  89.5368195  10.4840541  33.6507392  89.5273018  11.9412732
 107.1018219 104.2317009  69.1259003 107.4705124 104.3936348  69.9942780
 107.7428532 103.6662006  68.6951780  24.0491152  26.7877221  49.8294640
  23.7913108  26.8202853  48.9082098  24.4095659  27.6562715  50.0081539
  91.1430836  54.2503452   4.0007296  90.5445957  54.0576744   3.2789746
  90.5790329  54.5904684   4.6952844  98.8068199 104.4783783  71.7736292
  98.8461876 105.3070545  71.2961531  97.9493523 104.1149902  71.5524244
  57.4638653  21.3161564  79.6620512  57.5069618  21.7697120  80.5038738
  57.2910643  20.4028511  79.8906326  33.0386543  34.1089082  67.9056644
  33.3870149  34.6068239  68.6452341  33.7219095  33.4694886  67.7043247
  48.1577444  20.1110625  56.6729116  47.6765490  19.7339797  55.9363747
  48.1948423  19.4070435  57.3203754  27.5792074  92.8296661  80.6167698
  27.3368478  91.9347191  80.8545971  28.1833124  92.7268314  79.8814392
  99.3354416  57.4573946   6.4366293  98.8821316  56.8404341   7.0111763
  98.6466599  57.8108358   5.8737004  98.9322853  87.0930767  66.6462803
  98.5516644  87.9684639  66.7174292  99.8549080  87.2141075  66.8706846
  26.7342901   8.2109576  83.2405090  27.1977377   9.0004343  82.9609108
  27.4283314   7.6053035  83.5007477  76.4503479 100.2305984  12.4828470
  76.7696810 100.0360203  11.6017127  77.1784210  99.9967003  13.0585480
  49.1915321  46.3125038  34.5889115  48.8521481  47.2074509  34.5779085
  49.4361973  46.1603355  35.5017185  83.2613087   0.6038620  64.1644049
  83.2703590   1.0341629  65.0193834  82.8553200  -0.2472242  64.3288946
  80.9811020  60.4765272  30.3313589  81.0588551  60.0109243  31.1640644
  81.8189144  60.9283209  30.2304316  20.3836894   8.4803241  87.1784878
  21.0735679   8.3371222  87.8264046  20.0917053   7.6002192  86.9410229
  49.7549009   5.5838346  60.9331036  48.9759445   6.0016841  60.5658627
  50.2414942   5.2717471  60.1701736 113.8557243 101.2916851  64.7267532
 114.2382431 100.8446407  65.4817772 113.7356472 102.1952534  65.0189352
  40.6297064  96.4051342  53.1010294  40.2152252  96.8458939  53.8427687
  40.0490093  96.5837002  52.3613453  60.1744604 108.1095791  79.0736198
  60.1454830 108.6523724  78.2857323  59.2553902 107.9589653  79.2946482
  78.2735682  74.0318155   2.2538194  79.0992689  74.1590977   1.7866512
  77.6601362  74.6266460   1.8224140  46.0196352  23.8644528  78.1699657
  46.4445353  23.1542492  77.6890278  45.0961876  23.6143208  78.2001829
  32.3733735  25.1911044  76.3558578  31.6135716  24.8042011  76.7908716
  32.5327110  26.0060644  76.8319702  38.7102199  17.6879013  76.9724512
  37.9649830  17.0873451  76.9587088  38.9911318  17.7419639  76.0589981
  73.9793682  60.4873991   6.0447848  73.5614252  60.4841423   6.9059145
  73.2576227  60.6130600   5.4287314  89.1720009  84.2808819  84.3087196
  88.6785221  84.8841381  84.8644161  89.8374462  84.8286915  83.8924026
  24.3382716  91.7133999  71.5192604  24.4110537  91.6085911  72.4679136
  24.7104073  92.5778198  71.3445473  41.4641380  22.4857879  91.9084454
  41.4786577  22.2745347  90.9749603  42.3815536  22.4425554  92.1780968
  71.8289566   1.0710532  47.1438026  72.3730469   1.8468674  47.2791338
  72.2778177   0.3766373  47.6260328  44.4708586   7.5878531  39.0627074
  44.3565941   8.1391323  39.8368311  44.0853786   6.7468965  39.3085265
 113.1546402  27.7889562  82.2322464 112.5663757  27.2627401  82.7737904
 112.7375221  28.6495566  82.1920395  59.9342728  12.8267860  89.3676376
  60.0409794  12.0069087  89.8499775  59.4560289  13.3978415  89.9688148
  38.0466104  90.7715225  69.5326757  38.9411569  90.8071613  69.1939306
  37.9591560  91.5642834  70.0619316  46.8387604  30.7488966  58.6337948
  46.2402678  30.2529836  58.0751276  47.7113390  30.4644656  58.3618641
  34.6228313  20.5320477  52.6978922  35.4312134  21.0325813  52.8084087
  33.9468527  21.0767007  53.1011772  95.6313133  86.3099670  24.6364689
  95.7912636  85.9735966  25.5182290  94.7710514  86.7261219  24.6912718
 114.1491604  98.3086491  67.7411032 113.2824802  98.5022736  67.3838854
 114.6946621  99.0420723  67.4569464 100.2106094  82.9078770  29.7182465
 101.1250496  83.0618286  29.4808936 100.0158024  82.0380497  29.3694139
  67.1501112  80.0210762   5.1970720  67.7114773  79.5525217   4.5793706
  67.4357510  80.9326458   5.1363438  27.2470713  26.5168357  79.5770121
  26.8671131  26.8988490  78.7858534  26.7831135  26.9451332  80.2964115
  97.0520496  69.1241169   8.0595374  96.6355896  69.1305876   7.1977079
  97.2389221  70.0449657   8.2421690 114.5698929  95.8912277  65.0139523
 115.0254059  96.1888981  65.8014393 114.4054413  94.9611855  65.1695061
  97.2306919  72.0736837   5.6178558  97.4120522  71.1612034   5.3926408
  97.3269653  72.1091795   6.5695399  36.8470168  32.2846842  60.3356934
  36.9052696  33.1790328  59.9995708  36.8272138  31.7351675  59.5521927
  25.1472688  55.9914732  73.6736250  25.7835221  56.5250063  74.1498137
  24.3634057  56.0064220  74.2227745  73.0151176  86.4451790   1.0053227
  73.9175701  86.7626095   1.0377578  73.0967188  85.4914761   1.0000307
  28.7036109  13.7183702  84.2080498  28.2365513  13.7532198  85.0428391
  28.5965562  12.8146672  83.9112473  51.3209772  34.4182682  70.3352404
  52.1773720  34.3284559  70.7532787  51.4194298  33.9786601  69.4906807
  60.2950239  10.4195309  76.3194895  60.7930994  10.6015396  77.1163750
  59.4107389  10.7303858  76.5134907  76.9251299 101.4711571  18.2473898
  76.7489100 101.1206627  19.1205049  76.7286491 100.7461357  17.6541102
  91.3532352  65.6329250   4.6627963  92.0262623  64.9748421   4.4889984
  90.9953213  65.8430529   3.8002583  68.5371780  34.2011571  47.4330568
  69.0569925  33.6412406  48.0097008  67.6530027  33.8373780  47.4792862
 112.9215908   4.0053537  13.6313045 112.5942993   4.8767948  13.8542545
 113.5691166   4.1613442  12.9438460  42.2017479  26.7140794  76.0357237
  41.5536928  26.0211515  75.9088039  42.5932503  26.8371773  75.1709652
  68.1497860  94.3193054  26.1082721  68.1346798  95.0880527  26.6783953
  67.9405499  93.5869789  26.6880584  63.1321812  40.6092262  71.7682743
  63.2495356  41.4307451  71.2912369  62.7013779  40.8652592  72.5838041
  76.0331011  30.7562804  79.6204567  76.9391680  30.4600859  79.5336103
  75.6290770  30.1210499  80.2116299  80.8806705  71.1508512  30.4268980
  80.2142334  71.8156719  30.6004167  81.6552639  71.6500568  30.1679826
  39.0956831  50.0182629  64.8757505  39.1780663  50.0493383  63.9226055
  38.5287929  49.2652798  65.0427294 105.4777813  74.1177177   1.7683347
 105.9037495  74.7583628   1.1988062 104.9783039  73.5609674   1.1710300
 109.2780590 103.4250641  11.5193915 109.7067547 103.6396313  10.6908894
 108.8982391 102.5583744  11.3751137  41.4254951  39.3411136  58.4387207
  41.8758583  38.6181927  58.0019331  42.0910597  39.7300196  59.0061808
  72.2215366  73.5592365  26.2559319  71.4757156  73.2884169  25.7205415
  72.8164911  72.8097057  26.2344909  11.6333568  28.4798956  46.0626316
  11.0876012  27.7453613  46.3434219  11.3949263  28.6187935  45.1460695
  66.9503593  76.1839533   4.5102566  66.8171215  76.9490623   3.9507115
  66.5482903  75.4615259   4.0278974 113.0047417  89.8633194  12.5620520
 113.8538551  89.9343586  12.1259379 112.3757744  90.1831245  11.9152439
 104.1036701  38.3283377   8.3500481 104.4304848  39.0828991   7.8600931
 103.6878586  38.7074113   9.1244137  96.4415169  75.9938383  17.7744687
  96.9266605  76.7542839  18.0947661  97.1040154  75.4482031  17.3506641
  54.0611649  34.5863223  92.3778725  53.3605194  35.2078652  92.1803474
  54.3251991  34.2437387  91.5239620 113.7423897  68.0641127  12.9187167
 114.6127892  68.3790684  12.6749039 113.7440109  68.0726862  13.8758767
  52.9783392  35.5750489  75.2261305  53.2311964  35.2310276  74.3694305
  53.6427069  35.2359366  75.8260059  46.6726208  31.0261011  75.1288319
  46.4336252  31.5703797  75.8790779  47.0026016  30.2154827  75.5164433
  39.1711473  41.1163521  90.9238529  39.1235065  41.6328669  90.1193810
  40.1078415  41.0449934  91.1075497  59.9379730  25.1435924  89.2842197
  59.2696810  24.4614768  89.3500900  60.6514406  24.7334743  88.7953472
 114.0950680  81.7764664  14.9263906 114.6930885  82.4881268  15.1547194
 113.9948368  81.8432045  13.9767945  91.3526726  20.9295535  72.6429129
  90.8883953  21.4503551  73.2982302  92.0366096  20.4774475  73.1369257
  38.5588980  16.3964534  81.1019611  39.1045761  16.8488526  81.7452335
  38.8181305  15.4776764  81.1718178  82.1428299  91.6244125  10.7730424
  82.0040607  91.7438984   9.8335218  82.9478073  92.1075535  10.9596109
  44.7304535  14.6666181  56.0951519  44.0599680  13.9855790  56.0416222
  45.4282665  14.3618417  55.5151463 104.2608929  96.0988998  17.0946336
 104.0292931  95.8302021  17.9836726 104.6374512  96.9727135  17.1989596
  91.9050598   8.7806058  91.9217014  92.2986698   9.3404162  91.2524414
  92.3537350   7.9405677  91.8254852  37.1833563  12.5756860  90.4127407
  36.5407801  12.2033942  89.8088074  36.8104434  13.4191322  90.6691837
  55.0752020  32.0819402  65.8506966  54.5455980  32.3442698  66.6036510
  54.5903015  31.3560271  65.4580641  52.0963430  43.2316208  66.2034893
  51.7046881  43.4040403  67.0597076  53.0317163  43.3892059  66.3318586
  61.0196590  36.8286657  64.2048120  60.6838083  36.3072538  64.9338961
  61.3669205  37.6200652  64.6163034  32.1005082 103.6372089  28.1567860
  31.3323450 104.1207027  28.4607458  31.9589829 102.7429295  28.4673643
  80.7867813   9.7358942  65.6617308  81.7325497   9.6510077  65.7823706
  80.4228878   9.6317977  66.5409231  22.0722103  48.8666916  71.8520308
  22.5319719  48.3472013  71.1925030  21.4401340  48.2597160  72.2371149
  96.4166641  37.3979163  24.5616817  97.0917702  36.7196512  24.5412183
  96.0675335  37.3615527  25.4521966  45.6143856  49.8057461  70.4771662
  45.4180813  50.6288099  70.0296640  45.2869749  49.1277504  69.8861027
  95.6738567  99.8723888  48.9154053  95.5968094  99.0831470  48.3793211
  95.5045319 100.5922222  48.3076239  68.7421465 104.4604969   7.7569878
  69.5240784 105.0122643   7.7378929  68.6934948 104.0835381   6.8784857
  98.8234615 102.3533535   1.6713855  98.8042450 103.1007862   2.2690563
  97.9071903 102.0890427   1.5888686  53.4546137  40.5405140  93.3467865
  52.8573036  41.2671947  93.5239506  54.2790318  40.8028078  93.7563705
  37.2948718  43.4902477  76.2114429  36.9181061  42.9096746  76.8726635
  36.6829443  43.4455061  75.4767513  77.4175358  80.1150799  19.0757132
  76.5800571  80.3660202  18.6859775  77.1784210  79.6313906  19.8663461
  60.9236813  13.8971305  75.0538874  60.6775379  14.3999195  75.8303213
  60.6715536  14.4545507  74.3177176  56.6734600  39.8532796  51.2995958
  56.0913181  39.0941334  51.3318300  57.4757719  39.5228767  50.8954096
 102.1058846  87.8587341  24.9168706 101.6008663  87.0603466  24.7627425
 102.9579067  87.6841259  24.5171070  85.6198692  33.3423352   4.8037010
  86.5105915  33.5813379   5.0600654  85.3573608  34.0244246   4.1855749
  76.8563700  36.4903331  25.5151534  76.8709087  36.2583899  26.4437127
  76.0276890  36.1359930  25.1927209  19.6888196  45.8975554  85.8423996
  18.9601898  46.5182161  85.8318996  19.2713153  45.0392675  85.9149456
 103.2129574  93.8833618  14.1905332 103.4981728  94.1575146  13.3189130
 103.9535236  94.0897274  14.7608042  82.4956799  23.9396954  63.4519482
  82.0079136  24.7555542  63.5646057  82.4599838  23.5187459  64.3108797
  83.6016655  12.5451386  74.9807215  82.9913998  13.0708528  75.4978609
  84.1189098  12.0698631  75.6309509  96.1037922 101.3803291  53.0465889
  96.1741066 100.8508492  53.8409042  96.7710495 101.0229588  52.4606800
  99.2107201  98.4348965  45.9342718  99.9937820  97.9678917  45.6428146
  99.5295334  99.0457058  46.5987253  42.4970341  37.2113824  76.8982792
  42.5957012  37.7071691  76.0854483  42.3793364  36.3051939  76.6133165
  76.1360979  88.4553909   6.0853821  76.1733723  89.3321037   5.7030112
  75.3580809  88.0568695   5.6953728   0.6327426  71.9522095   0.0194666
   0.5647605  72.8949118  -0.1319246  -0.1646608  71.7285919   0.4994398
  54.0841818  30.0472689  62.0095205  54.4646788  30.8753157  62.3024273
  53.7908602  30.2215362  61.1151934  75.8533478  18.4834683  82.3380947
  75.5007982  18.8097286  83.1660461  75.0846720  18.3673930  81.7796230
  95.7647133  58.5677624   2.5841779  96.1084747  58.5555267   1.6909197
  95.1552868  59.3057966   2.5961933  52.4518347  25.4799628  80.1198006
  52.9310417  25.0538135  80.8304214  52.6164579  26.4143491  80.2464962
  81.9932556  75.6866789  12.9646850  81.7430401  75.3151417  12.1187639
  82.9503822  75.6786013  12.9561448 104.6484470  86.6911316   0.8658333
 105.4493141  87.1791840   0.6743861 104.1086292  86.8000793   0.0829187
  74.1142130  94.3580437   2.8058055  73.9875841  95.3014088   2.9071179
  74.2890072  94.2387390   1.8722931  39.2527533  20.2339673  83.0543518
  38.7647176  19.4113803  83.0169010  38.7414598  20.7892251  83.6429882
  15.9943962  14.4613528   5.8701479  15.2114177  14.4722211   5.3196418
  15.9951103  15.3153706   6.3024485  87.5195789  84.6006107  19.3063843
  87.6044750  85.4435158  18.8608205  86.5859509  84.3957424  19.2554832
 102.7477646  90.3357792  41.3232040 103.6929512  90.2032471  41.3959694
 102.3691177  89.6965313  41.9267035  68.3209038  11.3771999  84.4890308
  68.4154797  11.8403625  83.6567020  68.4449053  10.4548144  84.2652893
  66.1124516  87.3833275  17.1464300  66.2910795  88.0783176  17.7799213
  65.3355789  86.9411278  17.4887192 115.2732468  86.4588451   2.6838374
 115.3247261  85.7626629   2.0289230 116.0414791  87.0041943   2.5145823
  47.3105145  36.3886452  56.0556698  47.3802805  37.2099662  55.5690527
  47.3697758  36.6490722  56.9748497  63.3165884  30.7169461  76.2645435
  63.1067562  30.8759618  77.1848249  62.5204897  30.9600043  75.7919073
  47.8032684  28.8461614  61.8628931  48.3761215  29.1357374  62.5729752
  47.3333168  29.6364808  61.5968609  51.9382668   4.9736688  65.9066582
  51.3328791   5.5523831  65.4431677  52.7102566   4.9330166  65.3422022
  25.1868749  39.0003228  85.4096603  24.8506379  38.3959866  86.0714436
  26.1272287  38.8240147  85.3800011  46.0655594  15.0032651  89.4185162
  46.4379787  14.7069860  88.5879993  46.4186954  15.8848238  89.5384312
 101.1750412  58.0032063  30.9939909 100.5428219  58.7188244  31.0604715
 100.9637165  57.5731230  30.1653767  12.2893465  21.2762856   2.2670238
  12.5705743  22.0275187   1.7447320  12.7207708  21.3976383   3.1128237
  35.0812387  26.2299657  70.9039211  35.7258415  25.6282306  71.2762547
  34.2559838  25.7459855  70.9347343  93.1458855 101.5157700   5.0594485
  93.1093311 102.4231815   4.7569591  92.4530411 101.0721111   4.5701998
 112.4209881  71.8434429   3.8204342 111.8282890  72.5491095   3.5616398
 113.1019306  72.2786236   4.3334252  90.1198959  76.9284534  17.7853858
  89.1732216  77.0323563  17.8815365  90.4550362  77.8235579  17.7334464
  68.7885809  15.3170645  78.8778591  69.2428541  14.5372796  79.1969347
  67.8924942  15.2210212  79.2003918 108.2052994  69.4009256  22.0486951
 107.3865986  69.2925882  22.5326729 108.7067890  70.0322294  22.5646377
  27.5928688  27.7836990  86.2242031  27.4895144  27.5781250  85.2950668
  27.4662662  26.9463253  86.6703033  60.1186991  18.2840514  46.1721277
  59.4144535  18.4664738  45.5500364  60.1144218  17.3314929  46.2661743
  11.0263062  33.1256199  64.7115612  11.1915338  32.2720838  64.3110561
  10.1902056  33.4067607  64.3399096  99.6473694  84.1663933   3.9806485
 100.1941872  84.1969681   3.1956053  98.8350201  83.7513733   3.6906892
  56.1841106  30.4326057  77.4840117  55.2559328  30.5533266  77.6843739
  56.2946510  30.8226204  76.6168880  73.3650970  86.2509918  27.0084596
  73.6740112  87.1457195  26.8661499  72.4127626  86.3319016  27.0608974
  80.4300880  96.2396431  10.7225406  79.7109604  96.2258530  11.3541198
  81.0282135  95.5565643  11.0256636  53.0857420  48.2187748  61.4862776
  53.9672565  48.1990433  61.8588018  52.6278591  47.4963856  61.9160843
  98.2106018  74.4692039  16.4238584  97.7258110  74.5383978  15.6014097
  98.7502956  73.6856985  16.3185751  64.2419529  13.2074082  80.5567265
  63.5807323  13.8960099  80.6263256  63.8455343  12.4502504  80.9877682
  12.6538706  23.4047794  87.1563721  13.2541287  22.8990507  86.6085052
  12.9422319  24.3117070  87.0535946  68.4004688  93.2926750   9.1553235
  68.1389427  92.3903942   8.9717096  68.1411600  93.7809372   8.3739203
 113.7306595  99.6622658  54.6423054 113.3571911  99.6999073  53.7617731
 114.6745491  99.5925045  54.4993496 115.2344227   0.9984750   6.4486724
 114.7753334   0.6275336   5.6951022 115.7152653   0.2604343   6.8232608
  97.0829678  87.3818016   3.1746146  96.4296341  87.5259018   3.8591793
  97.6982784  88.1082630   3.2740429  54.2872667  19.1399372  71.6310596
  55.2187395  18.9806557  71.4786768  54.2373514  19.4101906  72.5479603
  84.1166401  88.8357258  20.5345273  84.3159676  88.4751320  19.6705425
  84.2315388  88.0984688  21.1340928   2.2826234  63.7660170  29.7919345
   2.5458279  63.2755518  29.0132165   1.3932073  64.0625477  29.5989585
  99.1697598  83.2663536  14.7487414  99.1423416  82.3554993  15.0416982
  98.5959625  83.2890224  13.9829302  65.2798843  74.8863935  32.7513409
  65.0257015  74.0273809  32.4141049  65.6979465  74.6995783  33.5919094
  83.2469463  68.9254570  18.0003285  83.3909988  68.0474329  18.3532512
  84.1130638  69.3328428  18.0107200  87.2719479  97.2815323   4.2715946
  86.8493176  97.3835659   5.1243556  88.1130695  97.7285290   4.3661252
  85.8363342  86.5145302  10.0642431  86.6916275  86.3508129  10.4616153
  85.7744503  87.4683762  10.0135076  59.4753170  77.0723152   3.1509450
  59.0896606  76.6866446   3.9375585  58.9764833  77.8769064   3.0094093
  85.1221466  94.6247768  17.8419924  84.1774368  94.5815182  17.6940680
  85.2195358  95.1983166  18.6021233  49.1543198  30.0973773  93.8270569
  49.3827391  29.2944741  94.2954636  48.2658720  29.9429035  93.5060692
  55.1348448  22.2884607  61.4452124  55.1472712  21.9681716  60.5432749
  54.2115784  22.4680018  61.6229200  24.8418045   7.2181690  55.6237984
  24.5112991   6.5875804  54.9839926  24.9731731   8.0224025  55.1216221
  60.6015348   4.1340727  84.4381905  61.2496662   4.1492698  85.1424026
  60.0556993   3.3718732  84.6314430  54.7998047  25.7433057  86.8743038
  54.8918676  26.6950893  86.9174671  53.8697195  25.6003428  86.6989899
  67.3619604  57.2064018   7.5167626  67.4188423  56.3663864   7.0613831
  67.6427460  57.0134211   8.4112728  45.4611206   0.4824035  80.3613281
  45.0640488  -0.3625503  80.1500988  46.2245369   0.2615971  80.8948708
  38.5207796  24.0243506  84.8622227  37.6010799  24.2822480  84.7999573
  38.9594030  24.7894311  85.2343655  68.7995338  20.1755476  80.6339836
  68.5092115  20.9360266  81.1375904  69.1040564  20.5405283  79.8031521
  93.1809902  35.7646561  66.7518854  93.7868690  35.7220078  66.0120726
  93.6657524  35.3779936  67.4810743 110.9710693 101.3537025  12.8487766
 111.3945103 101.7620850  12.0936871 110.7505035 100.4710293  12.5513327
 111.0032272  94.7424793   5.3187376 111.3951015  94.5008755   6.1579615
 110.0606251  94.6551418   5.4605550  97.8106785  58.1376171   4.3291131
  96.8570137  58.1166220   4.2496824  98.1123829  58.5017395   3.4968728
  54.8637247  34.2273617  76.5804243  55.3793287  34.8736668  77.0627832
  55.5048323  33.5796547  76.2876940  48.3593416  29.1762853  73.2538652
  48.8250923  28.4798074  72.7910233  49.0410471  29.8066044  73.4866953
  11.6685021  95.6282806  83.3770466  11.3270938  94.8685837  82.9053020
  11.8036842  96.2903118  82.6990604 108.4210968  68.6369324  12.7319717
 108.2981491  68.2966805  13.6181688 108.0249023  67.9757404  12.1644437
  50.6684589  19.7772038  72.7629232  51.1556768  19.0022671  72.4830532
  50.8775043  19.8687565  73.6925173  79.9912167  83.6411667  38.4888124
  79.0605497  83.6226273  38.7118387  80.3988552  83.0396461  39.1119027
  89.8532104  57.0379448  12.2473454  90.3940582  56.3967705  12.7084446
  89.1925907  57.2995138  12.8887427  17.6426041  35.1155782  45.4490089
  18.5726285  35.1710701  45.2294493  17.3583102  34.2803192  45.0778627
  54.4102240  21.6817546  91.2329388  53.5945082  21.8524098  90.7620811
  55.0057173  22.3706436  90.9378910  49.6008730  30.1092720  69.0107107
  50.2970266  30.1366925  69.6671057  49.3411684  31.0237288  68.8986731
  54.7900677  22.4535060  75.6786680  54.5421791  22.5761700  76.5950394
  54.9678659  23.3377743  75.3582144  82.5299072  64.9979115  10.3195548
  82.5086498  64.3553162  11.0286736  81.6804600  64.9064541   9.8879099
   1.1381926   4.5934820   0.4299559   1.5381914   5.2191949  -0.1739613
   0.9072021   5.1160073   1.1979680  70.4415846  82.2252655   6.4335918
  70.7563972  83.0079746   6.8857914  69.6666861  81.9583416   6.9280857
  54.1184187  81.9055176  11.0725403  54.5724201  82.2482395  11.8423808
  54.3483591  82.5124073  10.3689516  44.0890408  34.8177934  61.4359045
  43.2967424  34.7227955  61.9645596  44.2594814  33.9379835  61.0995770
  63.8620377  71.1692762  41.8402386  63.7158585  71.6118097  42.6763201
  63.2042408  70.4742336  41.8189096   2.4634384  53.0318642   8.2724577
   1.5996075  52.6391792   8.3982611   3.0550390  52.4771976   8.7809700
  45.6278849   5.6720799  33.0541968  45.7061291   6.4541602  33.6005139
  45.6362772   6.0049748  32.1567893  25.5130386  29.2715883   7.0089447
  24.6385837  29.3841100   6.6362530  26.1070204  29.4016409   6.2696856
  11.5816319  86.3164139  15.2150667  12.3632395  86.1871433  15.7522929
  11.5782857  85.5715084  14.6139503  17.7231538  93.3401299  37.5909495
  18.4282732  93.7125397  38.1204343  18.1094146  92.5605106  37.1919084
 103.9335918  92.1389294  10.1302135 103.6011982  92.1738529   9.2332578
 104.5407677  92.8765202  10.1895261  63.1131458  35.4062080  17.2602546
  63.9199209  34.9130511  17.4090600  62.5080204  34.7674274  16.8834114
  81.3234138  81.6817760   2.9568720  81.8195724  80.9404755   2.6097062
  80.7331562  81.2935257   3.6026961  35.0816584  22.2839475  64.9035931
  35.8718824  22.5717235  64.4464684  35.3945327  21.9835591  65.7568836
  94.6820068  61.5491247  28.5652614  93.8117504  61.4368010  28.9477253
  95.0061417  60.6570339  28.4413815 101.6406059  44.3879080  18.5960376
 100.9468651  44.7799397  19.1263890 101.1863995  44.0334463  17.8316474
  43.0922222  16.8556082  84.0881634  43.8501596  16.3601828  83.7778091
  43.4507036  17.4591410  84.7389030  43.2358599  32.0532322  69.0636158
  43.8202477  32.5100279  69.6686459  43.7595224  31.9300580  68.2718849
  66.3061333  21.0784364  83.9938259  66.6758442  20.2181458  84.1924381
  65.4364300  20.8897901  83.6413193  40.0561714  34.1721797  64.5046473
  39.3888450  33.7295127  63.9802885  39.5716262  34.8303699  65.0028801
  30.2649283  28.6894155  86.5907001  30.8694863  28.2948685  85.9621525
  29.4495058  28.2009959  86.4777374  35.7765222  93.5311031  84.0048313
  36.4357471  93.9492893  84.5587063  35.6158495  94.1636181  83.3045864
 107.2932911  57.7612352  14.3863392 106.8160057  57.4635124  13.6118782
 108.2137775  57.6055336  14.1749382  15.6052053  94.9995327  52.1917343
  14.6519470  94.9219227  52.1529055  15.7652760  95.9380817  52.2903824
   7.8305590  76.0539007  22.6622748   7.1373093  75.8262205  23.2817888
   7.3742747  76.4867640  21.9407034  58.1442785   8.5696214  45.2334690
  57.2097349   8.7107801  45.0820112  58.2180595   7.6335758  45.4194927
 109.3636608  94.0502262   0.4368900 110.0294113  94.5194530   0.9397097
 109.6679783  94.1008377  -0.4692320  42.6707411  59.5006847  86.9010925
  42.7466059  59.1897106  87.8031826  42.2264051  60.3452349  86.9754601
  52.8176832  97.9845047  53.5583353  52.7931976  97.2117329  52.9940176
  53.5773897  98.4802246  53.2528067 108.6100292  39.8858047   7.3078054
 109.1493702  39.3791866   6.7006111 108.4148693  40.6956530   6.8363273
  89.9055195  64.9135876  17.7262175  89.4543743  64.4403219  17.0271325
  90.6455231  64.3519449  17.9568279  55.6449890  25.5815649  60.9102821
  55.7559395  24.7095060  61.2890100  55.1422262  25.4327106  60.1094675
  40.6686974  74.3565845  79.7667789  40.8452702  74.6618748  78.8769197
  40.1470184  75.0557661  80.1607704  42.5560570   2.3016678  65.4459763
  41.9070387   2.9885209  65.2935362  43.0882931   2.2942333  64.6504259
  79.0232849  85.1426601  17.1390009  79.7919035  85.5180550  17.5685751
  79.3729639  84.7025967  16.3642073  78.8598156  52.1918631  17.1390390
  79.6082830  51.7895794  17.5797236  78.6289263  51.5731430  16.4461446
  98.2743168  69.1066027  14.7743177  99.0487194  68.5978699  15.0145674
  97.7706909  68.5227633  14.2071128  45.6853151  85.3982830  11.4935184
  46.0652208  85.5734444  10.6325746  45.6164932  84.4444847  11.5353847
  16.0448384  39.9947977  82.1367550  16.1659157  40.9440613  82.1584892
  15.2374697  39.8449993  82.6286411 110.1238823 107.6359272  30.1073408
 110.2272797 108.4378147  29.5949769 110.0143814 107.9398632  31.0083771
  68.2486343  16.0181904  84.1907787  67.3119259  15.8346760  84.1191387
  68.4734106  15.7700431  85.0875092  55.2844667  19.2349315  83.4107208
  56.1591578  19.4263828  83.7490845  54.6904230  19.6677601  84.0239143
  15.4379904  30.8462214  91.3368225  14.8174775  30.4729795  91.9628334
  15.6927180  30.1081896  90.7830620  61.8998432  24.9883914  87.0151615
  62.0642710  25.5810809  86.2817383  62.5683260  25.2158284  87.6614094
  50.0023508  17.0459878  79.4482374  49.4987345  17.2484183  78.6598063
  50.3265572  16.1570406  79.3036890  46.0357857  23.4924698  51.0192728
  46.7001057  23.3060217  51.6827059  45.9153414  22.6609826  50.5606318
  84.6550179  11.2418270  46.2143993  84.9767685  11.3741505  47.1061373
  85.3388119  10.7259858  45.7871294  16.3636303  74.7561359   3.1463984
  15.5036485  74.3671322   2.9872164  16.3406575  75.5890560   2.6752856
  22.2243929 105.6014252  79.0034485  22.3459172 105.0394821  78.2381487
  21.5326166 106.2107468  78.7457609  38.4885097   6.4203936  48.0356932
  37.8305912   5.9834957  47.4948692  39.2063189   5.7900041  48.0956316
  40.2577925  10.1392114  85.9624767  39.7134185   9.6135336  85.3763390
  39.6738362  10.8293545  86.2770081   4.6884629  82.8559017  17.8720546
   4.7316527  81.9230175  17.6620531   5.5966502  83.1051826  18.0431950
  34.2129254   7.6221448  62.4177027  34.3294048   7.7514434  63.3589506
  34.9677706   8.0569535  62.0209885  35.4510093  12.8642762  79.9107790
  35.6113935  12.8143156  78.9684343  34.7515106  13.5114610  80.0006962
 101.3734627  18.1849170  69.6026945 101.7255116  18.7461519  68.9118195
 100.8310318  17.5465584  69.1395521  86.9096851  70.8562756  10.7888198
  87.1756554  70.3804064  10.0020289  85.9571171  70.7653999  10.8131576
  93.1930065  68.2520533   0.7292079  92.2472572  68.3305407   0.6041460
  93.4954834  67.7597666  -0.0339399  16.0288930  19.8092628  70.8750916
  15.4811418  20.5932021  70.9156132  16.9174206  20.1439238  70.7536364
 105.9514618  97.7764988   0.3218880 105.1351357  97.8562737  -0.1715389
 105.6749821  97.7360058   1.2373922  58.4182453  25.1176167  94.1582775
  58.7050962  25.6815863  93.4400272  59.1793537  24.5703268  94.3517113
  50.9082365  36.7652774  94.2812347  50.2855492  37.3993111  93.9255810
  50.3728390  36.0047269  94.5073891  83.3193779  80.3491116   1.8604389
  84.0321350  80.5639935   2.4621411  83.5901165  79.5266485   1.4524209
   8.0366176   7.4143845  37.5361061   7.8044307   6.7875481  36.8509793
   7.8738528   8.2713097  37.1418715  76.2596035  48.4589052  88.0162621
  75.4862261  48.6873627  88.5319424  76.0620737  48.7759924  87.1349716
  84.8961830  29.8871875  91.8113041  84.7218323  29.4187212  90.9949875
  84.5982742  30.7811022  91.6427803  87.2521782  78.1786871   0.8310854
  87.3053551  77.4523115   1.4521980  87.1273041  78.9536142   1.3789231
  98.4723949 103.9015198  12.7837241  98.9721775 104.2341232  12.0381868
  98.9854431 104.1585732  13.5498416  99.7247887  98.6662388   4.0738007
 100.5079651  98.2115459   3.7637660  99.0165520  98.0340576   3.9513576
  88.6610699 106.8081474  26.0640574  88.8630009 107.7203846  25.8560300
  87.7235031 106.7247105  25.8901978 112.8818130  47.6136112  77.2972441
 113.6682510  47.9834223  77.6984835 112.3430443  47.3357105  78.0380058
   4.6095419  54.1775894  91.2617207   4.7029442  53.4220314  90.6815052
   5.1338297  54.8634005  90.8481884  80.9249020  83.8278103  79.1633654
  81.3693714  83.0576134  78.8091230  81.3996220  84.0284443  79.9699688
 100.4382515  41.8097019  83.6805534 100.3044033  41.8048620  84.6283340
 101.0117435  42.5598097  83.5234833  68.5924578  88.9381027  83.2114220
  68.0133104  89.5114040  83.7135506  69.3830109  88.8681221  83.7465477
  58.9573288  10.1062429  29.3452811  58.3598661  10.6593800  28.8419795
  59.8062468  10.5424368  29.2724419  53.5255384   7.4941742  10.6935644
  54.0272999   8.3079183  10.7413769  52.9151440   7.6313788   9.9691141
   6.5289301   6.0780859  90.6018066   5.7128572   5.6929308  90.2825642
   7.0825469   5.3260612  90.8120441  63.4063244  79.0073490  79.8376608
  64.1876507  78.9909315  80.3903770  62.8759718  78.2746220  80.1508141
  86.7012787  73.2688713  80.0176144  86.6679287  72.5252962  79.4157648
  85.9602070  73.8178444  79.7613525  81.7828274 102.6892471  66.8409252
  81.9682693 102.6674652  67.7797365  81.2749672 103.4908867  66.7156363
  85.2009869  86.8786049  69.5927286  85.5899906  86.2622929  70.2132654
  84.7673416  86.3239574  68.9442396  54.7190857   5.3178132  14.4661117
  55.3785992   4.6254823  14.5103323  54.3119907   5.3164923  15.3324282
  24.8500657  97.8330612  29.5423293  25.5582666  98.4221458  29.8024368
  24.1945219  97.9267979  30.2334905  93.1583881  83.5199070  80.2687550
  92.7259350  83.5793495  79.4168854  93.9222908  84.0912914  80.1899624
  78.3074331  81.8422318  92.4288177  78.6420059  82.3405361  93.1744576
  79.0707588  81.3725185  92.0927525 102.1899319  84.1636944  68.5941458
 101.4541149  83.7288761  69.0251064 101.8304729  84.4764233  67.7639484
  43.5642195  98.1944752  18.9580512  42.9113626  97.6332664  19.3764389
  44.4035244  97.7892208  19.1761374 111.7058468  86.1579132  91.5175247
 111.6281033  85.2817249  91.8949890 112.4460983  86.5525055  91.9785690
  68.7759447  32.1786714   8.7479848  68.0476999  32.7993274   8.7740582
  69.5369291  32.6906800   9.0218168 113.8614655 103.2497692  71.7584658
 114.4023514 102.4600983  71.7688322 113.4274101 103.2539845  72.6115799
  89.3604851  67.7111292  93.5122871  88.4113979  67.8352404  93.5196495
  89.4906998  66.8875217  93.0422401  38.4935117  42.5559187  11.5258896
  38.9667130  43.0390978  10.8485019  39.0775704  42.5723600  12.2840691
  56.2192822   2.5216743   2.0766200  56.1189032   2.3504925   1.1402155
  56.8458080   3.2438993   2.1222636  95.8950329 101.3269424  44.1409445
  95.7363319 100.3911781  44.0169239  95.0211906 101.7167854  44.1663027
  90.4216003  79.8012209  93.6431694  90.1937199  80.3858280  92.9202938
  90.5174065  78.9409971  93.2344246 100.9602261  81.5083408  91.9879246
 101.1070061  82.0132732  92.7877617 100.1494598  81.0273075  92.1537495
  98.6599731  65.6972599  64.7227526  98.3757401  65.3049040  63.8972235
  99.2207146  66.4273167  64.4604254  61.7831230  99.0992832  94.4752884
  62.7123594  98.8697243  94.4674778  61.7725992 100.0524426  94.5624447
 104.5418072  69.1937304  91.3019371 105.1300716  69.9355412  91.4430046
 104.0356827  69.4336462  90.5257130  83.9245224  85.8508110  79.8485374
  84.7595787  85.7502556  80.3054810  84.1299915  85.6694889  78.9314032
  35.7686162  21.3572168   9.9063236  35.7152843  21.2904906  10.8597052
  35.8406305  22.2963119   9.7356051  90.8802795   9.9901056   8.1900370
  90.6782055  10.7480967   7.6415390  90.1405430   9.3966269   8.0603820
  62.4505043  94.5353794  81.1824799  63.0150461  94.2705917  80.4562473
  61.6903639  93.9572144  81.1180687 108.7125015 102.5171089  19.6592236
 109.6580982 102.6553249  19.7138643 108.5515404 102.3247719  18.7354648
  51.3414049  28.7667060   9.0585017  50.4848957  28.5862231   8.6711407
  51.2843800  28.4073901   9.9438673   8.0322129  61.1595917  88.3594131
   8.6001527  61.9004583  88.5710430   7.2135794  61.5609598  88.0679131
 101.2076187  68.6426353  43.8668776 100.4778194  68.6149406  44.4856405
 101.7752552  67.9194975  44.1334963  48.9817667  55.8076477   1.5722446
  49.2654228  56.4128399   2.2574565  48.1603813  55.4419851   1.9006467
 107.8345108  70.9289122  82.6330662 108.5900402  70.8767700  83.2184601
 108.2140446  70.9710836  81.7553329  57.6231527 101.3185883  86.1897278
  57.9943275 102.1990967  86.1333847  56.9134855 101.3162708  85.5473900
 110.3491497  83.0668449  70.1153898 110.6329441  83.1406212  71.0265732
 110.6283188  82.1912575  69.8477316  86.5898514  86.2535667  40.0742483
  86.0987091  87.0751476  40.0786114  87.2324371  86.3623810  39.3731976
  69.3234396  66.9095755  59.3179941  68.5736847  67.1262264  58.7637711
  69.5942116  67.7476215  59.6929550  93.6707306  82.7403736  65.6600666
  94.5227909  82.9838467  65.2982044  93.6183548  83.2150173  66.4896488
  73.1731606  23.5823774   1.7590867  73.8371086  24.0860868   2.2299188
  72.5777149  23.2737350   2.4420309  76.5445137  85.3421783  71.4562178
  76.6386366  85.2633858  72.4055147  75.8400440  85.9792328  71.3374329
  51.7420769  18.3686495  81.3550377  51.3239670  17.9769194  80.5882549
  52.2647858  19.0883100  81.0013485  77.0213127  79.1495419  80.6083012
  77.3121548  79.9748087  80.2202511  76.8574333  78.5770893  79.8588514
  45.0954103  10.7264984  86.6967773  44.3899488  10.3442395  87.2187328
  44.9914742  10.3342974  85.8298302 111.0910416  78.7984657  90.7918072
 111.5609074  78.3167934  91.4725780 111.7693806  79.3052149  90.3453922
  82.5273991  87.2774982  70.6855440  82.0093632  87.2545624  69.8809624
  83.4322357  87.3637390  70.3854465  82.0254326  85.1880932  36.8291569
  81.3586235  84.7478390  37.3561978  82.0999432  86.0600853  37.2168350
  41.4603138  17.0320654  15.9411585  42.0288086  16.2859297  16.1317539
  41.8031454  17.3915255  15.1229358  60.1014090  40.8815908   7.5082427
  60.2408409  39.9348211   7.4878031  60.9256029  41.2379646   7.8398132
  95.4014778  60.2729559  75.9717083  94.6684933  59.6848583  76.1536503
  95.4651165  60.8246660  76.7513227 108.4304523  80.3426361  81.6285801
 109.0561581  79.6364307  81.4673805 108.2181358  80.2668190  82.5588512
  60.0141096  27.7382183   8.1831926  60.5313349  27.2822547   8.8471276
  59.7828007  28.5726643   8.5911477  85.1610470  96.1136246  91.7100906
  85.8632183  96.7132187  91.9624329  84.5167446  96.1896038  92.4138927
 108.6552238  68.9213705  84.4862843 109.3007088  69.3800926  85.0240231
 108.7233448  68.0063057  84.7587681  79.4706821  86.7302036  43.1093550
  78.5839462  86.3927460  43.2360506  79.3737078  87.4165440  42.4492216
  89.2153072 101.7408466  75.9177971  89.0545368 101.9383240  76.8405008
  89.5532322 102.5588131  75.5531454   9.0700310  26.0588026   6.2489295
   8.8107866  25.3672457   6.8578434   9.3434066  25.5923438   5.4590464
 113.0806446   4.3060860  86.4413261 113.1595802   4.9410096  85.7293797
 113.7800217   4.5416272  87.0509434  91.1242580  93.7867641  88.6566448
  91.5699959  94.5742321  88.3444977  90.2212143  94.0663528  88.8068962
  74.7921228  11.5288234   7.6931727  75.4033375  12.1868896   7.3621213
  75.0555086  11.3937354   8.6034536  85.3171635  77.7733517  65.9916735
  85.2733707  77.0114231  65.4139376  84.5658970  78.3096170  65.7381964
  22.0584631  27.2020793   9.6995592  22.4977016  26.9966292   8.8742775
  22.7451563  27.5805163  10.2486229  46.6536140  75.0509691  69.7250795
  46.7989731  74.1048908  69.7313786  45.9351826  75.1870298  70.3427982
 112.5860023  52.2450733  94.1003799 111.6352463  52.3012781  94.0047932
 112.7854919  52.8100491  94.8468590  90.5690765  24.3106842  12.2767663
  91.3028717  24.7101617  11.8096483  90.9762096  23.8372755  13.0022717
  88.4416199  86.6837692  81.0707378  89.1039276  86.1041737  81.4470863
  88.9281178  87.4656296  80.8095074  77.1360731  85.9328556  76.3969898
  77.2139883  86.7476749  76.8932009  77.0957899  85.2485180  77.0650339
  91.7591286  95.8944130  74.2324924  91.0601139  96.5026474  74.4726038
  91.3707829  95.0267887  74.3449211  69.9241686  94.1941643  92.2429562
  70.8741283  94.2844009  92.3182869  69.6190071  94.1117954  93.1464577
  39.8977542  36.8948340   2.6709560  40.2752876  37.3670650   3.4130478
  40.4019785  37.1947742   1.9146317  97.0214462  83.2959938  76.9203138
  96.0882664  83.2783318  76.7079353  97.3738766  82.5025463  76.5172434
  71.4458227 106.4915085  80.6052017  71.3832426 106.8147564  79.7064114
  71.6087055 107.2748280  81.1306572  40.7579660  31.4799213   2.0613234
  40.6188536  32.3796773   2.3568162  41.4258289  31.1339474   2.6533499
 108.8178444  84.1442585  90.3538799 108.9308453  83.8031769  89.4666767
 107.8693867  84.2020607  90.4692650 103.3775902   2.7514222  76.3664961
 103.1193924   3.1580964  75.5393410 102.5904179   2.2963324  76.6656351
  32.3221421  24.4835830  10.9394491  31.3772464  24.4292688  11.0824680
  32.4158525  24.5784307   9.9915808  61.8005323  95.0431347  74.0929604
  61.4369774  95.7979870  73.6300898  62.4544954  95.4166508  74.6837664
  89.9179363  57.2225332  40.5838013  89.4498920  58.0366039  40.7694244
  90.6347942  57.4847651  40.0062370  38.8517308  16.4968061  71.5317154
  38.4157038  15.7158887  71.1907148  39.7457099  16.4384210  71.1946392
  61.1558580  96.6344261  46.8288898  60.6525564  95.8314037  46.6944456
  60.9561586  97.1732521  46.0633755 106.3399982  51.2316132  76.2256336
 105.8053875  50.9255314  76.9582653 106.4449024  50.4611778  75.6673765
   9.5573181  84.3355083  54.1586542   9.4356656  85.1024628  54.7183084
  10.3867960  83.9562225  54.4490767  36.6277337  10.5797887  63.7734556
  37.1260190  11.0455048  63.1018496  37.1077275   9.7619611  63.9038277
  94.4377613  82.8710747  76.7094994  93.6587906  83.3382893  77.0113897
  94.3189335  81.9763470  77.0281935  59.0468311  24.1464376   2.6274416
  58.7077999  23.2815909   2.3965046  58.7744761  24.7113824   1.9043291
  87.8603745  63.2692623  63.4027338  87.5661373  62.4717903  63.8428450
  87.1309280  63.8809633  63.5025406  95.1566124  74.3910027  82.8947353
  95.8319378  74.7887039  82.3451996  95.4405117  74.5708847  83.7909985
   4.9301386  72.3052931  62.5020552   4.1578609  71.7533255  62.3789597
   4.7142908  73.1227350  62.0532465 113.8279438 102.0567989  56.6569090
 114.3844414 102.5041771  56.0194159 113.3411121 101.4143467  56.1406994
  61.2497282  39.2121291   3.6568549  60.3567696  39.4978809   3.8497260
  61.4739418  39.6607566   2.8415668  68.8111925   5.9894621  12.8836727
  69.0934086   5.5610263  12.0755696  67.8764534   6.1508149  12.7553916
  70.3233957   4.0422082   4.7092181  70.6120157   3.6212683   3.8994408
  70.6312370   4.9453110   4.6326032  89.7879028  84.4905663  67.8402042
  89.4280720  85.2469349  68.3035231  90.7291889  84.5318604  68.0090141
  60.2885675  15.7113826  19.5008504  59.3959999  15.7050359  19.8465550
  60.4535532  16.6281438  19.2804849  71.0728168  78.1094217  60.6593752
  70.9276819  78.9002037  61.1788321  70.2862120  77.5825310  60.8003569
  88.4856510  88.1308365  72.2107172  88.1186199  88.4938431  71.4046526
  89.1986561  88.7272453  72.4390697  75.0184870   0.8462057   9.8456740
  75.3158903   0.0305239   9.4426298  75.2319002   1.5226659   9.2029554
  86.8971157   6.5050495  16.3613224  86.5523720   7.2971749  15.9491086
  87.6860428   6.7967367  16.8182063  64.8791361  80.9103870  73.9597273
  65.3787851  80.5329132  74.6836710  64.4738770  81.6939259  74.3312979
  69.2347956  34.2958379   3.3500779  68.2927322  34.1300273   3.3146587
  69.3325424  34.9821711   4.0100977  96.0568428  76.3845682  51.2190914
  96.9735813  76.1740780  51.0415792  96.0888386  77.2199392  51.6853142
  55.7436752  45.4324865  15.2621233  55.6009007  44.5148516  15.4940510
  55.1294994  45.5970430  14.5466220  97.9889774  63.5884237  78.0723000
  97.9380131  63.4545755  77.1258736  97.2370243  63.1108046  78.4225702
  65.1007032  27.2037506   0.2703951  65.7700491  27.4462390  -0.3694575
  65.5949688  26.8726468   1.0202641  66.7515659  70.2942228  56.5207148
  66.9058657  69.8015928  57.3267794  66.7904425  69.6361637  55.8266830
  67.4935293  32.6168251   0.3853911  68.0392838  33.3922625   0.2547025
  67.1470594  32.7144980   1.2723243 115.6065464  30.1076555  53.2091951
 114.9713135  29.3916202  53.2069588 115.1279068  30.8535910  52.8476477
  86.8492985  77.0271969  80.4253006  86.5292549  76.7955971  79.5534229
  86.5140820  76.3350153  80.9951687 110.1464176  51.4914083  70.5394793
 109.4927597  52.1896696  70.5767727 110.7374382  51.7540407  69.8338175
  86.6239262  24.1804099  23.2502127  86.9441032  23.2881188  23.1177855
  86.4168739  24.2245054  24.1837096   5.7359880  51.0706043  67.2449732
   5.2990723  50.7816601  68.0461264   6.2350893  51.8432999  67.5096798
  83.7403107  74.7354889  85.4608345  83.3348656  75.5021667  85.0557995
  84.0128803  75.0382042  86.3270283  91.8897438  88.1545162  13.8414979
  92.0412731  87.3968792  14.4065201  92.3991680  88.8584423  14.2430198
  82.1670246  79.8264551  55.2849770  82.2825623  80.7763958  55.3069878
  82.7123356  79.5357323  54.5539808  95.0123215  57.4738693  71.5572309
  95.0029182  56.8181992  72.2545433  95.9403229  57.5994825  71.3590860
  81.1300373  71.1790895  92.2895622  81.8528652  70.5762100  92.4636269
  81.5254116  71.8862200  91.7797852  92.5081730  63.7676573  79.9667549
  92.6170063  62.9694128  79.4498444  93.2972717  63.8128090  80.5066776
  14.4224691  25.7814026  13.6631250  14.5735323  24.8841500  13.3658874
  13.4728003  25.8921766  13.6174023   1.4182334  43.6215973  24.4240570
   1.8233597  44.4324446  24.1164327   0.7025317  43.9111233  24.9899030
  88.1252670  72.7981663  83.0733871  87.6825905  73.5547781  83.4578514
  87.6507664  72.6313686  82.2589779  57.9178190  14.1176152   7.9421932
  58.0156469  14.1338849   6.9901443  57.9736853  15.0364923   8.2044441
 115.8902931  71.0460901  88.2135868 116.4132118  71.5857553  87.6206684
 114.9839211  71.2221909  87.9611683   2.3574066 108.7085152  79.0418196
   2.4780032 109.4337273  79.6548080   3.0763733 108.1075954  79.2373037
  79.4085741  69.4951725  61.1329222  79.7192574  68.6180449  60.9085417
  79.5416117  69.5617819  62.0784903   9.0422767  81.2374115  91.8635845
   9.8903656  80.7935905  91.8645096   9.0531659  81.7764282  92.6545238
 100.5345726  71.1864662  88.0707359 101.3885117  71.2651396  87.6454926
  99.9111366  71.5012360  87.4161530  78.5976076 104.6730518  80.2898788
  77.8904152 105.3075409  80.4061985  78.2132339 103.9822292  79.7501898
  98.1702042   4.6663249  72.0785856  97.3681068   4.2580238  71.7527485
  98.6129475   4.9855623  71.2922668  98.4775543 104.6515369  43.0806208
  97.9964542 105.3471184  42.6323605  99.2901897 105.0685120  43.3669424
  70.5834103 104.1686535  50.1376677  71.1661577 103.9898777  50.8756876
  71.0998487 103.9418888  49.3642998  16.2978506   1.4198978  16.4488089
  15.7058322   1.0040208  17.0755398  15.8818781   2.2578129  16.2460840
  98.2018375  68.3169985  52.7987528  98.6566639  68.5190058  53.6164093
  98.4580612  67.4167919  52.5982380  17.9329109  47.0913363  37.7253962
  18.8850451  47.1894407  37.7184749  17.6043141  47.9599142  37.9574132
  44.9953270  33.0015254   9.3212926  44.1195107  32.9362011   9.7019649
  45.1084471  32.1826172   8.8387728  82.8165340  83.3377266  48.4303904
  82.9462624  83.3742905  49.3780518  82.1519184  84.0035534  48.2537651
  11.6871977  79.4108915  48.6846256  11.0043478  79.1085339  49.2833948
  11.2529314  80.0645638  48.1365776  42.6215553   6.8741429  81.0177231
  42.6864004   7.8143913  81.1849308  41.6897011   6.6775084  81.1137199
  62.9421997  31.5084267   0.7146464  62.4015999  30.7760096   1.0105351
  63.2232475  31.9399667   1.5215033 105.9345150 103.6593628  73.9483452
 106.3334084 103.9403152  74.7718573 104.9959373 103.7951756  74.0782404
 103.0163193  67.5805092  47.2881413 103.9491272  67.6314545  47.4967289
 102.7016449  68.4801722  47.3765469  18.4860146  50.0546932  87.8388023
  18.0479193  49.5381260  87.1624470  17.7954233  50.2583170  88.4695625
  71.9388485 103.0664444  72.0098829  72.6562929 103.5849285  71.6456127
  71.5733528 103.6167049  72.7025986   8.1562310   7.5285149  92.4652481
   7.4861872   7.1761096  91.8795109   8.1894702   6.9070667  93.1925201
  89.6504688  67.2941780  84.8023605  89.7337341  66.8181610  85.6286144
  90.0363827  68.1519032  84.9801445  74.7124004  25.6528950   3.2855833
  74.1689205  26.2078714   3.8449270  75.5049992  25.4980731   3.7994391
  18.6121941  74.7171021  85.0468636  18.9155209  74.0120792  85.6188393
  18.1808531  74.2672825  84.3203354 107.2128296  76.9899607  50.9450245
 107.0338821  77.3116064  51.8286276 108.0755329  76.5802956  51.0094023
  93.0506611  95.5764294  80.1790810  93.9177895  95.4619598  79.7902155
  92.6221657  96.2261677  79.6218872 111.5040207   0.9692811  87.7612495
 111.5151405   0.0157477  87.8442097 110.6618977   1.1641124  87.3500252
  29.2891574  29.3740845   4.0647197  29.0009904  29.6719551   4.9275443
  28.8719916  28.5196280   3.9546677 102.8270435  68.4985304  82.4376011
 103.6178398  69.0082645  82.6137733 102.2667122  69.0912104  81.9366169
  67.4603033  19.2375231   3.7000930  67.9583883  18.4519029   3.4743786
  67.8950834  19.9427414   3.2206485  33.9875054  62.0703506  73.3364964
  33.7847137  63.0015087  73.2467699  33.3543134  61.7480469  73.9779186
 100.0520229  75.8162546  30.1928997 100.1773548  76.3067102  31.0052896
  99.1767025  75.4375553  30.2743626  25.4787302   6.6006672  62.9952145
  25.0243640   5.8610034  63.3985567  25.8677912   6.2377286  62.1995163
  73.7226820  77.8809309  67.2551250  73.6617136  77.3326731  68.0373812
  74.4869137  78.4359264  67.4105883   2.9813424  11.0595453  59.3524742
   2.3635180  11.7564595  59.1314840   2.4314517  10.3449929  59.6738243
  32.6466608  21.0183811   3.8727829  33.5444021  20.8615589   3.5800442
  32.4410391  21.8973780   3.5544783 110.1502609  68.8893747  67.1703100
 109.3241310  69.3722105  67.1454906 110.8126354  69.5352650  66.9247246
 102.7755833 101.2869549  81.2781429 102.0399570 101.8753433  81.4481258
 102.5085068 100.7860565  80.5074310  59.8854160  58.2620001  23.0927086
  59.3762445  57.6216984  23.5896850  60.7952261  58.0778933  23.3263397
 106.4885235  53.0332994  83.0577278 106.5850353  52.8461742  83.9914799
 106.0681629  52.2517204  82.6990223  83.0418491 105.8241653  71.8281937
  82.1324348 105.8382034  72.1265078  83.1995392 106.7089367  71.4987278
  39.8387027 102.6086140  20.2485776  39.0183592 102.2213745  19.9430978
  40.3612614 101.8622112  20.5419302  86.2290287 106.9089031  86.7569828
  87.1560383 106.6869354  86.6697407  85.8001041 106.4288139  86.0486221
  12.2083747   6.5610933  72.7466965  12.0075226   5.7206357  73.1584263
  12.5665879   7.0954823  73.4554577  70.7471085  75.7592487  85.1613140
  71.0459328  76.4204216  85.7856369  71.4780569  75.1448011  85.0949574
   4.2219585  92.5948143  62.9359102   3.2920003  92.3872089  62.8447676
   4.4000465  92.4910259  63.8706493  98.3933926  84.1305637  51.4674997
  97.6360035  84.2694473  52.0360899  99.1468048  84.1797447  52.0558643
  66.2877274   5.0582641   1.3679850  66.3381767   5.9989339   1.1981999
  65.6941223   4.7249302   0.6951136  49.8156071  88.5702515  90.0763798
  49.8872519  87.6259041  90.2153397  49.7453260  88.6679554  89.1267776
  45.6539106  14.5636928  10.8551240  45.0322199  15.2169847  11.1759746
  45.5094337  13.8005292  11.4145327   6.3963872  81.1299133  43.5635757
   5.8017701  80.3979683  43.3995104   6.1161697  81.4813519  44.4086790
   0.4297336  63.5193348  90.7237625   1.0663420  64.1621017  90.4110146
   0.5537709  63.5015345  91.6727257  73.8171291  84.1881275  85.2633572
  74.0777159  83.5995865  85.9718513  74.0032768  85.0648022  85.5995464
 114.4441891  84.7021961  55.2894306 113.6863899  84.8281384  55.8605051
 114.2511177  83.8969040  54.8093700  70.5818892  62.5045586  10.9177577
  70.6149340  61.6190720  10.5557394  71.4258957  62.8906727  10.6836510
  18.7537825   9.7231495  62.4252319  18.3373344  10.5816770  62.5009441
  18.8923407   9.4435203  63.3301306  78.2073545  49.6844196  22.4168110
  78.5475063  49.2549276  21.6319084  78.7047195  49.2964125  23.1367517
  42.0040989  21.3082600  12.8825533  42.0561838  21.7914343  12.0578957
  42.9146576  21.2115693  13.1614208  80.5694008  74.8509979  90.9683895
  79.8492670  74.7830439  91.5952969  81.0902405  75.5906773  91.2811565
  97.9978943 105.2367496  84.0478230  97.4996758 105.8303452  83.4859943
  97.8813553 104.3746948  83.6484241  94.5483112  78.3435488  90.3155994
  95.1472664  79.0844536  90.2232170  93.8423634  78.6740828  90.8711338
  62.1361065  87.8648853  68.3138418  62.7796745  88.0150986  69.0062952
  61.9634151  88.7350941  67.9544830  82.4750042  77.1927214  39.7679996
  81.6345119  76.7485714  39.8799491  82.5067139  77.4143267  38.8373446
  94.9617100  61.1781311   2.8738347  95.8560562  61.4457273   2.6622248
  95.0453091  60.6894922   3.6926591  65.3182364  33.2928228   5.9540653
  64.3692350  33.3983898   5.8870900  65.6636620  34.1828871   5.8855307
  11.5046847  54.6500158  67.4534655  10.8545184  54.8078918  68.1379986
  11.6570091  55.5112934  67.0645857  54.1339159  21.0719514  85.5898857
  53.3783960  21.3544345  86.1052704  54.7316885  21.8192244  85.6117630
 103.0519485  96.7399693  82.2968864 102.5836754  97.2076607  81.6053581
 102.3845959  96.1916828  82.7095032  70.0250530  23.8872528   0.0757497
  70.8679533  24.3029356  -0.1058107  69.6322393  24.4306278   0.7588837
   1.3327087 106.2963772  52.1388912   0.9534608 106.8210411  52.8439617
   0.7174071 105.5726242  52.0213318 109.3300629 101.4174843  92.5328255
 110.0603676 100.8706760  92.2431946 108.5484219 100.9408092  92.2534370
  44.6440649  23.3924556   3.9346951  44.5948553  24.3457985   4.0050295
  45.5705452  23.2114863   3.7762263  78.4635115 100.6835270  80.2397251
  78.2071209 101.3600636  79.6129894  77.7715778 100.0250244  80.1777554
  80.2515125 103.6122990  81.9708729  80.9255886 104.2824364  82.0839024
  79.6835899 103.9576340  81.2820721  98.2893944  95.0035286  66.4900208
  98.4254360  95.8650112  66.8844509  99.1020775  94.5289898  66.6649199
  98.9357567  97.1162701  59.0350819  99.2409325  96.4461040  58.4235477
  99.3258953  96.8705750  59.8739243 113.1442642  71.4943123  50.1861000
 112.6797485  70.8446121  50.7136917 113.2917213  72.2272015  50.7838964
  27.6568985   3.2598379  46.8689013  26.9509244   2.6847091  46.5738440
  27.2701263   4.1354066  46.8646574  63.7969446   4.9411595  18.1438816
  63.8635826   5.7189274  17.5899243  64.0076399   4.2124945  17.5600266
  48.5037088  12.4656534  75.2875710  48.2616663  12.6515615  76.1948109
  49.3507290  12.8964293  75.1725721  48.7209845  29.9245453   8.7932080
  48.9571381  30.8262753   8.5756141  48.4789610  29.9570203   9.7187364
  91.5527534  61.1853218  43.0667448  91.4605331  62.0927143  43.3572102
  90.8734798  61.0766935  42.4011421  86.2875271  66.7923737  53.0519390
  86.6978931  67.1705818  53.8296175  85.5764103  67.3965406  52.8385592
 104.7350979  88.2482719  64.1340208 104.6291924  89.1619205  64.3991089
 104.8322868  87.7697468  64.9573040  51.1447668  16.3330853   1.0587162
  51.4741850  15.5307388   0.6538035  50.2567720  16.1124027   1.3397716
  78.1434774  88.0514336  67.8535271  77.2342920  88.2242489  67.6090956
  78.1360483  88.0394554  68.8106203  75.3894424  86.2874699  36.8315387
  74.7107649  86.6300106  37.4131703  75.2442884  86.7407417  36.0010529
   1.5866417  72.4266768  76.4634371   0.8582638  72.9288054  76.0979795
   1.6816872  71.6787434  75.8736992  85.9825993  35.8735776   6.1399752
  85.0783348  35.6247544   5.9486061  85.9394455  36.8124962   6.3210863
 113.7270451  75.7081032  93.9682388 114.2147446  74.8845005  93.9609909
 114.1424465  76.2263775  94.6574974  68.4329033  79.4612741  65.4931355
  68.3322716  80.1376438  64.8233366  68.5064030  78.6444521  64.9995518
  65.3877640 102.8072643  81.7349529  65.3673935 102.2424316  80.9624290
  64.7704458 102.4022388  82.3441315  48.1414127  15.3888321   9.9025428
  48.3693027  14.4893694   9.6674645  47.3090696  15.3109801  10.3687823
  73.4091759  33.1469035  30.5548286  72.8858805  32.6136470  31.1531830
  72.7700758  33.7003779  30.1060009  91.5621471  88.5395241  84.0341854
  92.2965050  89.1119576  84.2561626  90.8223248  88.8980007  84.5244789
  89.2936039  72.4396181  60.7782030  90.1226044  72.3607588  60.3062201
  89.4374466  71.9636631  61.5961266   4.5279145   0.8987506  71.5526390
   4.9498567   1.3901886  72.2573996   3.7965101   1.4523748  71.2791824
  56.1560678  99.1764545  87.8119183  55.8535480  98.6704350  87.0578194
  56.7980909  99.7866058  87.4489498 111.8476200  92.7628708  85.0922298
 110.9214497  92.5211906  85.0877953 111.8582535  93.6760044  84.8053455
  94.0561581  90.0615978  49.8879337  94.8554707  90.5620098  50.0520182
  94.0357971  89.4070721  50.5860853  84.3021584  44.8440409   2.3912349
  83.4793663  44.9534082   2.8679895  84.7163963  44.0838766   2.7996358
  39.2156410  33.7592483  76.5348482  39.1984987  33.2307649  75.7369518
  38.8883281  34.6162343  76.2615919  96.5772247  95.2902222  92.9006100
  96.9556236  95.3218460  92.0219517  96.8296528  94.4312859  93.2393360
  34.3541050 103.7112331  84.3544960  34.7657800 103.0411720  84.9001884
  35.0876856 104.1802979  83.9569283  11.4721000   1.7303826  71.0403109
  12.1481562   1.7621452  70.3634262  11.3476181   2.6439276  71.2975502
  28.4139705  25.8589101  55.2320004  27.5024176  25.5753970  55.3021812
  28.5128927  26.5192723  55.9178352  61.6957283  49.9334288   0.3333552
  61.1220503  49.2422199   0.0026689  62.2456598  49.4973087   0.9842051
  54.9034834  42.8448057   6.4074546  55.2959490  43.7131453   6.4979732
  54.0185738  43.0144215   6.0843539 104.7102547  75.2997637  76.2031984
 105.0174809  75.6377649  77.0443869 105.4977512  74.9565601  75.7809496
  27.0042086  15.3661466   8.7720484  27.6905394  15.0166464   8.2036895
  26.6169310  14.5932651   9.1830260  54.9180984  23.2283163  16.6784072
  55.5248499  23.8708854  17.0460904  54.0858555  23.6962771  16.6104352
  48.7194538  10.1169336   3.3672678  48.2267141  10.4034781   2.5982863
  49.4535303  10.7287025   3.4229937  44.9885511  87.4522305  85.6887913
  44.4412518  88.0666542  86.1778450  44.6143627  87.4470425  84.8077774
 106.7463875  67.2028732  60.4696751 107.5623989  67.7025747  60.4954481
 106.8215370  66.5839100  61.1959457 106.3341808  96.2949657  65.8320236
 107.0595551  95.7088757  66.0478067 106.2178230  96.8309498  66.6165066
  13.7622988  44.9801064  12.9127240  13.7038374  45.5115271  12.1187425
  14.3862379  44.2884016  12.6925635  48.9843464  14.5419061   6.1721748
  48.6711884  15.4208565   5.9586102  49.6352053  14.6801603   6.8602902
   9.5819640 101.6580009  89.1760159   9.4792545 100.9257603  88.5681438
   8.7156034 101.7671204  89.5681190  62.2124720  58.0452394  32.8419590
  61.8106031  57.4237823  33.4490228  62.1802235  57.6052189  31.9925046
  97.4991512 107.1504307  63.3468628  97.6476002 107.4229908  64.2523479
  96.7341232 106.5768909  63.3917284 106.0710716  94.3946457  69.0622854
 105.6325722  94.2745972  68.2199430 106.2315178  93.5052586  69.3776846
 112.6327133  91.1907387  78.3311701 113.1033039  90.4845524  78.7739849
 112.9834461  91.9923973  78.7191868  92.7288818  16.9591153  22.6286554
  93.5868168  17.1329236  22.2414112  92.7137375  16.0113335  22.7617407
  16.9052827  10.8019876  89.6444035  17.3928738   9.9865496  89.7607899
  16.3255084  10.6305397  88.9023113 102.5160027  72.3679018  82.9442787
 102.2685528  72.9021502  83.6989880 103.4616470  72.2499466  83.0340576
  65.8276796  98.6278057  54.8043156  66.6470289  99.0270042  54.5118284
  65.3063345  99.3617821  55.1294470  47.2685146  81.7831993  61.2800741
  46.7350817  81.0086536  61.4582825  47.9690266  81.4656544  60.7102680
  64.6219254  71.4265633   2.8661531  64.2300892  70.5851936   3.1002355
  65.5363417  71.2195253   2.6732460  39.3425441  61.6830540  22.7027774
  39.5855522  61.6067505  23.6254668  38.4108377  61.9019794  22.7177978
 105.4334641 103.7616920  53.0892086 106.3802624 103.8968849  53.0503035
 105.1963902 103.9851856  53.9892530  27.9401469   8.6960214  75.3606606
  28.2151675   8.1827825  76.1203861  28.1197214   8.1288952  74.6107578
  52.9023933  50.2308559   3.2304001  53.0197144  49.4120502   2.7487162
  52.0340872  50.1538277   3.6258081  65.2856159  43.8642883  39.1837049
  65.6120491  42.9910088  38.9667726  64.8673105  44.1703558  38.3789825
  77.6736498  63.7072945   8.2223892  77.7088451  63.6092710   7.2708726
  76.7389441  63.7485170   8.4245098  71.0392237  42.9597950  13.8689196
  71.9365120  42.7157974  14.0959907  70.5316401  42.1598196  14.0054047
   2.3565713  81.5304852  78.3565903   2.2068989  80.7831860  77.7774668
   1.7204165  81.4173889  79.0628147  88.9354038 102.8848171  92.1844769
  88.5427475 102.1254539  92.6150799  88.1924438 103.4482288  91.9681549
  56.7921209   9.8609269   0.8749921  57.1923351  10.6759131   0.5719143
  57.1628761   9.1860837   0.3063456  96.7182064  88.4125996  44.6343279
  97.6246452  88.6831856  44.7805452  96.2930107  88.5307121  45.4837370
  44.0234375   0.7025611  67.3429728  43.5674334  -0.1073740  67.1142912
  44.0606213   1.1960247  66.5236139  84.0703392  82.6441669  76.5552521
  83.6738682  82.1085644  77.2423983  83.4288216  82.6357365  75.8448887
 112.5664997   5.1159054  47.7170467 112.8285694   4.8393744  46.8389320
 112.1216774   5.9526217  47.5818729 113.6068439  85.8572388  62.5594044
 113.3370590  86.0448647  63.4584236 114.5313358  85.6198025  62.6313734
  68.6104107  12.6427746  46.5438366  68.4008026  12.2004223  45.7212639
  67.9202700  13.2981455  46.6459703   8.5887080  72.5776243  80.4717350
   9.2587882  72.2436380  79.8753452   8.4271336  73.4726667  80.1733685
 101.2355137  84.2668247  55.4073000 100.8248997  84.6166134  56.1980438
 102.1490860  84.5458984  55.4683161   4.6430799  88.3665466  72.7497530
   4.0865847  87.8172779  73.3018827   5.2534747  87.7535915  72.3399591
  38.8841581  50.1751852  20.7299376  38.6422205  50.9580135  21.2247920
  38.9837480  49.4932079  21.3941789   1.8210034   0.7159523  75.3159475
   1.7229965   0.7086731  74.3638039   0.9297108   0.8246099  75.6476450
   8.6695862  88.1735706  92.6889896   8.7725395  89.1209221  92.5986099
   8.1403929  87.9170227  91.9337559  94.5368004  76.4535093  79.8791409
  95.4654217  76.6843939  79.9033642  94.2951775  76.3359547  80.7978535
  95.2024841 108.5392952  70.8297157  94.5873833 108.5771179  70.0972891
  94.8564625 107.8509617  71.3977766  81.2818050  17.0328987   3.3144742
  80.9057713  16.9898260   4.1936642  81.0914898  16.1770427   2.9303840
  97.8866863  57.7056265  67.2815943  98.5968018  57.3618221  67.8235960
  98.2109928  57.6278496  66.3843727  53.4498215  82.5220776  23.1985164
  54.0759993  81.8603230  22.9048920  52.6458454  82.3201370  22.7199030
  21.3838434   4.1124189  92.3772144  21.8108916   3.4037220  91.8959522
  20.7972193   4.5165843  91.7378712  42.8503847   0.6182281  50.2756119
  42.7815104  -0.2202608  50.7321501  42.9869795   1.2599243  50.9726048
  63.2746506  98.5838985  86.1662769  63.7360811  99.3204975  86.5671921
  62.4271870  98.5616302  86.6107368   9.6643341  79.0968847  67.4013233
   9.8468775  79.3612719  68.3029938   8.8161153  78.6557865  67.4481201
  23.4215999  67.2108984   8.4485543  23.6268568  68.0762863   8.0947119
  23.7218761  66.5997028   7.7758670  74.4859314  20.3720212   9.4160867
  73.5535240  20.4954886   9.5938629  74.8147583  21.2533593   9.2390388
  14.0119815  35.2727771  30.0588775  13.6387265  34.3992734  30.1767778
  14.1010177  35.6171393  30.9475374 103.9981079  72.9949713  94.4127083
 103.5872555  72.8203917  93.5659790 104.9316597  73.0700493  94.2150116
 113.7162590 106.5862751  80.1065826 113.1462002 107.3493958  80.2009964
 113.7759113 106.4473534  79.1613960  83.8722229  67.8985786  75.7209682
  83.2169533  68.2564926  76.3199282  83.8188267  68.4575462  74.9457645
   2.2564797  70.7561445  83.5328770   2.1801175  70.2116251  82.7493572
   2.8774220  71.4422655  83.2881260   3.0012918  16.2502193  94.7500992
   2.5758478  16.2937403  93.8937569   3.8512176  16.6698778  94.6168995
 112.4535847  95.8693027  88.2581806 112.3680210  96.1104679  89.1805363
 112.7415848  94.9566078  88.2749748  60.8500719  34.6839142  19.9573267
  60.7304335  34.1205096  20.7218504  61.7994928  34.7568035  19.8597431
  92.5731468   2.4914449  94.1442108  93.0177498   2.5313184  94.9909496
  91.6590214   2.6932415  94.3439293 107.6796532  80.6871891  68.8698149
 107.8667450  81.1594677  69.6811008 106.7244339  80.6343651  68.8382626
  96.9658852  96.5293789  84.5745182  96.2617111  97.1522427  84.7545242
  96.6060257  95.6803131  84.8310471 104.0335751  92.8181076  66.6682816
 103.9133072  92.0194721  66.1545134 104.9489021  92.7882290  66.9466877
  28.8625264  72.0593357  94.3894768  29.5769572  71.8893671  93.7755299
  29.2981029  72.2064590  95.2290344 100.9495640  77.7127171  80.8339310
 101.6369820  78.0929613  81.3808250 100.2317238  77.5338793  81.4413452
  82.1903419  65.2281904  65.1522827  82.2787189  65.4868984  66.0696077
  81.8377590  66.0045719  64.7173691 111.1108112 103.5136414  84.7773266
 111.0899353 104.3585873  84.3280506 111.3820362 102.8905582  84.1032028
  62.8575468  16.9705570  77.2877789  62.3103142  16.1893094  77.3679113
  62.2362900  17.6844370  77.1440792  80.9188080  70.7921314  66.7897797
  81.2729645  70.7040548  67.6746798  81.1265469  71.6917038  66.5370989
  31.5398574   7.9222435  54.4595671  31.5895247   7.1372771  55.0050879
  30.9452248   8.5049427  54.9319077  52.1264696  44.7456932  21.0250497
  51.3476324  44.9863529  21.5267706  52.3443222  45.5342102  20.5280471
  17.2757828  45.7153702  73.3152533  17.9520118  45.3486013  72.7456665
  17.1911907  45.0801897  74.0263271  74.3643570  36.8496442  24.0462875
  74.1620827  36.8008828  23.1119752  74.2639160  35.9510136  24.3603086
 109.0700722  98.7731457  70.6914854 108.9020157  98.1151104  71.3660002
 108.2112122  99.1547298  70.5098724  61.5611792  55.7278872  12.4380910
  61.2924147  54.9168205  12.8695571  61.4279366  55.5585718  11.5054548
   3.3716816  56.9296265  20.3795195   2.9458302  56.2204075  19.8979640
   3.1380114  56.7720699  21.2942886  93.6238956  91.4372349  82.4727345
  94.1170692  91.4011097  81.6531563  92.7301598  91.6514778  82.2052193
  83.4336853  77.0647049  42.3321199  83.5826683  77.9790401  42.5730085
  83.3023357  77.0851088  41.3841915  12.5922632  74.2930794  16.0458243
  12.4921799  75.0295353  15.4426241  12.0539010  74.5277166  16.8016958
 104.0085697  40.0226879  83.8557053 104.3196011  39.4447064  84.5524311
 104.7459888  40.0842762  83.2485390  60.8316755  70.4699469  11.9583881
  60.9761906  69.7046614  12.5148845  60.8804226  70.1292276  11.0652089
  88.6046124  96.5201569  88.6258316  89.0872860  96.9665813  89.3214989
  88.3429337  95.6851101  89.0137005  84.0813637  72.2360802  84.4902897
  83.5026550  71.5282488  84.7736740  83.7123871  73.0225515  84.8922253
  98.5540676 108.7465763  83.8741302  97.8896809 108.3370781  83.3199310
  98.7557983 108.0844021  84.5352364   3.6224249  87.1757603  80.4296207
   3.5783139  86.2258339  80.5387592   4.4534141  87.4249840  80.8340740
  76.1596584 103.5853291  87.2221661  76.7142916 103.6094761  88.0019283
  76.5197468 102.8727913  86.6940975  54.7398663  37.8796768   5.3471357
  54.4106197  38.0364084   6.2321579  54.0118074  38.1210256   4.7744969
  84.4910240  93.5596561  88.3996487  84.7849274  92.7288818  88.7733650
  84.2025185  93.3355618  87.5149059  31.0666513   6.0287040  84.8924637
  31.3715458   5.5683011  84.1106033  30.7612181   5.3339010  85.4757214
  80.7310772  93.6315632  57.2785234  81.3638592  94.2948246  57.0030355
  80.7765293  92.9599094  56.5980434  67.4838638  95.0712490  75.2370787
  67.3537159  95.9492493  74.8787355  66.9614410  94.5020580  74.6719885
  93.9370918  60.4143906  68.7225723  93.0151081  60.3762007  68.4681797
  94.3312836  59.6455765  68.3105421 109.4066811  97.4033451  89.0333462
 109.5784569  97.1526718  88.1256580 109.4578552  98.3591747  89.0316296
  77.2173786  77.4778128  59.9413443  77.9614496  78.0546141  60.1142216
  77.2419596  76.8359375  60.6510115   0.6580807 108.0695057  75.1404905
   1.2506743 108.7812519  75.3823185   0.3798184 107.6950932  75.9763241
   7.7437466  73.6201811  83.5174847   7.5046486  74.2707634  82.8573227
   7.1135426  73.7544441  84.2253304  91.4411736  32.2035694  12.5084090
  90.9504509  32.5453925  11.7610240  92.3567295  32.2426820  12.2319114
  68.3776999  84.7848129  85.9447479  67.7399731  85.4052544  85.5917645
  68.9605904  84.5960331  85.2093315  86.5155315  85.2042770  62.0997953
  87.1394253  85.8627892  61.7942715  86.6672897  85.1501083  63.0433321
  68.7830877  93.0838394  82.7775574  68.5121489  93.7568665  83.4019566
  67.9628038  92.6969910  82.4714184  40.8442020  32.7868080  24.9851847
  40.6547499  33.7018871  25.1924753  41.7986965  32.7475381  24.9249029
 104.1131973  77.8405905  50.2074575 104.4040775  76.9575596  49.9796724
 103.3868122  77.7040482  50.8156919  23.5497522  16.5085888  63.0440903
  24.1540313  17.1102118  62.6092005  22.6798296  16.8289673  62.8057098
  86.6639423  91.2741756  94.3173218  85.8824062  90.7215500  94.3109035
  86.3350773  92.1518612  94.5116043   6.9388568  87.7810097  79.4781542
   6.6221744  87.6029015  80.3637123   6.3224465  88.4242916  79.1282129
  61.6881132  79.6176767  66.0570240  60.8979988  79.1324759  65.8192539
  62.3304129  78.9403629  66.2689924 100.0102425  87.9623222  71.6093254
  99.1239643  87.8820229  71.2567663 100.2254772  87.0825195  71.9189262
  96.6412163 107.2285938  82.6004314  95.7719135 107.0906925  82.9766369
  96.5613365 106.9264507  81.6956902  77.8135157 107.0869160  49.7899580
  77.8965235 107.8741550  49.2518187  77.6771879 106.3793564  49.1598701
  84.7250843  16.8466461  41.9524288  84.3593884  16.7083693  41.0787153
  84.9753666  17.7704775  41.9638634  54.8235559   2.5079763  57.0983791
  55.1915216   2.5888008  57.9783201  54.6536016   1.5716851  56.9949055
  57.5037289  26.2193823   7.8990018  57.5790453  25.5595160   8.5883027
  58.3949327  26.5495610   7.7851033  24.2428637  11.1659217  84.8958588
  24.1498232  10.6026638  84.1275406  23.7421274  10.7220376  85.5803013
  19.6701598  30.1592112   6.4812726  19.3766594  31.0410857   6.2523979
  19.6328819  30.1349902   7.4374402  38.8148785  35.9937930  82.5754166
  39.2899585  36.0655785  83.4032917  39.2023754  35.2333450  82.1420574
 103.5924625  99.9759293  88.6141872 104.2239571  99.9541569  87.8951645
 102.7972984  99.5903873  88.2463455  36.6482162  -0.1821451  86.9409657
  36.8672895   0.2921010  87.7430439  37.2694588   0.1465000  86.2911320
 115.7146931 104.4175816  79.8832226 116.1948967 104.5993233  80.6910610
 115.0365353 105.0923252  79.8507404  40.4065895  61.7749929   7.7694732
  40.3942108  62.7318811   7.7906215  41.2183475  61.5560150   7.3119473
 108.0860329  99.8223495  60.0073576 107.9292011 100.7664013  60.0273943
 107.3872662  99.4519806  60.5466080  85.7651234  41.1756945   5.8019680
  86.3594627  41.3272667   6.5368229  85.4525471  42.0482397   5.5628186
 113.1748390  25.3752875  94.3131065 113.1799126  25.5447578  93.3710384
 113.0329990  24.4314575  94.3859100  81.4431381  60.1826048   8.8622165
  80.8796501  60.1411057   9.6348697  81.1147022  59.4901180   8.2887840
  83.3864594  48.5987425   1.6792922  83.4478951  49.2053699   0.9414165
  84.2737865  48.2543707   1.7807579  73.8965750  34.1878366  25.2381253
  74.4866180  34.1221404  25.9889674  73.5600090  33.2996392  25.1195598
  76.0538149  94.5003986  74.2660379  75.4396915  93.7941360  74.0653610
  75.5241013  95.2967072  74.2270231  22.3437142   2.0445444  77.9260302
  21.7471051   1.7417327  77.2414875  22.9847503   1.3391945  78.0142641
  18.7353361  89.8787022  71.4953661  19.3183601  90.4658508  71.0141373
  17.8585911  90.1036072  71.1839676  91.2559509 107.1315384  53.3661985
  92.1517277 107.4647236  53.3133173  90.7194042 107.9098225  53.5166168
  97.9346275 108.8413906  71.0156059  98.1406975 109.7596169  70.8406019
  97.0196247 108.7466335  70.7509708  33.6462784  98.6266994   9.3294352
  33.4621572  99.0462208  10.1698685  33.6511397  97.6897812   9.5253992
  68.8495255 106.3749981   2.2521634  69.8013496 106.3162422   2.3346922
  68.7093735 106.9523811   1.5016821  86.6061211  89.6718121  76.5482712
  85.9220123  89.1029835  76.1951971  86.1328697  90.3209877  77.0687008
 103.0305672  55.2682447  56.6569376 102.2494793  54.9523067  57.1111536
 103.1322384  56.1719513  56.9556189 106.7483330  67.9928398  65.6661844
 106.8695068  68.8577795  66.0578823 106.7837429  67.3874378  66.4067698
   5.1729107 105.6016731  86.8284893   6.0843205 105.7260227  87.0932484
   5.2053702 104.8964787  86.1820507 103.8834095 102.1357727  61.6240788
 103.4094048 102.8268147  61.1614561 103.2614613 101.8144321  62.2768879
  65.1295900  72.9898930  80.8318996  65.5537271  72.6118135  81.6022205
  65.1522493  72.2906590  80.1786137  41.5243530  25.9627604  68.7014532
  42.0699310  25.9934068  67.9155588  42.1368694  26.1015940  69.4237995
   5.5685461  71.0575867  91.0857487   6.0419786  71.8181658  91.4228153
   6.2507468  70.4916048  90.7245064  99.8556519  71.9053984  94.1821194
 100.4800606  71.5820456  94.8315716 100.1839352  72.7728176  93.9453697
  69.7409344  26.1506414  16.8426585  69.5797825  25.2075481  16.8716228
  69.5016813  26.4072657  15.9520781  74.5981884  63.1386232  21.2157273
  75.1038647  62.3815823  20.9200740  75.2355528  63.6899137  21.6696811
  38.7372804  69.7534180  15.5784214  38.7521267  68.9558315  15.0493991
  37.8260279  70.0447273  15.5470181  87.7989674  38.6352992   9.6098465
  88.7080193  38.3564258   9.4999075  87.5354958  38.2662320  10.4528201
  37.1627760  60.9795237  18.6962461  37.9765058  60.5916500  19.0181601
  36.4711666  60.4642487  19.1114569  98.1567287  85.1490688  64.7710037
  98.2911777  86.0101128  65.1669168  99.0316582  84.7624397  64.7356462
   2.6195309  95.7602310  75.8302784   2.8966638  95.8317852  74.9168730
   1.9801217  96.4636612  75.9423828  38.2374549 100.0252724   2.7140406
  38.6268282  99.2474365   2.3145419  37.7800727  99.6940994   3.4869289
  37.7413058   4.4314927  78.4919500  37.6974034   4.3846658  79.4469976
  38.1243300   3.5947686  78.2284832  72.9635668  97.3502922  79.1559076
  72.5682068  97.3739719  78.2844925  73.0771017  96.4182758  79.3421602
 111.3457489  90.0856686  90.8203220 110.9079456  89.9719143  91.6638947
 111.2833691  89.2277241  90.4004765  84.8548794  92.0541286   8.2984382
  84.8410892  91.3133335   7.6924181  84.0645790  92.5511360   8.0871814
  21.8645930  78.5704279  94.1312599  22.1761227  78.9578629  94.9492264
  20.9534621  78.3367634  94.3086624  76.2275457  84.6280670  10.1294708
  76.8872166  85.0525761  10.6779754  76.6487598  84.5379353   9.2746699
  79.0021372 103.9562511  76.0847473  79.3651628 103.1812286  75.6560469
  79.6197033 104.6570301  75.8755875  99.8977566 103.0206585  55.8261347
  99.4339943 103.7017822  55.3390837  99.5736694 103.1046295  56.7228794
  33.7586021  98.2648563  94.1851521  33.5925364  97.5770187  94.8297691
  33.6758733  99.0807629  94.6787834   8.0872446   3.5612518  68.7084579
   7.5155246   4.3273878  68.6594248   8.1602156   3.3763912  69.6447992
   6.2789017  73.6964178  64.6489620   5.4690462  73.7161160  65.1588440
   6.0053188  73.4159470  63.7756252   3.2191733  92.5892353  57.8357124
   2.9583371  93.3174229  58.3995724   2.4153425  92.3392963  57.3800611
  87.1875858  91.8919563  74.2009354  86.9242859  91.1421967  73.6672974
  87.4968719  91.5058804  75.0203943  25.3418326   7.2421110  94.3741417
  24.8286486   6.4577490  94.5681763  25.9086156   6.9837737  93.6473274
  13.8620639  10.4926252  87.7065468  13.2520664   9.7773278  87.5263119
  14.6813452  10.2182746  87.2945499  38.5328746  42.4610758  24.1940928
  37.8964472  41.8519497  23.8197136  38.9259076  41.9794464  24.9219561
  79.9042797  90.6002998   0.2400267  79.9331331  89.6435928   0.2291613
  80.8062840  90.8650970   0.4203087  90.4972076 105.9225941  65.3192711
  89.7887135 105.7154751  64.7098589  90.1135731 105.7907772  66.1862707
  46.0087872  55.9028339   8.6699837  45.5719519  56.7375231   8.8393968
  46.6260386  55.8040762   9.3948859  83.9519787  52.5603580   0.6891979
  83.5541916  51.7590189   0.3488249  83.4974766  52.7207994   1.5161923
  75.4721498  17.3080671   8.1852639  74.8940372  18.0118990   8.4796101
  75.1097775  16.5174723   8.5851103 104.3226147  33.0586267  41.3460302
 103.7690926  32.4054623  41.7740726 103.9294624  33.1760764  40.4812384
  35.0732255  12.4505830  77.1973038  34.1581202  12.3968363  76.9217539
  35.5281186  12.8288460  76.4448261  35.1890564   6.3566136  78.7638807
  35.5401421   7.0596755  78.2173681  35.8857250   5.7006031  78.7870026
  61.5295935  61.7736483  13.1201899  61.0324097  62.4326086  12.6356149
  62.3043442  62.2405195  13.4332824  78.7388659 101.6063690  83.1817818
  78.3838701 101.3304138  82.3367691  79.4839048 102.1640873  82.9579639
  73.2294559  32.3176098   7.2363955  73.9850426  32.2895885   6.6494250
  72.4757957  32.1757579   6.6635901  13.9871764  67.0734596  61.4017820
  13.8522375  67.7517033  62.0636082  13.2103240  66.5179682  61.4662552
  57.1571541  28.1414390   5.1025832  56.5593290  28.1804347   5.8491170
  57.4233770  27.2231531   5.0566405 109.3335342  13.3457279  93.7054825
 109.2374420  13.4518158  92.7590466 109.7714329  12.5008273  93.8085461
  92.9747200  39.2772985  22.1553993  93.5413933  38.5341525  21.9483924
  92.0871353  38.9219761  22.1087766 107.8066921  15.7308829  83.1650257
 106.9691277  15.9295797  83.5836315 107.6156235  14.9939072  82.5848675
   7.0882112  94.3587780  61.5889883   6.3567644  94.6948338  62.1069527
   6.8306553  94.5160770  60.6806087 115.7454205  76.1817932  91.6564369
 115.5018425  75.2601242  91.5702248 115.2434540  76.4927197  92.4098206
  69.5434523   8.5383970  83.1314468  70.4198408   8.9082032  83.2383347
  69.3241405   8.7032551  82.2144127  97.5159836  61.3675737  89.3432999
  97.3104668  60.6699800  88.7209129  98.4725475  61.3951159  89.3649006
  29.0826726  16.3611364  87.4250698  29.7594380  16.9970322  87.6571369
  28.9337134  16.5004504  86.4898491  16.7068946  91.0804367  77.0594692
  16.7536986  91.7904758  76.4192486  15.9977365  90.5200958  76.7442799
  18.0371833  18.2974148  59.3563175  18.4545648  17.4576879  59.1642666
  18.3928895  18.5525489  60.2075577  62.2530031  89.9643040  74.5265055
  61.4810848  90.4035568  74.8834801  62.9836559  90.5371666  74.7593451
 105.4845047  72.6480103  83.2820415 105.9570312  72.1321201  83.9353371
 106.0547733  72.6412535  82.5132942  61.2653685  21.1710119  30.8520889
  62.1546793  21.5157533  30.9327340  60.9305811  21.1598587  31.7487645
  41.6124201  18.0645013  53.4634781  40.7161379  17.7635407  53.6129141
  42.1596384  17.4180424  53.9094305   4.7410589  91.0060024  88.5908413
   4.2914891  90.4732990  87.9348278   4.8426408  91.8623161  88.1753540
   8.6238307  75.8660460  55.6074238   7.6933014  75.9092236  55.8276129
   8.8750613  74.9637556  55.8048725  67.0789671   9.7195727  70.9554720
  66.3039970   9.9664450  71.4601660  66.7682219   9.6626282  70.0519085
 101.3218021  86.7319965  78.1675768 100.8255959  87.0737171  77.4237776
 100.7598972  86.0513115  78.5379410  14.7625744  81.2936592  62.7118158
  14.0446556  80.7689571  63.0660963  14.3559647  82.1273422  62.4754572
  42.8195333   6.1671680  70.3037071  42.3093176   5.3870940  70.5214167
  43.0229187   6.5643692  71.1505270  80.9353065 101.8602180  80.0746059
  80.1144886 101.3952255  79.9125624  80.7861233 102.3308182  80.8946800
 111.9563103  24.4705534  14.6924353 112.6843548  24.3282676  15.2973652
 111.8466663  23.6300611  14.2477083  56.2581348  69.0575504   8.7029201
  57.1851540  68.8207912   8.6744171  56.2536335  69.9756527   8.9736623
   5.7249439  90.2428913  84.7139931   5.3212202  89.3750000  84.7163963
   6.6641963  90.0699520  84.6497345  13.0340993   4.5439446  70.0298071
  12.9043305   3.9250892  69.3111897  12.9866636   5.4055059  69.6154499
   1.7186452  92.4656105  88.7083340   2.0681420  91.5840149  88.5784626
   0.7870720  92.3307514  88.8821602  51.4443922  33.5571575  63.7319803
  52.1648216  34.0499425  64.1248941  51.5979528  32.6518631  64.0023375
  14.0424311  89.1219139  25.5786514  14.9023306  88.8594627  25.2501273
  13.8434529  88.4847355  26.2646914 108.9148045  95.0651836  66.3142443
 109.1424751  94.7060776  65.4566622 109.0602493  94.3412399  66.9233322
  60.2569437  22.1743584  67.6745129  60.4019594  23.1151056  67.7754879
  60.1946449  21.8440628  68.5707569 109.7629642  97.9168129  74.5832253
 109.4384003  98.7565422  74.2580271 110.7133865  98.0248356  74.6185827
  45.3684950  92.7340031  79.5608473  45.2566004  91.8517971  79.2066956
  44.5207500  92.9441833  79.9524927  13.1036115  92.8420162  72.2580147
  13.7751782  93.3075714  72.7565002  12.9630876  93.3837318  71.4814711
  28.5283923   1.1218116  28.6048412  28.8064003   1.1953334  29.5178246
  28.9695883   0.3358166  28.2826781  96.3359833  72.9497290  72.0503521
  95.4659462  72.6878214  71.7492390  96.3605499  73.8972235  71.9166279
 103.3131886  81.5552044  84.3642235 103.3962440  82.4898624  84.1751099
 103.8904381  81.1302662  83.7298298   4.8512948  75.3340197  69.6846485
   5.4274374  74.5775938  69.7947025   3.9717948  74.9898958  69.8405027
  83.7085915   9.4354475  83.3547592  83.3184528  10.0394237  83.9866161
  84.5886993   9.2704868  83.6930275  62.7492094   6.8555677  74.4326878
  62.2163868   6.9703847  73.6458302  62.9851675   5.9279144  74.4289112
  35.2788377   3.2125056  38.6352491  35.1645446   3.2700664  37.6866412
  34.7026825   3.8908768  38.9875102  73.4830666  40.1125669  48.7453175
  73.7372112  39.5906615  49.5064068  73.4434223  41.0109234  49.0733671
 114.8997498  84.0031815  50.6612492 114.3099117  84.7532082  50.5851889
 115.7649040  84.3911743  50.7923555  96.1018848  85.7589245  12.7954519
  96.8573093  86.3466167  12.7819800  95.3924656  86.2718487  12.4083292
  65.3181744  27.4250340  54.0215063  64.5915461  27.1976686  53.4413815
  65.7087040  26.5835476  54.2573404  25.8979440  52.1582937  72.6109552
  26.1559463  53.0255890  72.2987652  25.0709176  52.3051977  73.0699539
  12.5765395  77.5714779  76.4987469  13.3464825  78.1140804  76.3284492
  12.2623742  77.3219967  75.6296682  94.6301651  91.5921688  26.1607242
  94.8138237  92.3414040  25.5940342  93.6862946  91.4556408  26.0788798
  35.0329828 108.0399036  79.0664148  35.0947785 108.1664085  78.1196260
  34.2122388 108.4668446  79.3120384  19.9036646  87.9983044  76.4738178
  19.3806899  87.8780270  77.2664499  20.4833674  88.7320137  76.6784000
  47.4327374 106.1820412  28.6420178  46.5739441 106.5833282  28.5090780
  47.7052069 105.9041309  27.7675128  66.7925310  86.6239548  65.4572916
  66.1393976  86.1952114  64.9042749  67.2320414  85.9045029  65.9105587
   5.2762699  96.0772514  78.3865499   6.1661494  95.7785416  78.5739470
   5.1266336  95.8269978  77.4748373  21.4618301  22.5092983  25.6645083
  21.4093757  22.9778028  24.8314524  20.7494998  22.8740096  26.1896777
  28.5280132 103.2480145  75.8255911  28.0063343 102.6959991  76.4081335
  28.5617542 104.0968800  76.2666416  61.6543865  18.6771142  87.6935387
  62.3229790  18.0071175  87.8360844  61.9203997  19.4044387  88.2560921
  86.4551449  40.0102425  15.1357388  85.6866646  39.7693515  14.6184015
  86.2366295  39.7422194  16.0282898  13.1916094  83.3341408  61.6170883
  12.6140630  82.7624702  61.1112595  13.5890520  83.9109039  60.9646940
  69.2500734  23.2692361   7.5565833  68.7594318  22.5492287   7.1602392
  69.1775084  23.9847922   6.9249618  96.5285492  73.0636358  11.5800869
  95.8282185  72.5138569  11.2286413  97.0205212  73.3466578  10.8093143
  47.4813557   7.3301864  41.4198780  47.7604866   6.6207868  40.8410263
  46.5671396   7.1298283  41.6206312  74.8555183  89.3704414  68.4259176
  74.7466898  90.3000832  68.6263227  75.1935530  89.3564320  67.5305033
  24.3747258   2.6729465  36.0038757  24.8426461   3.5041881  36.0833740
  24.9502063   2.0331103  36.4229989  21.1649132   7.0714474  84.1253757
  20.2759194   7.2709835  83.8319302  21.0508752   6.7023063  85.0011349
  13.1801760  90.7648945  49.6243477  12.3912215  90.3890038  49.2338514
  13.0010915  90.7738972  50.5646038  41.5748787  39.2462063  70.9282684
  40.9315968  39.3419886  71.6305828  42.3085165  38.7864733  71.3365030
 109.4033051  73.3958292   5.6749940 108.5618496  73.7527370   5.9592474
 109.2492676  72.4545527   5.5943292  66.6844940  58.5199738  11.8802714
  67.0611525  58.0156088  11.1591792  66.8791914  58.0026531  12.6617455
  95.3821850  95.5074406  78.7507153  96.0144615  96.0969734  78.3397341
  95.7875538  95.2639675  79.5829582  77.7302074  88.8618946  10.8601165
  77.2645855  89.6967411  10.9096837  77.6675510  88.6069775   9.9396127
  70.3905678   4.0931237  64.8573589  70.8343697   4.3149477  64.0387869
  70.0369835   4.9253938  65.1712704  81.9772434  64.4222689   0.5294289
  81.1811543  64.8534679   0.8401562  82.6897621  64.9002266   0.9538189
   5.5265534  99.6628571  43.0808973   5.0559336 100.4128265  43.4446192
   6.4487833  99.9158859  43.1221199  15.5347002  94.9471855  55.1645327
  16.4551246  94.7761059  55.3639889  15.4371572  94.6927166  54.2469501
  51.6467381   0.9424299  44.3822336  51.6319466   1.7566873  44.8852253
  52.5089407   0.5666616  44.5601082  16.3181698  71.3337040  86.0332680
  16.8423963  70.5746651  86.2887573  15.4453182  71.1497736  86.3804436
  23.4968209  13.7665260  72.5673580  23.8921571  13.9832664  71.7229843
  22.7261281  13.2446051  72.3440647  39.2017603   6.7998081  87.8409863
  39.2234468   7.2326243  86.9875050  38.3685541   6.3287187  87.8495407
  99.1499615 104.7246265  74.4325161  98.5484791 104.0584373  74.7651529
  98.8862991 104.8517609  73.5211706   8.7070107  87.3130894  53.9822578
   8.1874985  86.6659164  53.5052872   8.1068361  87.6643562  54.6400070
 100.3013992  62.1010876  10.1896548  99.4751167  62.0341921  10.6681943
 100.1336765  61.6563892   9.3587852  14.5866919 107.9830933  79.6093416
  14.6740174 108.4692383  78.7894249  15.0091457 107.1419907  79.4352341
  80.8963299  59.8228502   3.4546992  81.0785103  60.4580021   2.7621523
  80.8592415  58.9798355   3.0028319  88.6033344   9.8495013  81.2771320
  89.2852497  10.0470579  81.9191456  89.0681744   9.7986937  80.4419231
 106.1684608  98.8099003  50.1112747 107.0426464  99.1213894  49.8767376
 106.2050152  97.8640652  49.9688339  45.0230455   6.6330135  42.8067350
  44.8058271   6.8786544  43.7060165  44.2914152   6.0838097  42.5250912
  50.1760626  25.2838778  22.3058176  50.3407621  25.6763554  21.4484572
  50.9521818  24.7508454  22.4783039  63.8738251  54.9180889   4.4562519
  63.1357670  54.4451666   4.0717480  64.4484329  55.1088905   3.7148643
  51.5101337  20.3975868  84.8912430  50.8781624  21.0385108  85.2169132
  52.1728420  20.9218311  84.4415569  79.1055250   2.7787983  47.2352219
  78.3007574   2.5266859  46.7824316  79.7269678   2.0817265  47.0251513
  82.1021843 102.3480988  89.8315334  82.1504784 102.0859528  88.9121914
  81.2829590 101.9663429  90.1467323  54.4840765   3.0620450  83.2779503
  54.0582323   3.8590848  83.5935688  54.3764544   3.0933324  82.3273373
  29.3062735 103.9138317  64.6808672  29.4091034 104.1188526  63.7515545
  29.3218708 102.9574871  64.7183037  12.0727968  18.1144905  82.9948235
  13.0212510  18.2430434  83.0066395  11.7188025  18.9663243  82.7392864
  36.6950393  99.8450947  65.0852013  37.3604989  99.4071865  65.6158924
  36.0854816 100.2157497  65.7233906  49.5638704   3.8809088  84.9700165
  48.9498281   3.3947575  84.4196987  49.0888357   4.0263277  85.7881927
  81.8428898  73.5957050  94.0479088  82.1875095  73.4297180  94.9253559
  82.5447655  73.3192873  93.4586716  20.6351972   2.5577670  72.8032827
  20.9261870   2.5746718  71.8915415  20.0384450   3.3024302  72.8780842
 106.0354996  90.1982307  89.6837425 106.8161011  90.6100941  90.0542068
 105.6645393  89.6935749  90.4075909  94.2244816  97.5214863  83.0770016
  94.1718292  96.6548347  82.6740456  95.1015186  97.8352451  82.8565693
  77.2803974  61.8194103   1.9152196  77.2886086  62.2453260   2.7724010
  78.1564903  61.9746399   1.5622395  36.7130208  82.1199036  64.9509096
  36.7926836  82.5644302  64.1069460  36.9265151  82.7929211  65.5972004
  16.4936817  15.0697732  83.1519032  16.7607844  14.6038604  83.9442539
  17.0389438  15.8564174  83.1413078 105.4864693 107.1530151  75.0266171
 105.4564667 106.3048840  75.4693413 104.9408531 107.0366096  74.2488050
  38.2845521   9.0608662  84.1985512  38.8412642   9.0173560  83.4211159
  37.6967692   8.3100748  84.1145611  61.5302849  11.2998772  40.6440353
  60.9273481  11.3967454  39.9069333  61.8210697  12.1917462  40.8344173
  21.9855833 100.2815723  34.6939158  21.4635515 100.6529140  33.9827061
  22.5287867  99.6168423  34.2704773  31.6311574  91.1251068  20.4977012
  32.3135948  91.4689255  21.0741544  31.1361527  91.8977261  20.2251863
  76.3362122  19.6764040  66.2483120  76.9595480  19.8043084  65.5332375
  76.6289425  20.2791023  66.9319010   0.9917033  97.8087616  42.6335812
   1.2793753  97.3931885  43.4464645   0.1570210  97.3862934  42.4309540
  19.0444720   9.5540804  76.8188190  18.4452343  10.2888846  76.9500017
  19.2872405   9.6051079  75.8943224  19.4077647  97.5998116  62.6110172
  19.8627782  98.2331467  62.0559645  19.5614266  97.9096508  63.5035563
  15.9639215 108.2563591  85.9839821  16.9041765 108.2583427  86.1632729
  15.8717716 108.7720203  85.1828384  86.2234497   0.3348811  58.6041641
  85.6901264   0.1116420  59.3670321  85.8012867   1.1108699  58.2355833
  81.5219116   3.5554925  76.0499859  80.5831337   3.7278619  76.1222601
  81.5817070   2.6108634  75.9073925  80.8841991  81.0461998   5.8011681
  81.7420292  81.0885239   6.2237442  80.2815151  81.4187336   6.4447683
  66.2281752   7.7792186  86.4908695  66.7850113   7.2560394  87.0674515
  66.8397093   8.3315241  86.0038185  40.3362226  11.7680621  42.9688835
  39.9772882  10.8946097  43.1253433  41.1896467  11.7574584  43.4022284
   4.1345152 102.3135185  33.8970566   3.9735085 101.3864899  33.7211847
   4.0241024 102.4003696  34.8438907  11.4875340  87.1168327  71.1542320
  11.8536055  87.9788971  71.3519049  11.9389439  86.5219021  71.7529964
  18.6568689  97.2044754  79.5082045  18.7907672  98.0832577  79.8632097
  19.4950318  96.7619038  79.6418142  94.8455906  31.4671898   2.5077832
  94.4994831  32.3581791   2.5585920  95.3105068  31.3432860   3.3352712
  82.0064354   2.8701192  35.3202891  82.1410751   1.9597283  35.0570583
  81.7111683   3.3089513  34.5224953  51.7215633   8.0980432  76.5082264
  52.1473312   8.1287456  75.6514788  52.4062538   7.7964324  77.1052694
  83.8828087  20.7252431  47.0442820  83.8224030  19.8216581  46.7342520
  83.4425449  21.2403607  46.3682222  76.5180826  91.8684769  10.4212797
  76.0989523  92.3969936   9.7421443  77.3749447  92.2760868  10.5472553
 113.6822701   0.3299211   4.2924893 113.9685726   0.0869841   3.4120089
 112.8670502  -0.1548417   4.4215441  87.2663116   1.9280219  63.4600258
  86.5758324   2.4868692  63.8166237  87.3700237   2.2231644  62.5553894
  33.2126260 102.4811554  36.4514470  33.1115317 102.6095963  37.3945880
  33.0917573 103.3535671  36.0765982  97.1972179  71.6977692  13.7130535
  96.9433880  72.3340893  13.0445492  96.7286110  70.8983755  13.4730208
 113.9952850  98.4824181  64.2118502 114.1939259  97.6574707  64.6548462
 113.0625916  98.6231613  64.3746328  48.4304094 102.9431629  35.8443546
  48.6735630 102.5859737  34.9902344  47.5564241 102.5903893  36.0114908
  66.3461494   1.1107673  77.4160576  65.9634733   0.2728923  77.1557617
  65.9863424   1.2781130  78.2871294  36.7095447   7.0755088  66.9780970
  36.3755393   7.4706286  66.1727667  37.5038481   7.5713891  67.1766376
  49.9798012  80.7389259   0.5237291  50.6292915  81.3097858   0.9342343
  49.1433048  81.0253429   0.8904232  64.5240974   4.6997389  88.1517601
  65.1023197   3.9430073  88.0556011  65.0080872   5.3005201  88.7183666
   9.3998754  93.8096333  93.9758492   8.9956188  94.5628071  93.5451031
   9.0995359  93.8629246  94.8831463  58.1702423  37.9652405  42.7290154
  57.2171402  37.9727483  42.8171730  58.3613205  38.6891389  42.1326160
  37.7275467  53.6277342  68.2843351  37.0890164  53.2462549  67.6818562
  37.7129793  54.5643187  68.0872822  21.2446523  98.5942268  89.7851849
  20.4808235  98.0287743  89.8994350  20.9626722  99.4472885  90.1153564
  56.5796280  16.3956237  74.4214439  57.5088406  16.4587605  74.2005014
  56.1452436  16.2296867  73.5847807  47.9835892  11.6073751  60.0581503
  47.8891945  12.2779417  60.7346535  48.2923889  10.8335435  60.5293846
  35.1830435  41.0986900  39.9359417  35.4206610  40.4947996  39.2323160
  36.0029602  41.2550259  40.4044819  21.0220909  79.5300198  81.4887428
  21.1749458  79.2273092  80.5936337  20.1420736  79.2183065  81.7000103
  82.0022106  86.2011337  86.6786098  81.4945221  85.9631062  87.4543858
  81.4459229  85.9488583  85.9416389  48.6698246  13.7611461  51.5908146
  49.4131756  13.6878991  52.1893930  49.0296268  14.1878629  50.8131981
 109.9767590 107.9510880  72.6400137 109.1769791 108.1011105  73.1440592
 110.6370831 107.7330971  73.2978058  79.0533400  62.9332256  41.9350863
  79.9265766  62.5450897  41.8799591  78.7597895  62.7370977  42.8248024
  87.1201515  11.1037159  35.3893304  86.5421200  10.3489459  35.5008173
  87.3938847  11.3291585  36.2784195  27.3464274  80.5465889  92.8779697
  28.0645061  79.9217606  92.9788971  26.9278240  80.2992344  92.0534515
  35.5826116  13.1254494  48.5844803  35.2224994  13.9479077  48.2526493
  34.9048948  12.4753034  48.3994389  42.2583103   3.1580555  83.1555748
  42.8005505   2.5397682  83.6454010  42.8825283   3.6647931  82.6361465
   1.8477172 105.0093651  66.0903454   1.7603308 105.1494980  67.0331907
   1.2938565 105.6829834  65.6957388  87.9958820  75.7635260   2.2927497
  88.6425018  75.4206562   1.6758536  87.3657131  75.0510311   2.3998581
  16.4553988 101.2626457  78.4990120  16.0066473 101.3572598  79.3391895
  15.9775186 101.8421078  77.9056406  36.9193864  93.9924526  60.4141903
  37.5838518  93.8954163  61.0963249  36.3621497  94.7070312  60.7225513
  79.4022608 103.2734871  33.6074233  78.5565519 103.1637478  33.1727219
  79.2955065 102.8371239  34.4526649 111.6491795 108.5553741  45.8485126
 112.3788357 107.9418182  45.9344625 112.0470905 109.3535519  45.5009413
  45.6701708 108.0315685  70.0233555  46.0208511 107.1416473  70.0595140
  44.7788429 107.9517555  70.3630638  65.5664921  68.0455589  29.1862369
  66.0881758  68.1144905  29.9858141  65.4884386  67.1041632  29.0315890
  26.2121129 105.4905987  14.2514634  26.2902784 104.9345303  13.4762847
  25.3124285 105.8161545  14.2229569 110.9113979  56.4901304   5.5123359
 111.1499119  57.4009466   5.3398365 110.1447964  56.5471840   6.0826844
 103.8683224  62.1128845  37.3447323 104.2747116  61.7244053  38.1194329
 103.9887047  63.0556536  37.4584079   4.9773759  62.3378325  50.0563431
   4.6040806  61.9509935  49.2643595   4.9814337  61.6230869  50.6930161
  36.8592381  95.4808426  51.4233208  37.4234176  95.0052357  52.0330143
  36.4851594  94.8008728  50.8630180  40.8865643  22.8738785  72.4433994
  40.5463028  22.4891496  71.6356611  41.0793781  23.7827373  72.2131157
  34.7558475  20.7866669  73.9979267  34.0339398  21.3358021  74.3037510
  35.2238345  21.3350725  73.3682680  19.6803522  88.9954662  53.2896662
  19.1677690  88.6725807  52.5485611  20.5887246  88.9473343  52.9917145
 110.5023766  67.2245169   3.6040759 109.8699570  67.2922277   4.3194047
 111.0166454  68.0297518   3.6620215  43.4722757   5.2270108  63.4534407
  42.9294014   5.6368637  64.1268921  42.8469801   4.9113616  62.8010559
 101.6198254  58.8999224  12.1496487 102.5278950  59.0575695  12.4080634
 101.3138008  59.7455978  11.8219101  54.7302389  86.8259048  78.1155443
  54.5232248  86.5850067  79.0185118  54.0692043  86.3753891  77.5899076
  62.4075174  20.6970835  70.1243305  62.8285646  21.1299038  70.8670378
  62.9725122  20.8980203  69.3782473  25.2135420  92.1805573  74.1872978
  25.9249854  92.7448177  74.4900990  25.0612450  91.5763474  74.9139118
  36.5004110  19.3202686  87.6593208  36.9983673  19.9257314  87.1100616
  37.0736051  18.5600972  87.7584267  47.3513603  24.5060372  70.9680510
  47.0573330  23.6491513  70.6589794  48.1716728  24.3264055  71.4274597
  37.2887444  97.8565693  88.1690025  37.4273467  97.7245140  89.1068649
  38.0687404  97.4850082  87.7569580 107.1229553  87.3714256  71.6671515
 107.2557163  86.9382763  72.5103474 107.7609921  86.9605923  71.0837507
  96.7467976  41.7790556   3.4142593  96.8171501  42.7127743   3.2156461
  96.2457371  41.7446041   4.2291147  52.4849415  82.4511051  74.3222618
  53.0016041  83.0771923  73.8150072  53.0353928  81.6694736  74.3701363
  66.4836359 103.4723282  78.3809471  67.3296928 103.8160229  78.0940914
  66.5686941 102.5229263  78.2935143  18.9178038 103.3792210  23.1266093
  19.4229746 103.6075878  23.9069176  18.0044913 103.4826088  23.3938193
 100.1117134  79.8579502   5.8551776  99.2008972  79.8594475   6.1495370
 100.0936985  80.3220940   5.0182343  47.3058844  35.6881523  70.8084106
  46.8441582  35.4880047  69.9941730  47.8238678  34.9037480  70.9890604
  95.7419395  69.0227890  93.2691574  96.5139771  69.5804214  93.3652973
  95.0009632  69.6175575  93.3850479  33.2321024  20.9930539  85.1889515
  32.9029894  21.3258672  86.0239124  32.4491167  20.7011271  84.7221088
 112.2986126  95.2564526  62.5551319 112.0694733  95.5514812  61.6738319
 112.0060539  95.9648991  63.1284952  52.9573441  34.7473931  67.1159077
  53.5081053  35.1543975  67.7846718  52.5260925  34.0229440  67.5691509
  50.1497221  57.2436428   3.3689347  50.9577084  57.7483368   3.4620729
  49.5146275  57.8701591   3.0219996  52.4962139   4.0878874  92.3466206
  53.2924986   4.5553967  92.5988007  52.7900028   3.1952354  92.1647072
  83.2339382  32.0350409  12.2932470  82.6799488  31.3181829  11.9843090
  82.6444435  32.5906777  12.8031373  25.0808573   8.5955560  86.6457272
  24.3607163   9.2225718  86.7126751  25.7862973   9.0852702  86.2229252
  33.7647557  18.7536073  55.1658297  34.1419387  18.7313867  56.0453033
  34.3304801  19.3518174  54.6776390  50.3512192  20.7673359  62.0238733
  49.9633265  20.0116491  62.4651337  50.0824547  20.6749511  61.1098385
 110.5883694  71.6365814  83.5190773 111.0228062  71.4253616  84.3454456
 111.2805939  71.5717602  82.8611660  38.4290075  12.5299871  47.5062656
  37.5306320  12.6936650  47.7932549  38.9129758  12.3663414  48.3157253
  98.4171867  74.6590900  12.9939651  98.8443184  73.9211512  12.5589585
  97.5006676  74.3939161  13.0708945  14.0266299 106.9191456  60.7425880
  14.7232723 106.2932491  60.5446672  13.2655668 106.5894508  60.2647638
  98.2257557  81.8701458  80.7108784  98.5036087  82.7452278  80.9815407
  97.4922943  82.0251179  80.1156998  37.8117347  40.8574581  68.2342672
  37.8303289  40.5963278  67.3135614  38.7247062  40.8040476  68.5168600
  42.8573561  29.9286151  66.2558651  43.2281685  30.8094692  66.3090134
  43.5685205  29.3521047  66.5353489  82.8461552  53.4162664   3.3399072
  81.9902229  53.1377554   3.6655647  83.2061863  53.9559317   4.0437335
  51.6582775   2.4799161  57.3573065  51.0978794   1.7736274  57.6787758
  52.5134563   2.0687252  57.2315025  23.7305093  87.3087025  94.4857883
  24.0981388  86.6211319  93.9305210  23.6657095  86.9075775  95.3524685
  56.4830256  14.2440999  53.1473160  56.1321592  14.6610391  52.3603678
  56.4763641  14.9363375  53.8083696  29.7291017  20.9336424  74.0929699
  29.6389627  19.9920309  74.2395020  28.9683867  21.1671543  73.5609770
  56.4502144  29.2624378  80.0815773  56.6629505  30.0187135  79.5347500
  55.5221319  29.0989852  79.9137115  64.1524029  89.9328995  86.1651039
  64.8092794  90.1454735  86.8280888  63.5979891  90.7118225  86.1188602
   7.0563453  67.4058390   3.3541146   7.3939937  66.9527483   2.5814998
   6.1253357  67.5312185   3.1704512   5.5321324  98.9652443  56.5491724
   4.6483094  99.2660522  56.7603636   6.0712647  99.2767429  57.2761822
  30.6394053  89.6213436  52.6288271  30.5964851  90.0747490  51.7869186
  31.5182185  89.2427063  52.6524258  16.8245137  90.2430820  68.4060907
  16.5193141  89.9475956  69.2638588  17.7372277  89.9575806  68.3652115
  41.5514040  29.1016173  92.9767227  40.7692003  29.2655945  93.5035133
  41.8104935  28.2086635  93.2041836  42.9948997  26.5947080  48.6979294
  42.6499605  27.0804024  47.9486942  43.9108849  26.8659806  48.7580633
  81.5239906  27.5940847  49.0211201  81.6192532  27.6210237  49.9731874
  82.3908043  27.3447299  48.7006474  82.0124722  60.7070732   5.6834471
  81.1223125  60.8603477   6.0002387  81.9064713  60.5259037   4.7495449
  66.3455629  98.5411930   6.1963964  67.0538950  97.8983402   6.1611122
  66.3574362  98.9581871   5.3348851  44.1413116 105.8369637  93.1862354
  43.4509373 105.3648758  92.7206802  44.1869736 105.4114437  94.0424442
  37.2332168   5.0217521  81.0598946  37.3566341   4.1566730  81.4505863
  36.4413762   5.3619200  81.4764309  36.8289375   5.7227397  88.4765720
  36.5928221   5.7161540  89.4041729  36.0227537   5.4776162  88.0224705
  19.5912611   4.3998927  67.6800489  19.9231195   3.5727999  67.3307371
  18.6471951   4.3632028  67.5263500  37.1452713   2.9946375  65.4483175
  37.7477336   3.6565724  65.7875967  37.7146745   2.3078091  65.1014996
  91.8154526  88.5120201  17.0179462  92.5897121  88.5857201  17.5759113
  91.5602016  87.5917625  17.0828044 115.2728367 105.7636356  55.1994658
 115.9665585 105.2071381  55.5534315 115.6877995 106.6181660  55.0819683
  63.2392025  49.1544485  18.4346247  62.4244928  48.6522341  18.4182227
  63.6595154  48.9022446  19.2567933  78.4372187  14.1857958  90.2099323
  77.8863955  14.9648178  90.1327991  79.2886448  14.5213032  90.4905415
   5.7211530  74.3603039  41.5731049   5.4127949  74.4160128  40.6686497
   5.7908547  75.2711725  41.8589258  30.8243370  43.0528164  78.7090588
  30.5617905  43.1467628  77.7933741  30.4720378  42.2029209  78.9732409
 109.6059036  86.6415501  20.3092504 110.1934242  85.9845448  19.9359000
 109.6558571  86.4981174  21.2543249 104.0133667  89.4723225  45.3821945
 103.3947277  88.8563251  45.7747078 103.5581017  90.3141022  45.4016161
 105.5939579 104.9880505  76.6676092 106.0422325 105.0031281  77.5132132
 104.6678352 104.8908615  76.8891811  60.0737095  25.0387383  82.6822472
  60.0171995  25.0873017  81.7279530  60.5013132  25.8558011  82.9387474
  59.9799347  14.2768872  67.5614023  60.3894806  15.1109302  67.3314524
  60.1895189  14.1543698  68.4873009  65.4918861  30.0331593  73.7022543
  64.7772980  30.0946474  73.0683661  66.2847900  30.0012851  73.1669807
  78.4858799  25.1083684  68.1718683  77.6594543  24.8402834  68.5735941
  78.3335304  26.0102296  67.8896093  27.7717376 104.2878056  93.6068726
  27.9030991 105.1947689  93.3304596  26.8309212 104.1413593  93.5086441
  39.1271353  99.3985367  33.8964963  38.2575917  99.3463898  34.2932391
  39.1865706  98.6175632  33.3462477  16.1239648  94.8217201  33.0715036
  16.1612046  94.7495842  34.0252542  15.9347904  93.9327240  32.7712727
  24.0813732  90.1475143  38.6995482  23.8109016  89.7390842  37.8771996
  24.2171097  91.0683727  38.4763312  38.2316661  91.4244652  46.4399099
  37.8989935  90.5564308  46.6681004  37.9936433  91.5379047  45.5197430
 101.0151005  76.1403990   9.7751731 101.7963123  75.8911657   9.2814034
 101.0051250  75.5447292  10.5243790  45.1993132 108.8467693  78.9106369
  44.5787191 108.3165169  78.4107065  45.9938192 108.8525486  78.3768272
  41.9786310  22.6063514  80.9451103  41.9801140  21.6709518  80.7419968
  41.1166239  22.7666926  81.3291264  35.0805283  12.1593082  72.7752161
  34.5553565  11.4501047  73.1459665  34.5380139  12.5168490  72.0723104
  21.8995309 103.7334633  72.3737907  22.7320147 103.2615852  72.3968220
  22.1066141 104.5637035  71.9447899  36.0796547  10.7110989  94.5659351
  35.3101516  10.1776564  94.3671036  35.9974289  11.4731824  93.9926052
  85.0274086  12.5504518  61.7543840  84.6248722  11.7187512  62.0043135
  84.8390102  13.1373537  62.4866962  45.3744602  14.8811972  32.7879739
  44.6273613  15.1897919  33.3006620  45.0015259  14.2392898  32.1837330
  31.7318606  18.5997880  76.7723083  30.8975911  18.1344271  76.7117643
  32.1321702  18.4869456  75.9101868 107.6991844  28.5107517  53.1117296
 107.5515556  29.3974233  52.7827120 107.1752453  28.4616518  53.9112949
 100.3765011  40.9961510   9.6392179  99.4913387  40.7180405   9.8745203
 100.3770924  41.9421482   9.7852236  44.8297453  40.3188562  50.8931351
  44.6781301  39.9151778  51.7477036  45.3024483  39.6527386  50.3940630
  25.8633971 100.4728508  80.8221245  25.1608920 101.0767078  80.5811310
  25.4390478  99.8231792  81.3825607  55.9976435  15.8490205  71.3424015
  55.3470516  15.9232378  70.6442213  56.7708588  15.4847205  70.9115267
  31.1927819  43.5807467  52.6709700  30.7871222  43.8019228  53.5092688
  31.8284273  44.2804146  52.5204802  79.4749975  72.4796963  14.3710053
  79.7012854  73.3594465  14.6727836  79.3300915  71.9806290  15.1748502
  54.6239424 103.6866665  67.1622801  54.9540710 103.8544846  68.0449343
  55.3448248 103.2406616  66.7177153  49.1806364  18.2751095  83.9114285
  49.4130516  17.3522508  84.0141296  50.0140429  18.7409866  83.9794350
  54.5084953   8.4960139  83.4825134  54.5887375   8.5491717  84.4348621
  53.5842705   8.2985556  83.3306789  14.3181503  98.7857819  73.8874435
  14.7696602  99.3029690  73.2204437  15.0207078  98.4353447  74.4350147
  64.0362835  19.8865616  74.6191072  63.1891012  20.2830219  74.8224115
  64.3866348  19.6209443  75.4693604  20.3666162 105.3824806  49.3216610
  20.0794697 105.8384705  50.1127672  19.7020268 104.7085094  49.1791105
  26.0530591  97.1737766  67.2710323  25.4780269  97.0747566  68.0298233
  26.5499878  97.9721355  67.4496555  96.9710732  50.0186539   2.3553899
  97.7890873  49.9058342   2.8394896  96.7039967  50.9185314   2.5428173
  39.4323897  38.0837131  94.7190571  39.9431586  38.6931038  94.1861439
  40.0570536  37.4031281  94.9697113  74.4991779   7.4045938  76.7395973
  73.6123610   7.0468223  76.6973066  74.6992350   7.4389362  77.6750278
  62.4920654  21.3809657  65.7089472  62.2926140  20.4481196  65.7880163
  61.9500685  21.7993116  66.3778687  12.6550388 103.8410091  54.3756819
  12.2720408 103.4282780  55.1497602  12.1641636 103.4735107  53.6406898
   2.9306257  93.0466270  53.8955498   3.5242426  93.0640221  54.6462440
   2.3695786  93.8127518  54.0160513 100.3894424  53.4071636   3.1743082
  99.8533535  54.1935110   3.0718398 100.8020878  53.5086966   4.0320081
  31.8861079  96.4609718  54.5773172  31.2453198  95.7951355  54.3277550
  31.3800454  97.2715759  54.6326590  65.9430170  11.1975026  74.7434807
  65.2704096  11.6684711  74.2515230  65.4670811  10.4969871  75.1895666
  56.6496468   8.1735128  79.7846317  57.2008991   8.8288939  79.3570518
  57.0628691   8.0317938  80.6363297  56.9181490  21.0072207  69.2931557
  57.7632904  21.4021921  69.5075607  56.7482805  20.3995252  70.0129366
  42.0744085  13.6128950  84.6252728  41.6857910  13.4486055  85.4844761
  41.6118431  14.3837702  84.2966270  83.1015015  66.9555283  14.0298724
  82.3851681  66.4280701  13.6764777  83.8281918  66.8089724  13.4243381
  95.6293774  14.6504664  69.3014193  95.6779766  15.5132580  69.7130775
  95.8353329  14.8124087  68.3807707  42.7212191  32.0140886  55.7221699
  43.4350109  32.1965241  56.3332796  42.4202681  31.1371922  55.9603167
  56.2575006  13.3997273  91.5397072  56.8205309  13.5752892  92.2936344
  55.3939295  13.2358718  91.9186974   4.0741417 107.8230095  66.3996696
   4.4249213 107.0863628  65.8991385   3.1372511 107.8213596  66.2035465
  87.7087593  70.1227665   4.4730997  88.2196140  69.7788763   5.2059036
  86.8760014  70.3864431   4.8645210  55.3681755  33.7426305  90.1709938
  55.5909634  34.2020774  89.3613625  55.8548260  32.9198766  90.1211739
  63.2339382  14.7620416  72.0573568  63.2346821  15.0580263  72.9676437
  63.7067080  15.4457867  71.5827942  28.9178777  24.9690914  44.3331480
  29.6586633  25.5565286  44.1835213  29.3173337  24.1488457  44.6227360
  76.9870186  84.5256233  87.3139763  77.2690201  85.4150009  87.5277519
  76.3106441  84.3266869  87.9614162  29.5881748 100.4910564  74.2896366
  29.9050927  99.6186161  74.0558910  28.7998796 100.3286743  74.8077631
  26.0169530  95.8200550  82.0073223  26.4034605  95.0250626  82.3745155
  26.5984273  96.0575104  81.2850094  47.7551794   8.8348472  80.0556183
  47.8611755   8.6968392  80.9968758  48.1967545   8.0872452  79.6527100
  56.2984085  19.7072232  64.9735022  55.7301044  19.0626383  65.3951311
  56.0751343  20.5363870  65.3964233 103.9866257   3.2190919  79.0177202
 104.0500164   4.1673285  78.9034367 103.8381004   2.8808188  78.1346893
  14.4197893  21.9524384  70.8379507  13.7370574  22.0686460  70.1771927
  14.5518696  22.8276443  71.2023687  63.6340380  15.1606047  56.4557171
  64.0663242  15.2264953  55.6042385  63.2860994  14.2691934  56.4793444
  38.3771539  86.8026733  50.5772972  38.7622857  85.9909439  50.9074306
  37.5799179  86.5236950  50.1269436  28.3918738  95.6874084  80.7229519
  29.2887974  95.4064274  80.9040928  27.9548240  94.8996544  80.3994274
  21.6783094  85.1015663  48.6435986  21.2976480  85.9018040  48.2817411
  21.2135839  84.9675274  49.4696093  34.9563694  80.2258110  81.0742760
  35.1786733  79.2949343  81.0576153  34.3452477  80.3391838  80.3463268
  16.3019347  16.8787694  63.4769630  16.0597897  16.2025714  64.1096973
  16.1780107  17.7028465  63.9478922  96.2829399  27.7090263  56.5845871
  96.8412971  27.0253515  56.9548035  96.8957710  28.3656287  56.2536049
  67.1341753   9.7038311  68.2244349  67.4591208  10.6041789  68.2207108
  66.3215303   9.7404039  67.7199507  50.1341867  25.0883651  78.7935352
  50.9648180  25.2915859  79.2236328  50.3653383  24.9634600  77.8730965
  67.4436760  10.0989926  52.5903797  68.0791283  10.5508506  53.1455851
  67.6864862  10.3464317  51.6981602  34.8638654  86.2787151  28.2335615
  34.3080950  86.7321873  27.5997591  34.8406911  85.3618431  27.9595995
  26.2813020  90.3357887  88.2323742  27.1656466  89.9837875  88.1310654
  26.1665726  90.9155560  87.4794197  62.7458715  11.0219932  92.5028038
  62.4274588  11.8309224  92.1022034  62.9451084  10.4499638  91.7616463
   2.3415080 101.6628075  66.7669392   2.9581603 100.9461880  66.9167328
   2.8118795 102.2675419  66.1931133  12.7438951  40.0488043  68.2191467
  12.9317057  40.6005192  68.9784670  11.7976069  40.1243210  68.0963993
  62.6369476  67.1541071  15.4765618  63.1771612  66.3965368  15.7012689
  62.9280043  67.8418779  16.0753012  10.4696739  98.9539528  83.3631229
  11.0444391  98.9639282  82.5977612   9.8607594  98.2345581  83.1960106
  55.6899261  44.7612810  58.6251068  55.1180172  45.1942730  57.9913330
  55.6169510  45.2942657  59.4168329  40.7005167 102.3382950  70.5603933
  41.0608149 101.4791107  70.3408051  40.0102615 102.4811840  69.9128103
   6.8467087   7.8706151  74.6475887   6.2951243   7.7248931  73.8789892
   6.4750522   8.6475539  75.0652885  37.0749307 101.9828987  75.8206606
  36.5285277 101.7723465  75.0634623  36.4564729 102.0667458  76.5464067
  57.5236750  10.3120947  41.5116024  58.0704117  11.0761452  41.6947317
  58.0575895   9.5651281  41.7821789  59.5030975  10.9288502  70.5940676
  58.7952662  11.2798047  71.1344719  60.3036785  11.2419009  71.0151434
  92.7698612  77.9188919  29.5895123  93.4779930  77.5621843  29.0532875
  93.1671524  78.0579615  30.4491973  31.7398906  13.6700332  52.8280497
  31.0010433  13.2153857  52.4235392  31.3359737  14.2952049  53.4299135
  26.6060758 104.9622822  65.5188942  26.1472940 104.1287613  65.6237555
  27.3855972 104.7440052  65.0080776  59.7119522  23.5671115  71.9204235
  60.3348446  23.7367225  72.6271582  59.4576502  24.4366598  71.6114807
  21.9588089  77.5673389   0.2391776  21.0999966  77.9868078   0.2913027
  22.5185275  78.0960703   0.8078490  68.5387707  10.4961407  73.9983130
  68.9249182  11.0531282  73.3223772  67.6163435  10.7508397  74.0204048
 112.4057102  87.4541187  72.9011297 112.0571709  88.2540035  73.2947540
 113.2989120  87.6831150  72.6442623  86.5037155  36.0325694  51.9612885
  86.7620945  35.5550957  52.7496338  87.2356510  36.6249895  51.7893982
  24.5307469 107.8444099  59.4842625  24.4072556 108.2523346  60.3413439
  24.8727727 108.5471344  58.9316034  46.0012197  17.8718507  68.2210636
  45.9678078  17.2983098  67.4554491  45.5193853  18.6549401  67.9549074
  58.1782389  34.9811459  78.1162357  58.9035082  35.5922222  77.9866266
  57.5734043  35.4464030  78.6941147  62.0854998   3.1760225  72.6404285
  62.5754213   3.2530391  73.4591293  62.1773338   2.2562039  72.3919725
  98.7573147  45.0586939  44.9867439  98.6435413  44.1709042  44.6474600
  98.1720257  45.1029730  45.7428551  40.5301619   6.1083543  85.0584888
  40.2716112   5.3469414  85.5777550  41.4305830   6.2881410  85.3289413
  68.1171560  74.4038010   0.7975141  67.9610491  74.2287350  -0.1305024
  67.2423601  74.4459152   1.1837664  51.3849974  32.7074170  68.0816460
  51.5924454  31.8187881  67.7926207  50.4320335  32.7137589  68.1713724
  85.3237534  43.0451536  41.0883856  84.5474434  43.6051178  41.0839415
  85.9617805  43.5160065  40.5522394  85.0670910  51.6506624   4.9857593
  84.3294048  51.5568876   5.5884737  84.7547436  52.2613096   4.3180931
   9.2535079  65.2536917   7.5249273   8.8926870  65.9564686   6.9844222
  10.1453733  65.1343155   7.1984977  44.5573854  12.0204902  34.1444468
  44.1094112  12.7303982  33.6844659  44.6179485  11.3170099  33.4981632
  62.2425032  22.7864742  85.4440594  62.1401262  23.4091020  86.1638355
  63.1684017  22.8433490  85.2080345  53.6770725  11.9439673  45.7327652
  53.9124012  12.1414292  44.8262024  53.9216709  12.7304530  46.2204552
  35.4274154  25.0178695  48.0860233  34.7841144  25.4200196  48.6696911
  35.1660156  24.0982676  48.0387354  84.6114349   8.2971263  38.2761145
  84.9303627   7.4015003  38.1648850  84.7685337   8.4943694  39.1995049
  39.7121406  24.3302107  54.8213291  40.2651358  23.7839246  54.2627573
  39.5031762  25.0916314  54.2802143 101.9197178  61.8102980   2.3566139
 101.2896061  61.5485764   3.0279493 101.4180279  61.8031788   1.5414530
  82.4938393  40.8069372  48.6610270  83.3668804  40.8781862  48.2750797
  81.9454765  40.4701233  47.9524469  63.2164431  30.8378172  71.9336939
  62.4458504  30.3985977  71.5738297  63.3767653  31.5681529  71.3360834
  34.1842556 102.4268723  91.6201115  33.3183289 102.0415497  91.7540359
  34.4737792 102.6762486  92.4977303  22.3428512  99.0415668   5.9685820
  22.0396805  99.9493885   5.9556329  21.8242192  98.6256504   6.6572529
 101.9424534   6.3821626  88.2631016 101.6767788   7.1964616  88.6903763
 101.1187744   5.9591472  88.0205441  43.7194347   1.0834781  87.5608349
  43.8554192   0.3666138  86.9412804  44.5948315   1.2820955  87.8931999
  51.4889574  17.5075924  88.1442642  51.7031384  17.5643027  87.2130680
  52.1189308  18.0885303  88.5707378  62.2137451  56.3620949   0.7392095
  61.8839979  56.2626505  -0.1538806  61.6197681  55.8352661   1.2738830
 100.0205803  50.6754208   2.7737162 100.0858021  51.6297770   2.8081739
 100.4655838  50.3761530   3.5665858  54.3754482  22.0130348  82.6866913
  55.1189661  21.5934420  82.2538567  53.6375999  21.8611550  82.0961475
  62.8566933  40.1163197  48.5657215  62.3290205  39.8644876  47.8078461
  62.2186899  40.4194689  49.2117023  38.1932282  13.1499565  77.5098610
  37.9342675  14.0135252  77.1882677  38.1824017  13.2362151  78.4631014
  75.5725670  11.0699368  68.0656719  74.8217535  11.1701894  68.6508703
  75.7304668  10.1262510  68.0381536  70.4629850   9.0522784  88.1778049
  71.1976480   9.4586849  87.7180862  69.8831558   8.7470382  87.4800587
  90.9262753  87.9878044  49.9831629  90.4353046  88.5746098  50.5583525
  91.7545795  87.8421116  50.4402399  22.8504205  67.1044111  65.0462770
  22.8263927  67.3254824  64.1152668  23.3544230  66.2916422  65.0865269
  76.8814182  21.4818001  62.9185438  77.7800989  21.8100047  62.9483604
  76.9449663  20.5805445  63.2346678  50.8411169  20.0295186  65.6634045
  51.6463995  20.1695609  65.1652622  50.3255415  19.4316852  65.1221037
  70.3118992  52.0173645  13.9127874  70.2170897  51.0845566  13.7201476
  69.4367361  52.2965240  14.1818523  89.0105534  19.1711950  56.8204594
  89.0830803  18.2316351  56.6525364  89.8628044  19.5261681  56.5676928
  66.7263842  19.1217732  91.0422134  66.7230511  19.9764609  90.6112480
  66.5001059  18.5026729  90.3481293  61.9738913  22.6967192  82.3475552
  61.0726881  22.9132485  82.5866795  62.5107670  23.1728315  82.9810429
  36.1549592  29.3247032  66.7258835  36.9883060  29.0116811  66.3740587
  36.0582542  28.8633156  67.5589514  43.7059927  10.3509021  79.7833967
  43.0458212  10.2560985  80.4699898  43.5332060  11.2117612  79.4022179
   2.1668015  68.9859962  22.0757604   1.2766105  69.1965580  22.3576379
   2.6408681  69.8150492  22.1402621 110.2936268  20.4593682  77.0370054
 109.7952271  19.6494114  76.9283533 109.8916912  21.0723233  76.4213991
 111.7087841  42.1878242   3.9344051 112.1667767  42.2427988   3.0956858
 111.1889172  41.3865757   3.8713539  77.7161932  50.9412527  53.8481808
  77.6960516  50.4492998  53.0273199  77.1527672  50.4427719  54.4400454
  63.9832687   3.2536650  32.8789711  63.3696270   3.4964639  33.5723138
  63.4777927   3.3399791  32.0707154  26.4289212  15.4614973  63.7718248
  26.1109877  14.6509695  64.1695642  25.7458448  15.7058692  63.1473875
  72.3334312  26.9487238  62.8091145  72.3999834  27.0568156  63.7578630
  73.2263279  26.7495370  62.5275278  64.8129654   2.7794260  60.8467865
  64.0422869   3.2882580  60.5950403  65.1273012   3.2007390  61.6467381
  85.3937721  29.5892262  58.3549356  85.3386593  30.1160908  57.5576830
  85.4722309  30.2307320  59.0610123 108.8031578  80.9810925   1.6087280
 109.0009975  80.4320431   2.3674378 109.3809986  81.7382526   1.7038140
  43.6386108  55.9647560  68.9311123  43.0414009  55.6988907  69.6303129
  43.2102537  55.6729221  68.1263876   8.7388766 102.1525192  66.8116999
   8.2229906 101.3520145  66.7153358   9.6379060 101.8819904  66.6251755
  85.5956173  73.4805059   3.8209912  85.4454422  72.9947186   4.6319723
  86.4875889  73.2471943   3.5637152  81.4752102  26.0675788  72.0614958
  81.4038658  27.0133281  72.1907234  81.1454010  25.6889367  72.8764153
   8.4109449  66.5132141  15.7992804   7.8612715  65.9108829  16.3005650
   8.1418794  67.3836613  16.0928059  65.3178310  13.6769485  86.7035103
  64.6415234  14.1557670  86.2243748  64.8714590  13.3487284  87.4840546
  51.5502167  26.8136597  57.6672649  51.9843912  27.6331997  57.4304533
  51.6419888  26.2610221  56.8911219  56.3113546  27.1209741  63.3811092
  56.9240713  26.7184758  63.9965773  56.0363865  26.4020014  62.8121567
  58.2535505  13.3094215  84.6666527  58.3565283  14.0313804  85.2866554
  58.1279945  12.5367320  85.2174854  19.2397630  45.2571440   4.6223351
  19.7501469  45.9153414   4.1506153  19.7460401  45.0852680   5.4162955
  38.7600160  19.4169772  70.9545946  38.9538169  19.9639654  71.7158318
  38.8959384  18.5209572  71.2626648  51.2255764 105.7838440  71.2549162
  51.7180490 106.3847637  71.8140221  51.6839838 105.8081341  70.4149771
  97.2248554   3.7937817  59.6106243  96.8996906   3.7286901  58.7127018
  96.5991974   3.2879275  60.1291847  38.4258056  53.5758114  80.6228256
  39.1688371  53.6719894  80.0271034  38.8194942  53.3230829  81.4579105
  33.6025476  35.0267267  83.2037830  32.7386999  35.4073215  83.3623695
  33.4533191  34.3684292  82.5251007  48.8621807   6.4864260  57.1383762
  48.5350466   6.2204921  56.2790203  49.2363214   5.6875610  57.5099468
  53.5302353  22.0342922  47.0914364  52.6884794  22.4611974  46.9319725
  53.3017254  21.1361551  47.3309422   7.0776701  98.8618374  75.6312609
   7.3204249  98.5243416  74.7690535   7.1019739  99.8135090  75.5314875
  84.2344379  12.2654080  91.8030548  83.4049034  11.8226850  91.6239071
  84.0365696  13.1961286  91.6989422  99.4232750  73.5092402   3.0137956
  99.3543625  74.4464159   3.1959552 100.3640556  73.3475828   2.9428440
  38.3489323   9.5379478  59.2149687  37.6556230   9.9095917  58.6695910
  38.8327622  10.2979887  59.5381975  84.3792152  88.2189178   4.4440866
  84.2943287  88.1889915   3.4911281  83.5119820  87.9775810   4.7694996
  22.9153299  87.0298862  90.4498577  22.9595900  87.9696941  90.2736664
  22.0115185  86.7901421  90.2452278  15.8323383 103.4569168  43.2132721
  15.4704380 102.7589607  43.7592793  15.6039238 103.2040691  42.3187780
  59.4448090  46.6186094  33.9056063  58.9440346  47.1336937  34.5381761
  58.7838411  46.1171198  33.4282660  86.8385696  84.2277718  14.3330634
  87.6262760  84.1636658  13.7930202  87.0725060  84.8459339  15.0254333
  70.2008390  34.9080086  77.2029018  70.7633543  34.2998576  77.6824522
  69.3149424  34.5711017  77.3367310  60.9233332  28.4655118  92.5843239
  61.5590477  28.7871432  93.2235909  60.1883459  29.0752053  92.6498508
  43.1473064  85.0626469  61.4240837  43.5524797  85.5227566  62.1591806
  42.9737902  85.7480621  60.7788420  61.3798237 109.1428852  93.2839584
  60.9860134 108.2787514  93.4040928  61.4758968 109.4878197  94.1716671
  15.7656872  95.5268288  47.7988482  16.6431177  95.3597450  48.1429815
  15.1808357  95.0650311  48.3996105  86.3798809  20.9752798  18.3169758
  86.3290977  21.9139194  18.1363976  86.5055084  20.9200764  19.2642891
 100.3958130  72.1854258  12.4698901 100.2626610  71.3065577  12.8249955
 101.3332462  72.3471785  12.5760996  19.3149757  84.7437096  63.3094025
  20.0866818  84.7115040  62.7440166  18.5807133  84.5611572  62.7230883
  54.4002390  29.6964431  71.0241747  55.0786018  29.0924025  71.3261461
  54.6038198  29.8427963  70.1003933  43.7821388   5.2809060  40.2171564
  43.1531668   4.6458334  40.5596590  44.6247673   4.9996290  40.5736542
  35.5161905  18.2628310  51.1363173  34.9371195  18.0459058  50.4056644
  34.9334598  18.6223745  51.8051863 108.9227676  87.3084927   2.5785702
 108.4969044  86.6230297   3.0933654 108.6244202  88.1266594   2.9758263
  87.8035736   5.6247807  76.5623474  87.1670055   6.2509310  76.2174606
  88.5083389   5.6183749  75.9146595  40.1503277  24.7386098  76.4532471
  39.2379546  24.9538779  76.2596846  40.2829742  23.8781357  76.0554743
  86.3006783   1.3856804  66.5751839  86.9830799   1.7658390  67.1283913
  86.2173271   1.9970888  65.8434296  91.8624878  48.8255596  84.0524864
  90.9594154  48.7346506  83.7484550  92.3772621  48.3100176  83.4316444
  44.0611267   9.7330362  37.5787067  44.7468853   9.7285056  36.9109082
  44.2601776   8.9774019  38.1315422  30.4446411  10.0653040  82.0334148
  31.0318542  10.1221001  82.7871990  29.6275735  10.4616988  82.3359108
  19.3343246  97.7068615  56.1313772  18.4210789  97.8085613  56.3994694
  19.2881334  97.4961472  55.1988077  12.8372812  88.1537056  63.8034534
  12.2207355  88.8605213  63.6123657  13.1619835  88.3501530  64.6822071
  30.8908606 102.1880054  54.6377325  30.9284687 102.0468616  53.6917448
  30.0376129 102.5959587  54.7852945  83.4668350  98.4325790   5.1267910
  82.7414799  98.4962368   5.7481152  83.1598091  97.8154850   4.4625935
  53.1224442   7.2018588  45.3252506  52.9731655   8.0053008  45.8236742
  53.2419825   7.4984217  44.4230318  56.3133097 105.2943707  62.0999241
  55.4064608 104.9886036  62.0808840  56.4671373 105.6426239  61.2216997
  30.6406116  34.0230727  82.5189781  30.6062984  34.6938658  83.2009602
  31.0392189  33.2657719  82.9477501  50.2112007   4.9530533  49.2411041
  51.1514616   4.7876921  49.3103695  50.1016426   5.8494508  49.5584345
  84.6718788  25.1144552  74.4527817  85.4123783  25.0888371  75.0587797
  84.3365479  24.2179370  74.4463110  81.5049744  61.6230631   1.0420076
  81.8622398  62.5029564   1.1619423  80.7548141  61.7463827   0.4603847
  47.0049906  20.2528834  36.5006447  47.5433207  19.6303988  36.0118270
  47.5914907  20.6009912  37.1722651 110.2903175  43.5699606  44.5915365
 110.2411270  42.6344252  44.3951035 110.2867126  43.6144495  45.5476952
  66.7368650  23.0731487  77.0722532  67.6280069  22.8437829  76.8086386
  66.2615633  23.1738973  76.2475300  80.6675434  45.7385969  44.2334414
  80.4286861  45.3827047  45.0893164  80.4556656  45.0389528  43.6155128
  91.9806671   9.0104991  69.3352747  92.3054790   9.5292258  68.5993099
  91.2061405   9.4840539  69.6387243  42.0684099   0.3605713  60.4049587
  41.9990587  -0.5513481  60.1224279  42.6707411   0.3358088  61.1484766
  67.7045870  39.9524021  53.2700729  68.2135105  39.1445374  53.2023811
  67.5073385  40.0337410  54.2031908 108.9226055  83.7875938   9.8686939
 108.0612278  83.4255028  10.0764024 108.7421513  84.6792221   9.5709312
  74.9148750  29.3442988  62.0940304  74.1378832  29.8226881  62.3832798
  74.6290398  28.8745356  61.3105440  67.9270172  30.2236795  72.3229980
  68.2020378  30.3321695  71.4126015  68.6079884  30.6625128  72.8328323
  95.4697800  29.9718356  74.6606302  95.7855034  30.8540583  74.8561668
  94.9657345  29.7207904  75.4346800  16.2997401  95.6717491  79.0840530
  17.0282614  96.2468529  79.3180418  15.6398034  96.2590408  78.7155294
  56.7791128   4.9951985  70.6751966  57.1241808   5.1515490  69.7961521
  57.4677372   4.4993812  71.1181307  57.3910332   6.5752029  77.4646807
  57.3576975   7.1022463  78.2630205  58.0948210   6.9674754  76.9479227
  45.3469181   2.8453910  29.4682574  45.3088284   3.2506076  28.6018968
  44.4342184   2.6526186  29.6828485  14.8084533  10.7842648  75.5385017
  15.5877137  10.5353391  75.0414944  15.0003517  11.6654468  75.8593225
  15.8800542 104.3252468  56.5396357  15.2514577 104.8254395  57.0601177
  16.7080915 104.7925663  56.6500950  32.5805259  31.8854022  56.0235500
  33.2879376  31.9027543  56.6681385  32.0959902  32.6963639  56.1778069
  43.3311987  34.3034196  92.5594902  43.0064726  33.4768391  92.2023582
  42.6627922  34.9460554  92.3218250  71.8773317  19.4590986  69.3718052
  72.7310562  19.1093552  69.6268797  71.4258003  18.7179375  68.9680338
  95.3110695  16.9538164  50.4169655  95.4498291  16.0322857  50.6355095
  96.1858463  17.2868097  50.2166605  65.1643229  12.8976154  65.9273815
  64.8232651  13.6364675  66.4313745  65.1168966  13.1869745  65.0161982
  58.1662369  26.2857699  57.8490067  57.9852533  26.7859936  58.6447763
  57.8034019  26.8200660  57.1425295  47.8672838   1.7351188  34.9233913
  48.1001949   1.2809651  35.7331634  47.6294041   2.6187253  35.2042580
  31.3418126   8.1243235  80.1649094  31.2157750   8.9069349  80.7014370
  32.0031881   8.3789837  79.5215082  52.8730106  64.3956470  79.5658159
  53.3050251  64.4240522  78.7121248  53.0740738  65.2424192  79.9642897
  27.4378490  99.2362404  70.7806540  28.0253363  98.5650635  71.1279488
  26.8785644  99.4713688  71.5210247  42.7505636   5.8009607  51.9733143
  41.9129276   5.8179885  52.4362421  42.9806519   6.7232192  51.8604803
  61.1043835  37.9545450  75.1669455  61.8638945  37.8724432  74.5902061
  60.8534861  38.8760543  75.1028681  48.4106684  19.6417332  71.3178492
  47.7240992  19.1205931  71.7341042  49.1171360  19.6664131  71.9632339
  40.3875303   1.0236506  66.8541908  39.7420764   0.6319691  66.2657976
  41.0899305   1.3205700  66.2756586  47.8818464   2.7705619  72.0227766
  48.6273766   2.9616216  71.4536428  47.8334570   3.5215396  72.6143169
  36.9963503  44.1952276   9.1604590  37.3586226  43.3342361   9.3694639
  37.6988935  44.8090839   9.3745786  58.6379147  37.7766395  66.2768030
  57.7592278  38.1423235  66.1747456  58.5725880  36.8922043  65.9166098
  79.2914963  25.6214905  75.0684547  79.8355198  26.3919258  75.2318525
  79.9023485  24.9625683  74.7384357  42.1207762 108.4207726  39.7051501
  42.2166824 109.1011047  40.3716135  41.2573242 108.0425835  39.8714590
  76.8480206  15.7688558  81.2100601  77.1525383  16.6381168  81.4706135
  75.9643173  15.7060575  81.5724945  93.1962585 100.0779438  26.8440390
  93.2112408  99.1213226  26.8145490  93.5599327 100.2968502  27.7019739
  29.4884539 101.1832714  64.7294903  29.0865612 100.3408813  64.9418402
  30.3813171 100.9626007  64.4642830  62.2307348  41.6825867  74.0725517
  61.4510202  41.7689180  74.6210289  62.5991964  42.5654030  74.0394115
  24.1710186  99.7402859  90.0049877  23.3690786  99.8766518  89.5004749
  23.8709116  99.6337986  90.9076595  95.6474113  76.9722080   3.3325869
  96.3145161  76.4219522   3.7429854  95.4278088  76.5165281   2.5199574
 108.2985401  79.3707466  21.1060071 107.9926777  79.2369080  22.0030951
 108.0167103  78.5852623  20.6371641  69.0711737  19.0279067  67.5353575
  68.2487774  19.2184401  67.9865694  68.9769697  19.4454896  66.6792154
  87.1326828  90.9255028  48.5707426  86.3874340  90.7998466  47.9833412
  86.9633865  91.7661667  48.9960098  74.7641134  60.7174110  56.8004036
  74.9311066  60.1116467  56.0783195  73.9587688  60.3932428  57.2036028
  14.6178734  75.0722361  53.2554579  15.1741171  74.3264723  53.0303764
  15.0085247  75.4304695  54.0525103  73.3132887  62.1032047  48.7348270
  74.2497301  62.2398329  48.5911417  72.9107094  62.2933292  47.8874731
 101.3730049  75.3348446  60.9308767 102.0212173  74.8531771  61.4447451
 101.5169144  75.0438213  60.0304174 104.4642544  23.8221574  26.9410324
 104.1045761  23.9264464  26.0601330 103.7080479  23.5984659  27.4835730
  93.6359787  68.3857965  36.9053006  93.6289501  69.3321848  36.7620254
  92.8286266  68.0754852  36.4952707  93.7648582  98.7060833  70.8990431
  94.7114563  98.6132050  70.7915401  93.5059547  97.9411221  71.4128876
  89.3812561  86.7497253  69.5331669  90.0339317  86.6893959  70.2307415
  88.9447117  87.5878620  69.6854496  97.5422764  75.2443790  81.8017292
  98.3345413  74.8833895  81.4039421  97.8584385  75.9456873  82.3713207
  46.5589142  20.0591683   5.1963037  46.9184828  19.9577439   4.3150222
  47.2726440  19.7971153   5.7778120   8.7928897  70.5790043  86.6757107
   8.6967391  70.0496340  85.8840275   9.1666108  71.4046907  86.3677979
  86.2382698  78.7206411  62.1672201  86.8545246  78.8917971  62.8793764
  86.0377693  77.7877474  62.2430086  67.7269936  35.8539295  59.8163748
  68.1191444  36.3198400  59.0778780  67.9115963  36.4082694  60.5745745
  10.1786685  67.3885727  40.8222580  11.0274863  67.4740648  40.3881693
   9.9091184  68.2895231  41.0007572 105.3129292  83.7199688  53.9154863
 105.7052231  83.7850094  53.0447912 104.8850155  82.8637695  53.9220381
  20.5928254  40.0501966  73.4049749  21.3140607  39.4343185  73.2755661
  20.9414577  40.7032108  74.0118217  67.0365286  79.3234873  67.9447985
  66.7442513  78.4124613  67.9159260  67.4961376  79.4539738  67.1153641
 107.3048687  44.2727757  65.0367737 107.3825645  43.3277082  65.1673365
 106.3619041  44.4371700  65.0319386 106.6568756  21.4885402  64.3652201
 106.5877533  22.4083495  64.1094732 106.1367130  21.4228773  65.1660633
  77.3353767  64.6463728  23.7442970  77.1863127  63.8190031  23.2866096
  78.1206226  65.0088787  23.3341575  95.5202198  65.2210569  59.5763350
  94.9225044  65.9126902  59.8602486  95.0647163  64.7936678  58.8510180
  91.7942047  46.2108564  51.2253761  91.8316174  45.6299734  51.9852495
  91.6767406  45.6224060  50.4796171 104.2147350  80.8532619  76.9914198
 103.8592625  81.6671276  77.3484659 103.6890507  80.1639271  77.3972607
   1.9055575  65.9070396  86.8955708   1.5914504  66.8001318  87.0368385
   1.4345595  65.6076860  86.1178970 103.6123180  75.5578947  73.1908846
 104.2225170  75.8831358  73.8527775 103.4671116  76.3054991  72.6110220
  85.7677937  77.1149063  68.4732199  85.3844357  77.1869183  67.5991058
  85.9132004  76.1766100  68.5944271 107.0446014  64.4367313  67.8178835
 106.7548656  65.1236200  68.4182739 107.7171707  64.8558903  67.2810507
 107.6984310  73.2328415  64.8827791 108.1596184  73.6552382  64.1581345
 107.2271442  73.9453745  65.3145504  76.0770702  51.7248249  24.3265915
  76.9244289  51.9683695  24.6992850  76.2929296  51.3122654  23.4902692
 115.0515461  46.6386652  84.6575451 114.7422409  47.3295069  84.0716362
 115.9943008  46.5936661  84.4980907  86.2867260  60.4219866  50.0076151
  86.8187714  60.4166365  50.8033085  85.5339527  60.9711981  50.2265263
   1.1897458  81.0279083  49.7016621   0.3989659  81.1379433  49.1736555
   0.9612107  81.3965511  50.5549526  91.5782166  63.0372143  73.3381033
  91.6644382  63.3201027  74.2484713  90.9633541  63.6603022  72.9508829
  87.3052216  62.6810598  38.6412501  87.7116489  63.5475922  38.6284804
  87.9199409  62.1211720  38.1670403  95.6990337  47.7846622  89.1412449
  95.7579708  48.7232876  89.3194103  95.5991077  47.7270508  88.1910229
 103.7599754  29.6276450  60.9582996 104.3331528  29.5329142  61.7190361
 104.3488121  29.8691511  60.2433348  79.4811153  74.5336008  44.1321278
  80.3094578  74.5175028  44.6115303  79.6022129  73.9016676  43.4234476
  84.3051910  68.5354900  66.4147186  84.3888187  69.4739914  66.5833855
  84.9060154  68.3681726  65.6885958  71.0483885  82.5904083  87.7580833
  70.5265856  83.3407116  87.4734974  71.2558126  82.7764511  88.6738396
  10.7437086  74.2436266  58.4455442   9.9143964  74.1511774  58.9145088
  11.3927853  74.3907404  59.1335058  95.5004597  63.6344385  73.8541269
  95.1820660  64.4534445  74.2337179  96.2139034  63.9006710  73.2741690
  81.7782784  86.3719559  50.6525135  82.6197147  85.9764862  50.4248667
  81.1293507  85.7129478  50.4058838 101.8552208  68.2742453  87.0977211
 101.1024284  68.8373280  87.2779369 102.6157570  68.8353539  87.2492695
 104.1202259  49.2467117  53.2058001 103.7634659  50.0461102  52.8186035
 103.8366699  48.5478687  52.6163578  80.2000809  79.4865513  28.8743401
  79.6640348  78.7149191  28.6913943  80.0040817  79.7037411  29.7857356
  78.1436110  91.2575531  82.2873878  78.7181091  91.4296722  81.5413570
  78.7200022  90.8789444  82.9512119  83.5559464  34.1855216  46.4909840
  83.2505798  35.0367522  46.8046570  84.1797638  34.3960142  45.7961607
 101.9636536  60.1060963  36.9397354 102.4382782  59.3740463  36.5459394
 102.6495934  60.6865740  37.2695446  74.2390442  45.4652548   5.0378436
  74.1409254  46.2767982   5.5358416  73.4216404  44.9908400   5.1895392
  90.6286621  68.9425325  60.7087421  91.2270164  69.6695518  60.5365753
  90.8978844  68.2600260  60.0939751 101.4649105  98.1966209  80.2457142
 101.3309288  97.9814625  79.3226814 100.5873775  98.1719780  80.6272221
 102.4476051  50.6104231  57.7894735 102.4797916  49.6974277  58.0751801
 102.0164204  50.5790854  56.9354630   4.8815361  94.9179649  24.9331498
   4.8425761  94.9142647  25.8895493   4.1113541  95.4185772  24.6640038
  86.2894249  53.9331579  36.0791540  87.0446301  53.3728886  35.9002757
  86.2372494  53.9670658  37.0343280   1.1123756  78.7140846  69.0588379
   1.6241050  78.6701488  69.8665714   1.7668998  78.7149858  68.3603907
 111.5144730  50.1363707  73.1497622 110.9827423  50.8491373  72.7955627
 111.0892200  49.3397379  72.8323269 108.6029816  30.4266787  43.2369041
 109.5360374  30.2130985  43.2413912 108.1628418  29.5784259  43.2914734
  97.0949554  41.4870453  54.3637276  96.6816139  42.0755863  53.7320614
  97.3937607  40.7442760  53.8390923 110.8703232  61.6202784  83.4731483
 111.0455132  60.7817364  83.9002132 110.6859016  62.2223282  84.1940880
  94.3553352  61.5553570  52.9133177  94.1437244  62.0233583  53.7210464
  94.3392372  62.2299385  52.2344112 110.2440643  54.5323086  68.6630297
 110.4670238  53.6613846  68.3343744 111.0177135  54.8081064  69.1545963
 103.1295872  55.8473015  92.7642441 102.7417946  54.9788809  92.6561165
 102.5264454  56.4369726  92.3117638  90.9344864  79.1798258  57.1763420
  90.4403877  79.4071627  56.3886833  91.2150288  78.2763290  57.0306587
  82.6419258  59.4236660  51.1000538  83.4588242  59.1972351  51.5446186
  82.0164490  58.7627602  51.3970613 114.9044895  74.9949265  70.5701494
 114.4569302  75.8060598  70.8109713 114.4616127  74.7046614  69.7727585
  70.0884867  67.2364473  63.2230902  70.0769854  66.5763378  63.9161682
  69.1650772  67.3895931  63.0228424  86.3117218  60.2686501  25.7484055
  86.5847874  60.4784918  26.6415095  86.0000706  61.1003780  25.3915715
  70.1581001  33.7060165  45.3736496  69.4034243  34.1287994  45.7834673
  70.9165621  34.1501379  45.7527590  91.0541630   6.1966497   8.8013476
  90.7530022   7.1046001   8.7672472  90.2834415   5.6796992   8.5668683
 112.2847366  84.9432468  47.6407576 111.7672062  85.5539322  47.1159124
 113.1870937  85.0878429  47.3560429 102.8469372  54.1705656  67.0412588
 102.4192524  53.4664631  67.5286627 103.5296345  54.4899416  67.6313019
  92.0225430  67.6794147  81.3594723  91.0982037  67.4323368  81.3874626
  92.3297215  67.3619270  80.5103111  86.2094021  63.9220285  52.0466757
  86.1524296  64.8565197  52.2459602  85.5723667  63.7874794  51.3450289
   4.7951153  92.7898407  85.2714729   3.8964060  92.7723694  84.9424553
   5.0566930  91.8696022  85.3026199 102.1240139  31.8485117  43.7357807
 102.7242661  31.1522174  44.0024471 101.3724995  31.7540669  44.3210506
  99.5650101  38.9206529  48.9955378  98.7751865  38.4386206  49.2405939
  99.6560574  39.5912290  49.6724939 100.2078056  82.7757835  79.2465687
  99.5203018  82.3110580  79.7236252  99.7636414  83.5315132  78.8620949
  94.6726418  52.0906305  49.5636845  95.0746441  51.2473869  49.3549776
  94.2590904  52.3677063  48.7461090  14.0142787  63.8894415  32.9008722
  13.8950241  63.7220573  33.8357496  14.9089718  63.6023045  32.7183628
 115.6435776  70.2524853  85.1956654 115.8933353  70.9248734  84.5618343
 114.9605846  70.6642199  85.7250309  99.5397854  50.5714560  72.1662426
  98.6687851  50.8380604  72.4603844 100.0939655  51.3328409  72.3377275
 100.7401848  35.8105016  69.5070457 100.8637619  36.0847139  70.4157686
 100.8634472  36.6107488  68.9965153   4.9280155  49.4870329  57.6254129
   4.4046021  49.0056276  58.2661343   4.3265671  49.6502209  56.8988752
 107.2977448  87.9850960  38.8859224 107.6383877  88.3354187  39.7090125
 108.0650616  87.6201344  38.4451652 105.3970242  71.6963196  54.6638107
 104.9784660  71.6331625  55.5223274 104.9186802  71.0724974  54.1176701
 100.0248241  49.2659616  74.5279646  99.8180485  49.8227692  73.7773371
  99.9383831  49.8440123  75.2859974 112.7408218  50.0464249  38.6909699
 113.3765697  49.4154978  39.0285993 113.0228710  50.8870125  39.0516567
  88.1715107 107.6573372  76.0572433  88.1951141 108.1983185  75.2679300
  87.3245811 107.2130489  76.0178566  13.1743896   0.1014416  59.3792820
  12.4533975  -0.2791363  58.8777208  12.7479959   0.5463510  60.1117277
  90.2163601  59.9879265  75.6633997  89.4528294  60.5648375  75.6839848
  90.3845882  59.7803831  76.5825605  49.4297218  36.0937762   9.0050429
  48.7456083  36.7429185   9.1688424  49.0557861  35.5139279   8.3415830
  87.4934006  59.6648932  68.2797098  86.9766331  58.8609219  68.2266140
  87.9226780  59.7304630  67.4266815  97.2158909 100.3522968  63.3904409
  96.5964508  99.8266125  63.8965893  97.9053497  99.7366142  63.1418180
  93.5560703  55.0011110  60.2587032  92.8302479  54.7104168  60.8108950
  93.6261940  55.9402275  60.4300880  89.0827179  67.5652313  89.6554470
  89.8283482  67.1458054  90.0847912  89.4723225  68.2565498  89.1201782
 107.3736095  48.1647253  47.0348978 107.6413441  48.4501171  46.1613417
 108.1332970  48.3442736  47.5888395 106.9719315  76.8843889  87.5990677
 107.4860764  76.0929728  87.4392509 107.6249886  77.5700855  87.7389431
 109.1605473  73.3161020  89.3545246 109.6185398  72.5524092  89.7055817
 109.0466785  73.8946342  90.1085567 105.7845020  60.3665304  88.8902473
 105.4592800  61.2535620  89.0439987 105.7168865  59.9356031  89.7422886
  86.8101788  41.8871737  82.5068760  86.6070843  41.6012812  83.3975220
  86.4621162  41.1929798  81.9472599 100.9477520  84.2610455  65.9977484
 100.5840492  83.4662819  66.3880014 101.6697884  83.9507580  65.4512882
  25.0730753  69.6678877  63.2072592  24.1776466  69.8009253  62.8962326
  25.1441503  70.2287626  63.9796591 110.2552986  33.0459070  59.5619154
 110.1906109  33.9554882  59.2708635 109.6728325  32.9949403  60.3197861
  83.6395931  75.9651375  53.7567806  83.6279392  75.2174520  54.3543291
  82.8564072  75.8533335  53.2179403   2.8666809  58.6979628  47.5831509
   3.6417043  59.2470360  47.7018642   2.5979775  58.4674263  48.4724665
  81.5099239  97.8534698  52.8977585  81.5964317  98.5864449  53.5072565
  80.8985519  97.2554016  53.3276176  37.1652222  71.4883709  65.7499981
  36.2237740  71.5867186  65.6077480  37.2623992  71.4644051  66.7019510
 103.5272026  77.8977394  36.6330957 104.3689632  78.3493423  36.6940331
 103.1679726  77.9400730  37.5193214  94.3226337  72.6042891  56.9890118
  95.0529671  72.0816851  56.6577530  94.7154331  73.1711769  57.6527739
 107.9474354  82.1051693  50.3709221 107.5621700  81.2538815  50.5785513
 108.8356304  81.9011211  50.0781870  83.2154846  85.2336788  53.2702351
  83.3794785  85.3065014  52.3300076  82.2779369  85.0524902  53.3365107
   2.0458947  69.2511225  80.8945751   2.7406943  68.6822748  80.5630684
   1.7863907  69.7777605  80.1385689  62.5753307  88.7811375  79.2448330
  61.6920614  88.8392925  78.8805819  62.5719261  87.9699612  79.7529840
  12.6188600 104.4323921  77.8631020  12.6755738 105.2975464  77.4574995
  11.9172013 104.5160961  78.5087776 106.5810394  85.6655884  65.3885269
 105.6401443  85.5428696  65.2625227 106.8450737  84.9350643  65.9478521
  76.2667036  94.2420292  62.5433874  76.6165304  93.4154892  62.8760958
  75.4694891  94.3870926  63.0529261  99.9819088  74.1500664  70.8145952
 100.9202385  74.3287039  70.8766174  99.7975445  74.1611481  69.8753834
  74.8266554   4.7706118   3.0706909  75.7637835   4.7263551   2.8808019
  74.7799253   4.8931208   4.0188679  83.5638428  84.3591499  61.7279863
  83.7173367  84.5178318  60.7965946  84.4387436  84.3459034  62.1160603
   6.3900644  51.6049147  51.5236378   6.3083243  51.0204124  52.2772360
   5.5738711  51.4852858  51.0380983  21.5728521  31.0157728  75.0007248
  21.7792606  31.8564177  74.5921421  20.6868315  30.8142996  74.6997166
  94.5397377  54.6621037  90.1005077  94.0226746  54.7248173  90.9035969
  95.2553463  55.2850866  90.2271175  92.8705025  61.2659025  58.2640171
  93.4597588  61.1201954  59.0041399  92.0071316  61.3740540  58.6629248
  72.6267767  83.3844090  63.9168549  72.8635883  82.8006458  63.1961823
  72.9746866  82.9540730  64.6978807  98.7029743  42.9835987  51.3295746
  99.1209793  42.9989529  52.1905422  97.7656651  42.9416132  51.5191078
 101.5337563  67.0001554  67.9496670 101.9428635  66.2988043  67.4427414
 100.7848072  66.5826654  68.3751154 108.5299015  20.9585929  40.2499199
 108.1794071  20.1365685  39.9069095 108.3823776  21.5930605  39.5485520
  98.8668823  54.2916965  52.5813389  98.3302975  54.7627163  53.2188702
  99.1576767  53.5070896  53.0461645  95.3453445  72.0282650  74.6379137
  95.8514690  72.1869469  73.8411140  95.2043533  72.8990555  75.0094986
   6.4339530  52.8940248  56.4118433   5.8488786  52.3800659  55.8552790
   6.0773480  52.7906418  57.2941017   4.1925314  89.4237137  62.7736235
   4.1658944  89.4177532  63.7304354   3.3430433  89.0713882  62.5081682
  26.5339136  55.0389290  45.5706787  26.4741874  54.1293573  45.8628130
  27.2746992  55.3989697  46.0583639  14.9067223  41.6266346  53.5636520
  15.3792071  40.7948303  53.5307121  14.1188729  41.4345980  54.0722227
  50.7758284  20.5880570  36.4502263  51.6401052  20.3654480  36.1042404
  50.9549236  21.1881638  37.1741247 111.9058609  88.2952499  50.3355503
 111.5187931  88.5683346  49.5037889 111.8032551  87.3436260  50.3464937
   5.4510278  72.4912643  88.0377007   5.8347374  71.8771458  88.6636925
   5.7073295  72.1509790  87.1805286   7.1262825  65.1915979  34.9101114
   7.5199497  64.8732185  34.0977740   6.3239354  65.6325054  34.6307015
  67.2566462  54.8318100  63.3004999  68.0590868  54.3645573  63.0681133
  67.3661137  55.7016039  62.9161787  73.0262136  73.7809420  63.0678988
  73.5304976  73.6683941  62.2621346  72.3655176  74.4374609  62.8472281
 110.0568771  69.9855328  72.1088505 109.8264885  70.8919954  71.9051981
 109.3077564  69.6533585  72.6035357 103.3294964  58.2962227  71.9241095
 102.7500916  58.9910173  71.6113997 104.0281773  58.2550097  71.2711382
  18.5455298  53.1949520  72.3467064  17.7283156  53.6167717  72.6121473
  19.2305207  53.7110472  72.7717495  97.8652954  55.2365780  78.8012075
  97.0873833  55.5578852  78.3453083  97.5899696  54.4055080  79.1881800
   7.8837067  95.9335709  93.2774925   7.0829588  96.1337948  93.7622070
   7.9266268  96.6060352  92.5976467 104.8649216  80.4097652  69.0930462
 104.1907978  80.9092617  68.6322880 104.9850559  80.8760452  69.9203253
  67.3297882  40.5275631  92.0747375  67.9467583  40.0671196  92.6435757
  66.5549660  40.6615782  92.6205635  67.1813440  78.8551378  46.4947176
  66.3574409  78.7499571  46.0189486  67.1255064  79.7296095  46.8799686
  90.4774666  86.1708450  75.9663439  89.5921898  86.0106659  76.2932301
  90.4120255  87.0011711  75.4946423  96.2592506  27.5883174  71.8396282
  96.5781212  28.3140230  71.3030577  95.3063202  27.6762700  71.8195534
  79.4068480  59.2434359  53.6630297  79.8276711  60.0972319  53.7638855
  78.9041996  59.1274214  54.4693279   4.2798349 108.5825729  71.0954142
   4.0542138 108.9192390  71.9625807   4.8304278 109.2639923  70.7097340
  98.3019352  62.5061226  83.6088085  97.6627922  61.8362617  83.3658981
  98.7559128  62.7115822  82.7915478  92.4047852  38.5599089  78.1780767
  91.5417385  38.3430767  77.8254366  92.6655579  39.3497300  77.7043581
 106.8312263  32.6648188  76.7130375 106.9893169  33.5081744  77.1372938
 106.3844109  32.1418691  77.3787022  98.4720325  38.1882310  56.4022827
  98.6775684  38.0306792  57.3237801  98.3638477  39.1372490  56.3398790
  25.5351114  94.2298317  71.5572596  25.4595947  94.6462059  72.4158430
  25.9606123  94.8884583  71.0082626 106.6376114  92.2066689  42.6548576
 107.2858906  91.5027809  42.6322746 106.3338757  92.2816658  41.7502260
  40.7744265  26.0493326   7.5335473  40.7181120  25.0944424   7.4982500
  40.6430769  26.2630224   8.4572977   5.9546137  57.9460955  73.1568193
   5.9135056  57.4598312  72.3333549   6.8249559  58.3445120  73.1565094
  72.1685171   2.2292724   6.3330775  71.8774414   3.1228712   6.1514527
  72.6977825   1.9904464   5.5721104  46.8467379  88.1577492  91.0261154
  47.0267487  87.3535347  90.5392170  47.7021503  88.5765743  91.1214542
  72.4392176  76.3402748  46.1531639  71.7770243  76.1177969  45.4987669
  73.1456900  75.7123375  46.0020971 103.8152027  64.6780682  61.8806744
 103.5987759  64.4114113  60.9872007 103.4656906  65.5659056  61.9569540
  73.9911604  64.3410540  62.9456758  73.9942980  64.8396778  62.1286058
  74.7231483  64.6993399  63.4477234  45.5970812  36.6468167  15.1226687
  45.9613800  36.8191743  15.9908926  46.3317490  36.2945056  14.6202958
  89.0861702  54.4647408  45.9650183  88.8953114  55.3514004  46.2710285
  89.8553467  54.5652866  45.4042244  14.8449814  57.0130014  32.3293757
  14.5432222  56.5514994  31.5469503  15.1708186  57.8514528  32.0021749
  89.0580082  64.0644979  49.7785091  88.6772442  64.9410772  49.7250366
  88.6441612  63.5796309  49.0644598 102.8534985  77.0379591  69.7087431
 102.5584221  77.4537516  70.5188513 102.0543766  76.9199800  69.1952181
  95.3288078  87.8194237  86.8845940  95.0740433  87.6436138  87.7903652
  95.3628826  86.9556999  86.4734268  92.1881580  72.5660467  93.8973904
  91.4416695  71.9674206  93.9226818  92.7845097  72.1783113  93.2568741
  80.4111004  32.4880075  27.6701880  81.3313293  32.2392774  27.5833535
  80.4109859  33.1775761  28.3340621 112.7082729  70.4729843  71.4509964
 112.6879311  70.9353352  72.2888803 111.9141865  69.9385166  71.4530230
  77.9784346  62.3526478  56.0557461  77.8368521  61.4082718  55.9898615
  77.8342056  62.5525045  56.9806719  11.4576983  80.8195114  89.4425488
  10.9918237  81.6454220  89.5732021  10.7673383  80.1570988  89.4135761
  97.7427578  62.3643255  53.5295296  97.9889584  61.5554571  53.9782524
  97.6167297  62.1033192  52.6172686  93.1491470  70.1923084  76.0138655
  93.1220436  69.6635866  76.8113327  94.0676880  70.1736689  75.7452345
 104.9159050  69.7697544  76.9412756 105.0476456  70.7167149  76.8950081
 104.5547676  69.6205854  77.8150940   6.5793312  42.2403240  53.8085651
   6.7009670  41.3096619  53.9964533   5.7632458  42.2793245  53.3098507
 111.2585449  52.5017262  84.7108364 110.6472301  52.3046255  85.4205418
 111.3620186  51.6712379  84.2462826 103.3170795  72.2762871  65.9661007
 103.5093212  72.0901680  65.0470591 102.7511024  73.0478239  65.9409189
 100.8200359  88.2570553  57.4914646 100.4740047  87.7124977  56.7843962
 100.6598568  89.1553497  57.2022533 110.9776688  77.5942087  56.7777300
 111.8533039  77.4807358  57.1473408 110.3909111  77.5449038  57.5323915
  46.3651323  81.7042160  68.1118155  46.8980551  82.2217751  67.5081921
  46.0930157  82.3272705  68.7855959  62.3464203  96.4221382  55.7213783
  63.2803297  96.5467644  55.5525255  62.3112011  95.7067108  56.3563204
  14.9367499  59.5015717   5.4635078  14.9662733  59.1693640   6.3607252
  14.8022509  60.4442024   5.5614311 103.4099197  46.2906122  48.6509609
 103.1463242  46.9746542  48.0354595 103.5177135  46.7475653  49.4851112
  77.6518965  85.3829765  52.1299458  77.9467440  84.5353508  51.7970467
  77.8544092  86.0000610  51.4267921  18.7067604  89.9225998  81.7517948
  18.1908023  89.2202854  81.3558388  18.0633092  90.5941391  81.9781399
 100.4041481  55.4267454  73.6719370 100.3356934  54.7217083  74.3157244
 101.3108253  55.7259893  73.7399483  23.8179302 100.7812595  14.8313677
  24.1216373  99.9569511  14.4512212  24.2656064 100.8349323  15.6757236
  76.2774372   4.7880539  73.0865669  77.1283150   4.9223498  73.5039425
  76.4634800   4.2158407  72.3421240  48.6505413  64.2506361   5.2528685
  47.8462410  63.9073849   4.8636186  49.1460323  63.4714699   5.5051059
  86.4107800  84.7791386  57.9494286  86.8350410  85.6046963  57.7155447
  87.1202850  84.2324543  58.2870293 114.0699387  77.2139215  82.2282410
 114.0433788  78.1449699  82.0076180 113.8341522  77.1806383  83.1553459
   0.2845345  58.0023289  62.4284744  -0.4998042  57.4550152  62.4670601
   0.3751436  58.3538008  63.3141899 108.5865879  50.9481049  54.2156696
 109.4814587  50.8643150  53.8864183 108.1405449  50.1623487  53.8996553
 106.5469074  93.0257702  84.7614479 106.3347721  92.7149296  85.6415653
 105.9136677  92.5870037  84.1933632  14.7174907  65.9246159  35.0597239
  14.9164867  65.5671024  34.1943836  15.0956738  65.2937460  35.6722713
  96.5015030  75.1370764  85.3586483  97.0507240  75.1019669  86.1418152
  95.7851124  75.7263803  85.5947304  78.5308933  63.4239244  59.3767452
  77.8731346  62.8635216  58.9649916  78.2465649  63.4973574  60.2877855
 106.7682362  78.0836582  55.7696295 106.8615246  78.2113457  54.8255825
 105.8238125  78.1115866  55.9229279 109.3113708   3.8672930  63.6492586
 108.6324692   3.2736677  63.3284140 108.8314056   4.6364439  63.9563084
   1.3587601  83.4520817  57.7157116   0.8984470  84.2911339  57.6974869
   1.1379836  83.0395794  56.8806458  88.5548973  28.0355120  18.1402171
  89.3886089  28.0476236  18.6103320  88.7624931  27.6378155  17.2946537
  97.3578548  55.2989626  34.9873137  97.1045208  56.1397600  34.6063685
  97.0302486  54.6469164  34.3678427   9.7917187  87.4263382  33.9300036
  10.3047585  87.3625755  33.1244254   9.1966724  88.1604385  33.7775278
  74.3188524  40.7596111   2.4853531  73.4262562  40.8187008   2.8259560
  74.3109894  41.3029909   1.6973759  28.7062979  15.4256117  11.1786127
  28.1928158  15.7656002  10.4458249  29.2134881  16.1774027  11.4848793
 114.8274040  62.5379801  81.0122967 115.7349300  62.4208260  80.7313919
 114.3094349  62.3699760  80.2250767 107.3479366  67.3716307  52.6487541
 107.5418377  67.9157162  53.4120369 108.1749916  67.3288631  52.1687794
  91.2792301  52.6781607  90.1672268  91.9418240  52.4961805  89.5008278
  90.4447556  52.5366402  89.7201920  19.2097986  69.7666502  36.6812277
  20.0319004  69.3973970  37.0037699  18.6950016  69.0059996  36.4117455
  10.5038226  92.5114346  85.2401066   9.9888361  93.1681252  85.7089043
  10.4199636  92.7547169  84.3181419  80.2519131  44.5691538   7.2046083
  79.8292875  45.4259586   7.2638088  80.1666546  44.3231678   6.2834936
   1.2718275  37.7937818  63.4180880   0.7491270  38.3851862  63.9596176
   2.1723351  38.0976224  63.5321045 112.5044727  97.9806423  74.3127871
 112.5076008  98.7331963  73.7212706 112.5278854  97.2197723  73.7324810
  97.8620434  51.8286180  64.3552780  98.0453014  52.6793051  64.7539997
  98.2529831  51.1936140  64.9554157  32.7291322   4.8061928  77.6215792
  32.8308249   4.0657803  77.0235157  33.5920906   4.9106267  78.0223656
 111.0200119  92.4755955  89.8183632 111.2004566  91.6182137  90.2038002
 111.7795944  92.6535225  89.2637539   8.4179956  91.8031120  50.3073311
   8.4974974  91.4423847  51.1903906   7.6993573  92.4323368  50.3694487
  82.9996681  90.6723881  70.4488134  82.5047112  90.0848293  71.0197973
  82.4738026  91.4714241  70.4136753  83.7820435  72.9629517  36.7141891
  84.1307354  72.9041195  35.8247042  83.8825035  73.8851166  36.9503236
 109.2716694  59.1051340  53.7409544 109.3808174  59.3953085  52.8353500
 110.1155186  58.7164021  53.9712524 114.6525002  85.8809376  78.3446264
 114.0944958  85.1264095  78.5331488 114.4826508  86.4899540  79.0632868
  85.0706387  78.2182789  73.9234972  85.1575756  79.1694164  73.9868259
  85.5473709  77.9867411  73.1264114  45.9524488  16.3417017  58.0128241
  46.1581135  16.9854558  57.3349476  45.5202436  15.6286466  57.5427389
  99.9660587  72.3557949  67.5540686  99.1398621  72.5753784  67.9846811
 100.1722908  73.1260681  67.0245600  20.6382704  77.6236343  47.3455811
  20.0405335  77.2931910  46.6749430  21.4900637  77.2565269  47.1091175
  83.4166527  71.2797546  76.8936253  82.7886009  70.6466579  76.5458202
  83.8389683  71.6490173  76.1180449 108.1402397  49.5646334  56.6852236
 107.8211021  48.6632061  56.6427565 108.0810642  49.8823595  55.7842350
  47.0432615   8.9309108   9.3424219  47.8825331   9.1107780   8.9187402
  47.1738052   9.1934949  10.2535975  94.3777084  74.4479847  31.4580941
  93.4763432  74.3418694  31.7622566  94.4498253  73.8540983  30.7108760
  86.5495968  69.4585800  74.3252611  85.6840038  69.3360758  73.9354229
  87.1535778  69.0636396  73.6964035  89.7571373  96.6691208  92.5775433
  90.3938866  96.1272049  92.1115971  90.2325821  96.9930649  93.3425522
 101.2556553  87.1610546  92.9244709 100.4145145  86.8831444  92.5618553
 101.2124443  86.9121075  93.8477230   1.1315355  46.0728836  58.4575415
   0.7412893  45.3929090  57.9083872   0.4221300  46.3482428  59.0381908
  92.0721149  74.4646835  73.6222982  91.9918156  75.0511694  74.3745089
  92.5672722  74.9692535  72.9769659 103.9664173  95.8335781  64.5320415
 104.8277473  96.2374592  64.6379375 103.3543682  96.5695095  64.5385361
  26.6093183  52.3382235  58.8821173  26.3059092  51.6291189  58.3152437
  26.1130571  53.1043005  58.5938787  23.8463831   8.0760872  76.4565945
  24.3584037   8.6877578  75.9275150  24.4852901   7.4338555  76.7657328
 115.9103584  86.1538696  58.1248522 115.0223732  86.1881161  58.4805727
 115.8720875  86.6905308  57.3331642 112.4205589  74.2137623  51.0385084
 112.4309063  74.2910051  50.0844860 111.5044594  74.3504906  51.2799549
   4.8553962  86.0779572  56.6539049   4.0846851  86.2353992  57.1992922
   5.5633944  85.9222698  57.2789907 108.7593365  49.7356987  45.0534105
 108.0364990  49.7521687  44.4261503 109.1915417  48.8957453  44.8987913
   0.0040749  74.6753788  84.0985012   0.4726049  75.2752352  83.5180759
  -0.3749544  74.0212059  83.5114479  79.7344017  60.1395082  41.8419600
  79.2856073  59.5478773  42.4459314  80.0865746  60.8314228  42.4018335
  16.9749486  58.9550352  57.3193932  17.4504554  58.9402151  58.1500006
  17.0149350  59.8686886  57.0367861  10.7599711   1.3469519  29.7838187
  10.6011844   2.1518454  30.2769351  10.6506944   0.6465164  30.4269981
  15.8960140  52.1507454  63.0076838  15.2780497  52.5171947  63.6401939
  15.3809118  52.0344877  62.2093201  81.9058037  94.5555019  89.4636250
  82.6397038  93.9798164  89.6785545  81.5231323  94.1714096  88.6747837
  90.1718140 101.8192673   1.2257775  90.1250553 101.0794830   0.6201645
  89.9584770 101.4434528   2.0798767  31.6440725  29.3047357  67.6202011
  32.3919630  29.4506550  67.0408916  31.6817117  28.3714485  67.8294611
 104.7836876  76.5306425  53.8901758 103.9417267  76.4216042  54.3322754
 105.3098297  75.7896996  54.1908741 114.0715218  90.9358311  90.9127998
 113.7331200  91.3344955  91.7145348 113.5259151  90.1602745  90.7821941
  11.8346679  69.3135834  55.6903887  11.4055717  70.1647615  55.6031656
  11.6394365  69.0375900  56.5859032  89.8716640  28.6313963   6.6719639
  89.7303581  27.9517150   7.3309767  90.2692127  29.3552709   7.1558964
 105.4046059  86.4799404  92.5640392 105.6318951  86.7956829  93.4386063
 104.8296070  85.7311058  92.7216721   8.5774410   9.3006933  83.3060265
   7.8406358   9.5342582  83.8706493   9.0062517  10.1347697  83.1145287
  16.5763521  93.3418083  87.7781868  16.0163879  93.4700966  88.5438251
  15.9703457  93.3311558  87.0373249 111.9683075  78.1922674  38.1890321
 111.0316944  78.0001163  38.2345867 112.0118713  79.1346359  38.0269456
  28.8249207  75.0323153  70.9445858  28.9033914  75.8817673  70.5104113
  29.0790963  74.3968916  70.2753592 101.5664291  97.2613716  85.1880932
 100.9145737  96.7654896  84.6926880 101.2102795  98.1487942  85.2312279
 114.3612289  34.7415495  40.0370646 113.6717796  34.4336748  39.4487596
 114.0648842  34.4825315  40.9096050  69.5867968  59.8221111  29.9614453
  70.0388479  59.1447258  30.4644680  70.2716923  60.4529762  29.7397256
  97.1282578  65.6175041  89.6401310  96.8364239  64.7061968  89.6160316
  97.2497177  65.8055687  90.5707836   9.2566967  88.6977482  22.2242117
   9.4702899  89.1181183  21.3912034   8.7697804  89.3631744  22.7103758
  97.2547626  92.6723862  68.1837749  97.3130512  93.4655952  67.6511860
  96.9230652  92.0046616  67.5834703  89.7389793  65.0029135  72.1554327
  88.8278389  65.0640059  72.4423599  89.7451687  65.4103708  71.2893057
  52.2113276  37.6076317  20.8229613  52.3732042  38.5489464  20.8858657
  52.0917940  37.3240662  21.7293477 105.2044773  51.3934135  70.9604883
 105.6664467  50.5745029  70.7810307 105.7726574  52.0732689  70.5982685
 106.9169044  49.5595646  33.1770110 106.8085098  50.3854513  32.7054214
 106.5367508  49.7247505  34.0398145  14.4154000  95.7042503  87.3754501
  14.5223832  96.5866661  87.7305889  15.1933062  95.5677795  86.8346500
  45.3649521  32.7996397   1.4212541  46.2696362  32.5243831   1.5696307
  44.9867058  32.8621411   2.2983254 105.9326172  75.3319645  65.8492947
 106.3176060  76.1746740  65.6087780 105.2804756  75.1637173  65.1691246
 103.8690376  80.2126694  74.2757082 104.0898418  79.3093252  74.5025158
 103.3948040  80.5422115  75.0390768 111.0503769  30.5417323  46.2051296
 111.0226536  31.1899495  45.5013704 111.8426132  30.0333738  46.0314417
 106.9295216 104.5770645  49.8292637 107.1547604 103.9182854  50.4861593
 107.1502972 105.4120445  50.2419281 114.7922230  72.6335621  75.7994604
 115.0753021  73.4944153  76.1077213 114.2343044  72.2992373  76.5017366
  95.2619362  72.1468639  66.5158367  94.4936752  72.4873209  66.9741917
  94.9255085  71.4200783  65.9915924  62.9781485  15.5625308  20.2661157
  62.0861101  15.3385758  20.0008965  63.2738781  14.8069382  20.7739115
 103.5512066  39.5593596  39.5286798 103.1407261  38.6954379  39.5657468
 102.9977322  40.0620699  38.9310360 101.9059944  93.6371326  48.5974979
 101.1153984  93.5036564  49.1203547 101.7636585  94.4753647  48.1578016
  92.6693153  92.0445156  75.7076550  92.4594879  92.4530983  74.8678493
  93.0900383  92.7396011  76.2136936 108.1791401  85.5347919  76.8174648
 108.9973259  85.0392723  76.7818975 107.5551033  84.9374771  77.2298002
  23.4625769  67.7381182  68.9795685  23.8237643  67.0021915  68.4854126
  22.5213218  67.7019596  68.8093805   8.4412879  20.3215790  84.5863533
   8.0804121  20.2754903  83.7009811   7.6904899  20.5356073  85.1401806
  81.0395622  57.5052261  34.7578430  81.4940357  57.9026699  35.5006218
  80.1719761  57.2857475  35.0974751 102.5750256  23.5633445  86.5910149
 103.4029388  23.9299583  86.2805367 102.2754955  24.1800857  87.2589493
  89.6563339  97.8250408  75.0460768  88.7218857  97.9073143  74.8556519
  89.7207737  97.9588985  75.9916782 115.9342957  67.5450754  25.7823801
 115.6219864  67.5191832  24.8779368 115.5745983  66.7535210  26.1827374
   5.2482879  97.9360008  82.3754501   4.9293223  97.0804119  82.0882893
   5.5558032  97.7891064  83.2699203 101.3334846 103.7033176  72.4662638
 101.1169147 104.1048813  71.6247940 100.4870987 103.5703754  72.8931046
 110.8278561  78.3917999  86.0773277 110.6302166  79.2684889  86.4068508
 111.2109947  77.9351521  86.8262672  28.6702585  84.6066189  65.2566195
  27.8756595  84.3386650  65.7181835  29.0841436  85.2416801  65.8411121
  54.9000692  17.6167357  88.6819744  55.2596951  17.8242838  87.8195190
  55.4785061  16.9356227  89.0250874  78.7291336   7.2895849   7.5399691
  79.5319843   6.9302398   7.1624351  78.9909840   8.1387085   7.8958559
  91.0044098  77.6573229  68.8601351  90.8988380  76.7483854  69.1410637
  90.1733685  77.8757191  68.4383488  77.6857519  81.1954975  89.4319916
  78.0381632  80.8057880  90.2320862  78.3659315  81.8033123  89.1419125
  89.8521328  65.5489111  86.9724274  89.1446304  65.5907774  87.6157951
  90.5961514  65.1920223  87.4574947  19.8249245   9.7442085  80.4825687
  20.3513408   9.4510603  81.2263298  20.2749276   9.3892598  79.7159243
  77.7507591  66.5567017  62.0527220  77.3370743  66.8121338  62.8772545
  78.6868954  66.5345812  62.2512054 112.9764748  94.1912365  21.2026596
 112.4656010  93.6280918  20.6211877 113.6358452  93.6095619  21.5809679
  80.0825691  18.8900101  11.5388906  80.9755802  18.5592842  11.6357255
  79.6377802  18.6171842  12.3413646   9.2248791  68.2301283  54.0931177
   9.8881072  68.8219976  53.7380838   8.9738643  68.6249638  54.9281788
   6.5164566  73.3972883  70.9027529   7.4297559  73.6441708  70.7572746
   6.3460690  73.6359215  71.8139362  52.6480961  24.0129542  43.8593197
  52.5794363  24.5280743  43.0554771  51.9936562  23.3218765  43.7575674
   8.3110309  88.9755917  63.5286951   9.0233433  89.3776226  64.0258932
   7.5822330  88.9311218  64.1476488  89.6108723  89.9242496  85.4700851
  88.6825180  90.0590420  85.6604099  89.9930382  90.8010006  85.5086803
   2.2941555  90.5636311  82.1005058   3.0537471  90.9957027  81.7099094
   1.6263410  91.2478924  82.1456909  53.1912136   5.3065711  49.4525528
  53.3130121   4.5633337  50.0433111  54.0795517   5.5678028  49.2099810
  83.1621552  96.9398499  90.0254631  82.5796127  96.2473679  89.7134590
  83.7502956  96.4996529  90.6391048  13.6692226  92.4818420  67.5451136
  14.0372288  92.3993206  66.6653490  14.0026772  91.7185879  68.0167866
 106.8797016  61.2936068  57.9896164 107.7285862  61.7358351  57.9824638
 106.5708733  61.3533640  57.0855761 100.4127312  76.3370895  67.9822397
  99.5576382  76.0771179  68.3249855 100.3941250  76.0689545  67.0635509
 112.8247452  55.3570509  86.6653252 113.1078625  54.8761463  87.4430180
 113.3391857  54.9813080  85.9508991   5.8919191  48.1387377  64.7632504
   6.1269027  48.4106112  63.8760662   6.7304224  47.9604959  65.1891327
  96.8406773  59.4177198  46.7941761  97.1594620  58.9362192  47.5575638
  97.3533344  59.0736103  46.0627317   2.4651152  56.5266800  61.3986015
   2.0307739  57.3094940  61.7373943   1.8108067  56.1151028  60.8340502
  94.0391254 102.0171738  37.0024323  94.4513607 102.6526260  37.5876617
  93.1451511 101.9313526  37.3335981  65.4788303 100.4394436  78.0675793
  65.0426054  99.6271324  77.8104877  65.0562763 101.1160374  77.5385237
  90.5277538  60.3049707  73.0883026  90.1539993  60.0411797  73.9291096
  91.1089420  61.0346317  73.3029032  84.1743279  22.7413392   9.2652535
  84.7462940  23.0755854   8.5743350  84.6733475  22.8691626  10.0720179
 105.0606441  32.7220535  44.1085434 105.1992893  33.4137154  44.7555494
 105.1806831  33.1564665  43.2640839   8.6803734  84.6860504  91.1065197
   8.8430953  85.3997040  90.4897118   9.0794849  84.9811649  91.9249630
  69.2579460  65.2618217  52.7443075  70.1656532  64.9935389  52.8868628
  69.2971373  65.8470154  51.9878387 100.8360767  83.6189651  61.5073013
 100.2805424  82.8601837  61.6858149 100.2258015  84.3540287  61.4482689
  81.6436195  77.9297304  33.5870934  80.9726238  78.5499334  33.8723016
  81.9550610  78.2806873  32.7527881   8.3160883  79.1520309  77.1222258
   8.6165529  78.8632727  76.2604952   9.0266925  78.9114046  77.7166748
  19.0692616 105.6880569  63.2494831  18.6192930 106.4125061  62.8148127
  19.6904266 106.1124897  63.8412905  75.3563595  54.3390894  52.6991034
  75.1054335  53.6090088  52.1331930  76.2468910  54.1290712  52.9803038
  91.0639858  33.5654235   7.0401448  90.5355549  33.1955338   6.3329148
  90.5971622  34.3605328   7.2972643  34.3370676   9.2373872  67.9199266
  34.2539430   8.8970554  68.8107109  34.6242785  10.1431489  68.0354118
  87.3466492  74.1003370  76.9617319  88.0587101  73.7010241  76.4619780
  86.9096088  73.3626413  77.3872089  93.5923672  80.2407646  61.7461061
  93.1674957  80.7765198  62.4159527  92.8682137  79.8500061  61.2570763
  15.0560486  16.6000605  85.2963543  14.5408487  15.8354056  85.0392437
  14.7759986  17.2905886  84.6955395  22.9217744  93.2709408  69.1105795
  23.8043618  92.9823017  68.8782883  22.4874735  93.4139919  68.2696581
  21.1523318  90.9279633  67.4989700  21.3930440  91.5539360  66.8159962
  21.9712639  90.7524300  67.9624033  73.6221361  78.2412434  59.5248222
  72.7536821  78.2146502  59.9264574  74.2269421  78.2910109  60.2650690
 105.6507111  91.8608284  61.9233894 105.4347801  92.3690319  62.7052689
 105.8579731  90.9872341  62.2552204 105.3478718 104.6737099  93.9549446
 104.4194317 104.6581554  94.1873074 105.5463791 105.6008339  93.8235474
 103.2924652  87.5496006  56.5549374 102.4693203  87.6884556  57.0233202
 103.1164360  86.8079567  55.9759712   6.5528738  91.7316437  82.4970245
   5.7218015  92.0070648  82.1101189   6.3050270  91.2997150  83.3144855
  96.8124771  32.5140452  74.7101307  96.5643692  33.3396006  74.2940331
  96.8856239  32.7272105  75.6404257  94.3899155  84.0991211  86.1135387
  93.7567902  84.7914982  85.9238434  95.0195122  84.5066738  86.7083168
  87.7789211  27.0785403  15.6431246  87.5114727  26.2216759  15.9755218
  88.0098629  26.9190192  14.7280002   1.0573535  54.9267054  86.7418003
   2.0075373  54.8594570  86.8359280   0.7406378  55.1013184  87.6280403
  13.9915729  55.5663681  60.4239893  14.1075909  54.6164942  60.4013681
  14.3781936  55.8351040  61.2573767  94.7725773  78.9611864  87.3546410
  95.4415417  79.3660259  86.8025303  94.5138645  79.6528912  87.9636002
 101.1862850  89.6509552  69.6676302 101.2212181  90.6006908  69.7817469
 100.9321785  89.3155956  70.5273962  16.9595695  92.1267700  48.5860300
  17.8436136  91.9312572  48.2754278  16.5976477  92.7153111  47.9235649
 101.4785767  39.4973612  88.6275768 100.7433319  39.0306950  89.0249062
 101.5238667  39.1566539  87.7342129  12.8104556  88.6073875  55.9053707
  12.2646248  88.7102318  56.6849375  13.5999703  88.1684589  56.2219858
   3.9707309  37.4868774  63.3939314   4.3228135  37.8926921  64.1861343
   4.6121460  37.6928759  62.7139425  98.3793354  64.4232988  67.1527290
  97.9998398  63.5649681  67.3411036  98.8218021  64.3101501  66.3115120
 114.8902988  54.1126680  34.3379736 114.0462208  54.4098282  33.9981771
 114.9496937  53.1972599  34.0645909   0.0156645  66.9965267  56.1836576
   0.0643209  66.6450262  55.2946663   0.1985601  66.2456608  56.7484426
  13.7094212  65.6224251  57.1913528  13.8910425  64.9068069  57.8005648
  14.1211176  66.3881826  57.5917959 114.7056293 101.6234398  73.9730740
 114.2592812 102.3348522  74.4323111 115.5731487 101.5854836  74.3758202
  18.0057240  33.7830353  58.6673880  18.0555177  34.6744537  58.3222389
  17.2260356  33.4101129  58.2559872  92.0832539  81.9149780  63.5105610
  92.5869560  82.1743965  64.2820644  91.2298584  82.3315907  63.6304760
   2.8085521 104.8274612  78.7222815   2.1604735 104.7871017  79.4255590
   3.3708939 105.5656815  78.9568615  41.1352396   0.7227428  53.0836773
  41.3159561  -0.1887355  52.8539371  40.4188585   0.9786715  52.5027037
   9.4384557  61.5173101  48.6072874  10.1316512  61.2053108  49.1889811
   9.0651202  60.7204485  48.2306480 104.5960712  17.3273563  33.2490087
 104.4221687  17.9514229  33.9536572 105.2015209  17.7862203  32.6666832
 106.3258457  78.6823416  52.9855156 105.9337234  79.4166040  52.5129318
 105.5795670  78.1549501  53.2704210 112.4642563  78.4756899  23.9320946
 111.8626976  78.9707088  23.3759284 112.5081635  77.6099110  23.5262251
  21.7663217  59.1321325  19.8769104  21.3221788  59.9800491  19.8739493
  21.7357969  58.8425779  18.9650667  82.3883438  76.3809299  63.6818504
  81.5392685  76.0459232  63.3936167  82.2068405  77.2743559  63.9735174
   8.5162675  73.3120680  41.9898272   7.6593167  73.5456514  41.6330290
   8.6157387  72.3823833  41.7848301   5.1532447  64.4018078  75.2453804
   4.8375037  65.1552868  75.7441902   6.1039621  64.4237566  75.3544092
  79.7454786  75.3788042  50.3197432  79.9233103  75.5713654  49.3991280
  78.9089251  74.9137115  50.3099012  11.6493082  60.6766415  53.0852127
  12.0425892  61.0621214  53.8681364  10.8596802  60.2396393  53.4041977
  85.1167488  68.0989361  64.0044928  85.4465675  67.2896338  63.6140013
  84.1698742  67.9698801  64.0593386   1.5973715  70.0787640  67.8694010
   1.7332053  70.0623751  66.9220304   0.9193372  69.4214106  68.0255556
 106.9740200  73.1997967  58.2062626 107.3981094  74.0565777  58.1582594
 106.8894100  73.0266237  59.1438580  24.4073963  34.0765691   7.0557624
  24.2375588  34.5966935   7.8411663  25.0174522  34.6077633   6.5440053
  90.2633667  74.5577574  57.9958963  89.5777225  74.9516726  58.5352945
  90.4259968  73.7054300  58.4000349 101.7028236  18.0807984  12.8280354
 102.4332047  18.6963940  12.7661908 102.1166992  17.2342336  12.9961848
 100.1297760  63.0098820  88.5486126 100.8975410  62.6666546  88.0914783
  99.4646835  63.0991983  87.8660393 106.4413548  89.3090057  66.7668676
 107.0667267  88.9526939  67.3978853 105.6430817  88.7997627  66.9071293
 103.0219841  65.6794930  49.9171495 103.4719944  64.8641205  49.6960306
 103.7188625  66.2648392  50.2137375 105.9371853  56.4572382  82.4103355
 105.8876133  56.4199400  83.3655262 106.7653656  56.9022942  82.2306824
 103.1982422  81.8335819  51.5536022 103.2531357  82.4654388  52.2705221
 102.4405670  81.2903690  51.7705917  90.5041027  82.1584034  51.5677691
  90.5024719  82.1906853  50.6111145  89.9346352  82.8807068  51.8327570
   9.4319451  73.1564188  72.5192070   9.9817455  72.7230358  71.8664169
   9.3004721  72.4951601  73.1986809  64.0799999  -0.3433122  48.7450075
  64.1769171   0.2491275  49.4905615  64.1546631   0.2235635  47.9773426
  46.2457514  11.4541543  73.9370537  47.0641947  11.7821407  74.3096209
  46.2966776  11.6824329  73.0088663 112.2450542  59.8524380  63.0665541
 111.8399811  59.0108776  62.8569794 111.5118790  60.4165030  63.3125544
  95.1943207  77.7126551  82.7860546  94.7800636  77.4349833  83.6030674
  96.1328220  77.6193666  82.9495907  17.7789474  90.0313854  87.7088070
  16.9664633  90.2313519  87.2439194  17.4956799  89.5725727  88.4996796
  63.2076597   7.3913026  37.8309774  62.5239229   6.7417014  37.9945469
  62.7586460   8.2339251  37.8988457  99.0037346  61.0861397  60.7850695
  99.7170830  60.7818270  61.3461065  99.4238281  61.2789202  59.9468613
  25.2877712  83.5520363  73.2876253  25.3338313  82.6581669  73.6268950
  24.3520045  83.7157726  73.1703043   7.1120137 106.9497395  84.0405560
   7.6920295 106.2112522  84.2261791   7.7039319 107.6739883  83.8372803
 114.4720364  46.3839006  40.6732559 114.1235352  45.5141544  40.8689928
 114.0924072  46.6084337  39.8237300  95.0183201  94.8589039  66.5489388
  95.3643894  95.1875591  67.3786688  95.4799843  95.3643227  65.8798742
  15.5355132 104.8647499  39.2178178  14.7267318 104.8740959  38.7059426
  15.6948161 103.9380741  39.3970680  79.1026545  99.6287441  57.2421026
  79.7115421  98.9030361  57.3793793  78.3095074  99.3677044  57.7100849
  56.5254164  15.3878248  63.8409233  55.7169437  14.8753786  63.8437271
  57.1827316  14.8002231  64.2136049  44.8420572  83.9521503  79.3189049
  44.3788052  83.2991409  79.8435068  44.2627048  84.1165161  78.5748816
  78.5722399  11.6088986  75.4948711  78.1480885  11.7542696  76.3405657
  77.9934883  10.9981632  75.0384951  84.5644188 109.1172600  77.4544477
  84.7320271 108.1828308  77.3320055  85.3819942 109.4622326  77.8133249
  45.5836058  11.7509556  49.5553160  44.8541498  11.2349987  49.8986959
  45.6600094  11.4786792  48.6408424   3.0525613  70.4749107  87.0518780
   3.5251814  71.2268543  86.6948891   3.7272584  69.9509954  87.4837685
   1.1902922  85.2862644  60.7453632   0.9392458  85.7382011  59.9397850
   1.0002929  85.9148407  61.4418030  30.8417392 109.0019417  86.8926430
  30.7261062 109.6993732  87.5379658  31.3588047 108.3375263  87.3480988
  56.4282560  43.8744020   9.4383669  56.6747761  42.9514599   9.4986326
  55.6106186  43.9366579   9.9321473  98.1483459  48.4922409  53.0709553
  97.7252102  49.1143322  53.6627245  97.6499939  48.5595036  52.2564888
 106.1400890  78.2234097  65.6513309 106.9386196  78.3219719  66.1698532
 106.3741112  78.5573292  64.7853231   2.7889979  20.1863289  38.3427119
   3.5933849  20.2500749  38.8576198   3.0894119  20.0282288  37.4477339
   1.6297035  89.1163349  79.4237566   1.9449231  90.0090885  79.5646811
   2.2801869  88.5618401  79.8546171  79.2857599  56.0966253  17.4990261
  80.1120472  56.3865805  17.8855598  78.6131811  56.4334774  18.0909753
  47.5071812  10.1351142  92.8893471  47.3295593  11.0732484  92.9570866
  47.4236822   9.8102015  93.7858391  21.4291167  73.2204866  78.5592270
  22.3746347  73.3555651  78.4961367  21.3225937  72.6093817  79.2882252
  95.4700470  87.0588970  48.9534712  94.9857998  86.8125057  49.7415304
  96.3149643  87.3694992  49.2788506  98.1736374   5.9436852   1.7340283
  97.8642368   6.8460214   1.6547202  98.3152962   5.8206820   2.6726633
   1.6913395 107.6945972  64.9529982   0.7893946 107.9092121  64.7149515
   2.0635714 107.3103142  64.1592741  94.4014549  51.0450840  10.6278217
  93.9658546  50.1931667  10.6547594  93.7660027  51.6258717  10.2093434
 110.1200771  48.5383463  64.0589666 109.7264099  48.8096571  63.2297230
 109.3750000  48.3984184  64.6433640   4.6976086   1.7891932   3.7250271
   4.5561260   0.8699073   3.9511424   3.8164401   2.1520111   3.6348194
  43.1007481 101.8121719   6.4446813  43.7423992 102.3513603   5.9823036
  42.5114965 101.4995098   5.7581979 112.8308201  80.4692268  21.6215396
 113.3985519  80.9746647  21.0397792 112.3711109  81.1292553  22.1404433
  72.0138502   6.2561023  10.7566595  72.8308058   5.8217138  10.5114627
  72.0892715   7.1352029  10.3855455   2.8593832  85.7790184  83.3930016
   2.3658746  86.3226128  82.7788448   3.4771070  86.3832664  83.8047504
 114.8177814  77.9642153  70.8475876 114.1145992  78.4983349  70.4781628
 115.6217575  78.3641768  70.5161047  15.6725848  84.4651222  29.7869563
  15.2145255  83.9850426  29.0970778  14.9788535  84.9243736  30.2603030
  35.5638909  70.0689507  85.4904652  36.1808777  70.3668451  86.1589050
  35.7044578  69.1235256  85.4390717  93.9328766   1.6211177  81.3004303
  93.8868999   2.5164610  80.9650612  94.2883205   1.1107621  80.5728149
 112.6349831  94.2477131  68.8223505 111.7805004  94.4069481  69.2232561
 112.4774933  94.3307209  67.8818512 103.7176609 100.8072281  39.0953231
 103.5510540 101.7297459  38.9018345 104.4700050 100.8186817  39.6870017
 110.6100273  93.2407475  77.4555683 111.0880756  92.4485874  77.7008724
 111.0042572  93.9325714  77.9867887  41.5587664  10.5101717  76.5147114
  42.1118498   9.8138380  76.8689060  41.7863035  10.5475938  75.5857038
  96.8383980  28.0173850   2.5296918  96.9596767  27.2509575   3.0901507
  97.1089935  27.7232933   1.6599105 104.9130630  37.6375508  22.4592566
 104.7857952  38.5649180  22.6593232 104.3423843  37.1789837  23.0759239
  99.4314957 105.0617790  67.8555584  99.2436886 105.9135628  67.4613333
  98.5966873 104.5944500  67.8250790 112.6348400  94.6249199  74.0102005
 112.9289341  93.7240314  73.8754988 113.2713795  94.9958229  74.6213341
 114.4289780  94.8659325  81.8533707 114.7145271  95.7716370  81.9734001
 113.8855648  94.6825695  82.6197338 108.7345886  86.0965443  60.4248381
 107.8952408  86.3387108  60.8161020 109.3742657  86.6567421  60.8644152
 105.6666851  99.5558071  57.1864080 105.4768753 100.0258541  57.9983521
 105.6968689  98.6345291  57.4444389  14.6808398  77.0716524  43.2623720
  15.2107453  76.2771130  43.3267069  15.1771677  77.6438332  42.6771402
  19.0311468   4.3345284  76.2816811  19.6808910   5.0243175  76.4167976
  18.1880796   4.7813657  76.3578701  49.6582937   3.6200917  80.7545662
  50.5498934   3.2971466  80.6242275  49.7714043   4.4728664  81.1743450
  18.2338524  96.7250252  53.7692642  17.6295805  97.0558071  53.1046820
  17.8804958  95.8683872  54.0091467  47.2664070  23.5198760  20.4339147
  47.2388601  23.3915257  21.3820720  46.7772198  24.3295026  20.2875066
  32.8713083   0.2018472  89.0102005  32.9902458   1.0344777  88.5532379
  33.0504537  -0.4636487  88.3459282  30.0907993  11.4002705  88.1945992
  30.6683397  10.9084725  88.7783909  29.3820119  11.7059875  88.7606239
  61.9189405  53.7191248   3.0931556  61.5414381  52.8874636   2.8066829
  61.2701321  54.3761539   2.8409830  99.4116879  76.9648361  77.2143364
  98.8317299  76.2365961  77.4369144 100.2898121  76.6422796  77.4170303
  95.9245014 102.3230648  65.3364134  95.4754257 102.9522705  64.7719145
  96.3845062 101.7428112  64.7298336   5.9931028  91.0548019  52.8695107
   5.6227815  91.2184715  53.7368679   5.4879993  90.3165340  52.5288439
 107.9016685  90.8736515  78.3215141 107.7998734  91.1775398  77.4195576
 108.7190628  90.3755951  78.3156395   4.2108324  81.4613056  67.9851198
   3.3692300  81.8545914  68.2159090   4.0718225  81.0928726  67.1126747
  26.0249758  76.5759277  72.1847820  25.5437851  77.2612333  71.7210484
  25.7985711  75.7692289  71.7219543  23.2652640  88.4262753  41.1599255
  23.0542755  87.7234364  41.7745161  23.3805513  87.9829311  40.3194571
 104.7949409  98.2900906  80.2920341 104.5622635  99.0502071  80.8252335
 104.2394066  97.5851154  80.6246281  69.4548368  38.1707883   3.5011113
  69.4187641  38.6508703   4.3284264  70.3703737  38.2317901   3.2285219
 102.4785805  70.9392738  24.3697095 103.0870533  70.2976418  24.7361827
 102.5604439  71.7015553  24.9428201 113.5774612  98.0497646  87.2207069
 113.3829308  97.3344707  87.8262997 113.4812450  97.6605511  86.3515186
  33.4538102 106.6280365  83.4625149  34.0614319 107.3652363  83.4027958
  34.0170670 105.8613586  83.5682487  42.4850988  26.0292459  56.2635612
  43.2193995  25.6675220  56.7597342  42.8958559  26.5416288  55.5671597
  18.6788118  84.5312786  88.9001560  17.8447926  84.4799137  89.3670750
  18.7223959  83.7178421  88.3975124  29.5459056  93.0188560  70.4516506
  28.6668873  93.0203533  70.0727606  30.1284456  93.1624508  69.7058201
  81.1697197  78.6450577  76.1466980  80.3906822  78.7934208  75.6106758
  81.4700317  77.7714109  75.8961344  54.3417406   0.3959681  27.3646951
  53.4783363   0.4438101  27.7751493  54.4739294   1.2637857  26.9830513
  17.0277131 106.1845016  50.5865240  17.4614847 105.3312302  50.5876255
  17.3594308 106.6228390  51.3701439 111.7828655 105.8193398  24.8331547
 110.9812641 105.6879807  25.3395295 111.7606544 105.1323128  24.1670203
 112.8770351  63.0865383  26.6864657 113.7757111  63.2716465  26.9591618
 112.6558781  63.8012648  26.0894060 105.3151798  82.6361084  70.8358097
 104.5805073  83.2066822  71.0615063 105.7270527  83.0620098  70.0840139
  14.7723413  76.1169481  71.1280537  14.9472558  76.2095118  72.0645761
  13.8835120  75.7644129  71.0841036  80.0523186  84.4085503  50.1611328
  79.6186209  84.2939091  49.3155575  79.6561527  83.7446213  50.7254744
  42.9806423   5.1602817  47.0459223  42.1415758   4.7523883  46.8318701
  42.9382944   5.3141809  47.9897213  31.5007281  83.7914848  54.5310307
  32.3321366  84.0394783  54.9353647  31.6971540  82.9845905  54.0550280
 100.4895592 103.3786201  47.0759916 100.0572014 102.5878334  47.3984241
 101.2464428 103.0554295  46.5872192  55.6934261   1.1615722  75.6197548
  55.4375362   1.9260931  76.1357594  55.7966709   1.4972469  74.7293091
  91.2989712  79.7118998  80.0122070  91.7169762  79.4630194  80.8365631
  90.6630421  79.0159464  79.8464489  92.3212051  70.5142546  64.0459538
  92.6721954  71.3157654  63.6578703  91.4620590  70.4068422  63.6378288
  63.6667252  98.0863190  53.3593369  63.9664078  97.7705383  52.5068665
  64.4685698  98.1902981  53.8716459 105.5255985  89.1746426  73.5149384
 104.8968983  88.6839294  72.9856253 106.3799286  88.9335728  73.1568241
  26.9636917   7.3918539  24.7402620  27.8914261   7.1657711  24.6737480
  26.6682482   7.4606562  23.8324022  17.9539943 105.4353523  57.6525927
  18.0860114 105.3759098  58.5987806  18.6498094 104.8943615  57.2792244
 113.6026955  97.0817184  31.2581372 113.1164742  97.5171757  30.5580044
 114.5071507  97.3708248  31.1372828   8.0255800  84.6925259  44.3915415
   8.1171566  83.8779545  44.8858261   8.2905066  85.3767586  45.0062466
  35.2502584  77.6618862  61.8826056  35.0072479  78.3400440  62.5129080
  36.1922956  77.5460911  62.0066595  12.1083927 105.2367115  69.8148537
  11.1547208 105.2318954  69.8968124  12.3739064 106.0902500  70.1572037
  70.5600595   9.2275852   5.8458132  69.9757910   8.6138815   6.2910420
  71.1189032   9.5738477   6.5415359  40.7666016  99.2074299  73.8836527
  40.0160551  99.7940063  73.7896585  41.4191675  99.5540619  73.2751894
 107.8519344   3.1195050  56.7587709 107.1100330   2.5590873  56.9862604
 107.7035427   3.3530787  55.8424425  28.9855909  94.1977119  73.0792999
  29.0844369  94.0267849  72.1426868  28.6684990  95.0996494  73.1260157
  31.7888498 109.2027760  52.9343653  31.8198299 109.2522907  53.8897800
  31.2552691 108.4293461  52.7517939  55.9664059   9.4479156  55.6690931
  55.8787060   8.7250751  56.2904167  55.5718040  10.1969099  56.1157751
  45.3216839  91.3462925  53.9177990  44.9567461  90.9066200  53.1498528
  46.0213137  90.7653141  54.2164898  97.1794128  91.1583519  60.0066519
  96.8341732  90.4060650  59.5259237  96.5201950  91.3370991  60.6772614
  52.1411705  17.6708710  71.7856503  51.6840553  17.5047886  70.9612179
  52.9875946  18.0316353  71.5217495  68.6471033   6.8648344  53.6703587
  69.3285608   7.2777587  53.1399441  67.8579617   7.3738903  53.4850216
  30.3208733  43.1843185   0.2725831  30.9943795  43.7794590  -0.0566973
  30.7871795  42.3660946   0.4437535 110.5750084  81.1489964  78.4270191
 111.2508488  80.7081699  78.9419413 110.0387669  81.6047955  79.0758085
  51.6084957  25.3029656  51.0450506  51.7006922  24.4667983  50.5883694
  52.2506618  25.8764243  50.6267309  55.4515696  27.4363184  35.3493619
  55.3323364  26.4865756  35.3515124  54.5636129  27.7893138  35.4055977
  30.5661511  85.5118752  20.6211257  31.2744594  85.8538246  20.0755978
  29.9763846  86.2560368  20.7420921  27.1748924  86.6930389  42.2498417
  26.6564918  87.3177910  42.7569723  26.8837357  86.8177032  41.3465595
  46.6374445  11.1528540  39.6871519  46.3012457  11.0296321  40.5748558
  47.5236511  10.7921243  39.7144461 110.6559944  93.6050892  58.9756536
 110.9225655  94.4929886  59.2139673 110.8725643  93.5313320  58.0461979
  53.6458540   8.6767274  42.7728462  53.1536722   9.2384696  42.1741533
  53.9778185   7.9697263  42.2195101   3.7625316 103.5659504  68.6298800
   2.8784028 103.2395649  68.7972689   3.7597537 104.4562244  68.9814901
  68.0055189  18.2950568  56.4313602  67.2679424  17.6856875  56.4610052
  67.6009369  19.1621959  56.4561319  86.2466812  63.6193085   0.6114471
  86.8595314  63.0522060   0.1434348  86.1612701  63.2176971   1.4761126
  25.2256632 102.2836685  60.7118511  25.0667787 102.1804142  61.6501093
  26.1231136 101.9756699  60.5855799  89.4154263 100.0536823  30.0769329
  88.8047981 100.6481171  29.6410370  90.2166271 100.5670547  30.1806116
   8.4882474 108.3786774  28.0318260   8.5850656 107.4295998  28.1099105
   8.5058856 108.5444927  27.0892620  44.6930981 108.9761543  20.4552674
  44.9752140 109.8882866  20.5235672  45.1851368 108.5214329  21.1389065
  34.0492201   8.9894718  93.1273651  34.1935539   8.6381119  92.2487640
  33.8847733   8.2181114  93.6697578  36.4502788  87.8590107  64.2020988
  37.2130489  87.3099613  64.3836260  36.6639948  88.3019829  63.3809185
  58.5035419  17.6416063  66.3666582  58.1829691  18.3312571  66.9479036
  59.2748260  17.2917581  66.8127155  46.8905783  43.0354166  41.1222029
  46.4700222  42.1757746  41.1026478  47.4445200  43.0133533  41.9025183
  80.3606606  95.5960464  54.3837214  80.9568882  95.0602436  53.8605928
  79.6332693  95.0101185  54.5930624  61.7571354  30.6989098  31.7681026
  61.9402313  29.7767282  31.9477940  60.8246279  30.7996082  31.9592071
  94.0347385  23.2098222  60.7676315  93.5530090  23.6986351  60.1003742
  93.3589840  22.8930020  61.3669825  62.9502344   3.5411844  90.3557873
  63.3837318   3.0583462  89.6520996  63.3950901   4.3885320  90.3742218
  79.4974995   1.6112587  23.8372874  80.3226089   1.4554380  23.3777833
  79.5793009   2.5006735  24.1814971  94.4713020   1.3807738  76.8297100
  94.8061275   2.2138263  77.1616030  93.8744164   1.6269939  76.1230803
  13.7524593  87.0704079  47.1244144  13.5388446  86.4879608  46.3954687
  14.6434772  86.8251705  47.3737669  49.6087790  31.1161542  25.0122690
  49.3753433  30.4114699  25.6165552  50.1164007  30.6842136  24.3252659
  47.4083185 105.3358746  40.8899546  47.3490000 104.5017529  41.3557434
  46.8343353 105.2280426  40.1315689  54.1385221  95.1224899  72.5660563
  54.1973162  94.2158031  72.2648907  53.2053995  95.3305244  72.5188065
  51.6802835   8.4451258  71.8221569  52.5453281   8.6266780  72.1895313
  51.2038469   8.0152369  72.5323963  31.1991000  99.3791008  77.4334002
  31.4834642  98.9623451  78.2468367  30.9443665  98.6504841  76.8673086
  40.1825094  95.9355164  34.8123217  39.7593045  96.0639000  35.6612301
  39.4866633  95.6023026  34.2457509  45.7926035  88.9559555  69.5552969
  45.2216196  88.9525223  70.3235388  46.5265846  89.5173836  69.8048925
   2.1300086  79.9595642  33.8660932   1.7063223  79.1437817  34.1329646
   1.4628196  80.6320381  34.0034461  62.4975014  42.2320652  58.1109095
  62.0078993  42.8041220  58.7019014  63.1832218  41.8513346  58.6596012
  12.0423532  99.0798664  70.9501505  11.6510642  98.2093334  71.0229778
  12.7207875  98.9823818  70.2819777  52.2237539  34.6991801  36.2761068
  52.5791025  34.9855685  35.4347134  52.7120781  35.2038074  36.9265842
  56.7289162  23.6611366  57.5165033  56.3164282  24.5167565  57.6348352
  56.0296440  23.0317020  57.6927614  29.7452641  22.2759891  55.7080317
  29.8692322  22.6544189  54.8375988  29.7340417  23.0299687  56.2976217
  57.8213167  91.4120483  88.6475658  57.6478052  91.8287373  87.8034687
  58.7733221  91.4470577  88.7407589  61.9410086  38.5377240  66.6986513
  62.3765516  38.6620569  67.5419044  61.6057396  39.4051766  66.4720392
  36.3419175 108.7549496  73.7825680  35.5689859 108.1972313  73.6944866
  35.9965396 109.6474934  73.7647486  47.4948549   3.4580854  91.7312908
  47.4829769   3.8271591  90.8481789  48.4166098   3.4814933  91.9882774
  58.5517263   6.6216666  62.9707193  58.9109039   7.5025195  63.0771208
  59.2950392   6.0393471  63.1276321  52.2500849  24.9638247  16.6894209
  51.8051958  25.7889128  16.8831635  52.3517275  24.9642587  15.7376337
  57.8700018  42.2111511  58.6159468  57.3188210  42.9814672  58.4779406
  57.6912355  41.9473267  59.5185423   3.8833848 101.1106873  85.7453918
   3.0302185 101.3795948  86.0860252   3.9746794 100.1985931  86.0210419
  37.7267885   5.4214305  75.8206034  37.8817987   5.0946790  76.7068529
  37.5940824   4.6329224  75.2944136  66.1355257  26.6801167  82.1416664
  66.8681669  26.2736177  82.6045132  65.5212545  25.9622383  81.9881821
  20.5037975  93.7186909  54.2381668  19.8407853  94.3336868  54.5518923
  20.0404787  92.8844166  54.1636658  14.3882525  98.1416988  49.8594856
  13.7480342  98.7972736  50.1362085  13.9059782  97.5752544  49.2571783
  69.3227386 104.4110775  42.8443336  69.6017408 104.0754032  43.6962271
  69.0653372 103.6314106  42.3523045  93.5224152  40.6817532  62.6676035
  92.7164650  40.1800346  62.7899027  94.0900230  40.1028585  62.1587515
  45.2852154 109.2412090  67.3247910  45.6791687 108.4128475  67.5983810
  46.0291624 109.7892666  67.0749855  77.2988987  12.8729677  48.8145018
  76.5245914  12.8248024  49.3751764  77.2282505  13.7234974  48.3810949
  25.6020093  82.5967789  14.4170153  26.1313629  82.8532410  13.6618698
  25.3244305  81.7016983  14.2220473  51.9833899  22.8274632  49.8949003
  51.6463947  22.0163536  50.2753830  51.7755222  22.7593446  48.9630270
  59.0514565  33.2077909  76.2196589  58.5260153  33.5757232  76.9301271
  59.4485092  33.9690018  75.7964087  79.3309689  29.3791819  73.2831097
  78.7245846  30.0582361  73.5787630  78.8216257  28.5696936  73.3222389
  55.1263762  31.8961811  35.9904099  56.0084963  31.5304112  35.9247255
  55.2649593  32.8185940  36.2053084  11.6903639  93.8756275  43.1193781
  12.4636972  93.6198235  42.6166296  11.8633246  94.7798920  43.3813477
  36.5280271  12.5038600  32.4191952  37.2439647  11.8695521  32.4555159
  35.8111644  12.0833743  32.8940988 115.3182793  92.0800972  39.7579885
 114.6053600  91.4439583  39.8155999 115.3947544  92.4349976  40.6436682
  32.5178480  97.2239685  23.9387298  32.7849126  98.0747795  23.5908318
  32.1965861  97.4156189  24.8198032  38.4591699  85.6117535  18.2439661
  38.3393955  86.5561676  18.1441164  37.6393294  85.3060532  18.6320937
  46.6699982 104.5407009  33.9822769  46.3321686 104.8413277  34.8259139
  46.1667490 103.7492371  33.7910438  22.6509643  96.3025093  20.9544730
  21.9516277  96.4633369  20.3209972  22.4225259  96.8480587  21.7070818
  78.3870220  25.5547571  10.7902718  78.8637114  26.3823199  10.7259381
  77.7517986  25.5880189  10.0749969  66.1564112  16.7495573  89.1960621
  66.6479540  15.9338248  89.2919731  66.6939402  17.2859991  88.6133766
  37.1898127  14.5217931  45.6847286  37.8042698  15.2533686  45.6258202
  36.3262534  14.9345732  45.6952572  68.6433363  16.9717360  70.8454752
  69.4515276  17.4057829  71.1187124  68.6652184  16.1236906  71.2888384
  27.3784184  95.5456161  60.7404041  26.8007088  95.0173855  60.1895475
  28.1908560  95.0417042  60.7877779  53.3439064  98.1400108  77.2356415
  52.8012037  98.8772774  77.5151777  54.0389681  98.0918312  77.8919983
  20.2573133  96.1713505  29.1943073  20.2050972  96.8948269  28.5697389
  19.8717284  96.5203571  29.9978924  75.3991985  62.7004910   6.3448733
  75.3282261  61.7526484   6.2317824  74.5598555  62.9598713   6.7249453
  53.5220003  20.4644394  74.3514585  53.9665127  19.9435318  75.0202608
  53.7548018  21.3694453  74.5588160  16.0560656  98.2599831  58.9217138
  16.1495185  98.1888485  57.9717493  16.8214130  98.7626171  59.2007065
  90.4919243   4.9051794  53.7548113  89.8600864   5.3206205  53.1679392
  90.3322887   5.3129417  54.6059752  13.0548871 101.3561630  75.3293133
  13.2369041 100.6229019  74.7415733  12.2094059 101.1425877  75.7240009
 111.4133739  84.8521519  50.1504421 111.7058086  84.7375202  49.2462492
 111.4209938  83.9685631  50.5184746  10.4764795 104.7317982  72.6579380
   9.9236268 105.3288651  73.1620169  10.4455554 105.0735950  71.7643738
  20.3921866 100.5799389  76.2115240  20.5203462 101.3619423  75.6746197
  20.8776402  99.8932743  75.7542849   8.0495065 107.7181435  53.2078600
   8.7169701 107.0411873  53.3194256   7.8994626 108.0544758  54.0913773
  71.9972658  23.2721901  70.3924227  72.6297426  23.8019872  70.8777189
  72.2341824  23.3982563  69.4736147  69.6046638  30.3329110  90.5150604
  70.3822851  29.8266602  90.7501125  68.9295912  29.6738148  90.3534889
  64.4093275  10.9157324  54.8059607  64.9108315  10.4072988  55.4433155
  64.6652508  11.8235481  54.9690676  36.8831515   1.2510949  79.8955488
  37.3706055   1.8075933  80.5029392  37.5164676   1.0294902  79.2128801
  56.6425228  31.5622973  41.1913347  55.6942177  31.6414475  41.0879612
  57.0034456  32.2333431  40.6119680  39.8785806 108.5166931  48.5499334
  38.9576888 108.6346626  48.3169651  40.1620817 107.7633572  48.0319118
  35.4268789 102.5192642  34.9609709  35.4709840 101.6848660  34.4940042
  34.8961496 102.3325825  35.7353783  34.3298483 105.8715439  40.0643778
  34.2679858 106.3011551  39.2112422  35.1113153 105.3225517  39.9999833
  60.0132895   4.7667044  47.6434755  59.0633965   4.7397101  47.5285292
  60.2984619   3.8654470  47.4930096  51.0242605  14.1076899  36.8408108
  50.6800842  13.2872796  36.4876771  51.8259621  13.8539684  37.2981215
 113.8903141  84.4922447  22.7522898 113.0207348  84.4784546  23.1521416
 113.8472557  83.8300323  22.0624661  49.8516941  16.8681085  60.4850006
  49.2532969  16.1749935  60.2061749  50.0082350  16.6906214  61.4124823
  67.9245853  35.6373787  39.8319626  67.9369211  35.0133228  39.1062689
  66.9958639  35.7525206  40.0330782  99.8270607  45.9357309  19.9088287
 100.5322742  46.4454508  20.3076768  99.3747997  46.5576696  19.3388426
  81.8395710  17.0958471  59.1084576  81.5388870  16.4024878  59.6958828
  82.2234917  17.7523994  59.6896410  52.0118809 109.1891766  70.3064108
  51.0708046 109.0694332  70.4339409  52.1900463 108.7944508  69.4527864
  21.4103770 104.1189575  52.6934481  21.1162615 103.2523155  52.4129581
  20.6020617 104.6054173  52.8553581  90.5569458  32.8939247  65.4789686
  91.4577675  32.7930903  65.7865143  90.1112843  33.3545399  66.1899185
  33.5328579  16.3088322  38.6470509  33.3764172  15.4315341  38.2976151
  33.8372874  16.8157017  37.8942990  92.8586483  12.3320687  66.0900831
  92.7466679  13.2550204  65.8623743  93.7644100  12.1347237  65.8516169
  24.4950294  78.3008194  56.6994286  25.4031706  78.0743408  56.8999720
  24.0855479  77.4669313  56.4687967  52.0252562  37.6779890   9.7891027
  51.1594868  37.4520755   9.4490522  52.4036598  36.8403625  10.0563610
  72.1996498  25.5691481  60.1651096  71.3959837  25.1710773  60.4996061
  72.5282001  26.0947084  60.8945417  78.0269051 106.9972992  78.2679319
  77.4309158 106.7332077  78.9688492  77.5957775 107.7463341  77.8564739
 111.7483521  80.2257442   8.4897935 111.4242363  79.4970608   7.9604560
 112.6846504  80.2655220   8.2948446  15.7607329 104.4498444  87.8959656
  15.1681805 103.7044334  87.9933357  15.8641362 104.7912407  88.7842083
  41.7750931  96.4510345  49.0273142  41.7755222  97.0911121  48.3156061
  40.9512377  96.6068459  49.4890738  87.2174168  14.3156838  46.3666487
  86.2878799  14.1290045  46.2349606  87.4912262  14.7502100  45.5589056
  83.2723904  28.0194497  86.9569302  82.9758072  27.2478843  86.4742661
  83.5681915  28.6269879  86.2789726  77.0465279  26.6494441  40.0623941
  77.4224854  26.3836217  39.2232132  77.2974300  25.9525728  40.6687403
  96.0361862   2.2655329  29.7413969  96.6397285   1.9090532  29.0895605
  95.1667595   2.0339328  29.4147587  27.5325799 102.3001289  63.0173492
  26.8444681 101.6932487  62.7445221  28.2400632 101.7356491  63.3289003
  21.4634657 107.1154976  39.3329263  21.6193986 107.1826267  38.3909011
  20.5125570 107.0413780  39.4136095 111.1829185  92.5693703  19.5831132
 111.3443661  91.8653107  18.9550424 110.2880096  92.4183655  19.8873651
  85.3851891  25.1839113  32.2609401  84.8772907  24.4729853  31.8699765
  86.2301826  25.1492763  31.8125892  82.8729057   5.9821641  74.7848320
  83.1288338   5.7816160  73.8845491  82.4645710   5.1769274  75.1027822
  79.5407486  26.1561441  56.6264677  78.9504290  26.5686703  57.2570038
  79.8201847  25.3466487  57.0540905 115.7496738  33.0838227   3.5935238
 115.5362606  32.2209430   3.9486673 116.3368034  32.9022598   2.8596634
  65.1147938  14.9694455  78.4983969  64.5723438  14.2741096  78.1262541
  65.3559589  14.6463788  79.3665552  92.7139854  30.9697962  63.2778740
  92.4881172  31.7297339  63.8142633  93.5736847  30.6972456  63.5985947
  36.9977760  40.0277662  50.0796938  36.9619346  40.7094383  50.7507181
  36.3895893  40.3254509  49.4031429  67.6268911   5.7450509  70.6620884
  66.7293835   6.0776097  70.6728697  67.7910662   5.5285019  69.7442722
 114.0089321 100.3875732  49.5905638 114.4585800  99.9387455  48.8745975
 113.5227013 101.0927582  49.1633368  75.5878544  46.3143539  51.6494989
  74.7255230  46.3220072  52.0648956  75.7276535  45.3996181  51.4046621
  75.3187704  52.6857519  32.2559261  75.7800722  51.8535852  32.1513724
  74.4024420  52.4759674  32.0754766  95.1127243  18.0853164  29.9775338
  95.1768494  17.5124037  29.2134070  94.1730022  18.2259107  30.0932908
  60.8452988  18.2493746  40.2673578  60.6071997  17.7905834  41.0729980
  61.6768551  18.6769819  40.4720592  23.3578062 104.7707462  47.0684528
  24.0803456 104.1469002  46.9978714  23.6805391 105.4442978  47.6671219
  61.5669155  17.8178895  62.1730947  61.4374113  18.5760796  61.6033506
  60.7133913  17.6778400  62.5831175  58.7219095  15.1673591  61.4027119
  58.4130335  15.6768286  62.1518898  59.4582081  14.6604562  61.7449713
  96.3897991  43.6359501  66.0218620  96.4933872  43.2114649  66.8735123
  95.7366943  43.1041336  65.5670357  71.6819477  20.7233858  42.3718929
  71.6648483  19.9085879  42.8739357  72.6021004  20.8395600  42.1351290
  86.3383484  46.2243319  41.5397978  86.4262486  46.0628319  42.4791718
  85.5241776  46.7208576  41.4572859  46.5411425  20.8699632  28.4523344
  47.0914888  21.6528273  28.4305477  45.6702757  21.1824989  28.2070899
  91.8026733  44.8275518  43.6179686  92.4509621  44.8542786  42.9142380
  92.3202133  44.8694420  44.4221020  72.5922728  30.1789713  63.2577038
  72.5192451  29.4052744  63.8165331  72.0718670  30.8468723  63.7041521
  75.3835440   7.5532854  72.5776196  75.4099274   6.6955656  73.0017090
  74.7765398   8.0658770  73.1114960  83.5008144  26.5662527  64.5864344
  83.1840992  26.4063168  65.4754496  82.7142620  26.5312457  64.0420532
  80.9548569  32.2852397  54.2931795  80.6697941  33.1965637  54.2264128
  80.2847767  31.8634725  54.8310804  60.8917284  13.6881578  51.1753035
  60.8065033  14.6368122  51.2702942  61.7781878  13.4955382  51.4807940
  34.7288132  43.2826185  71.6599417  34.9362612  42.7706003  70.8782578
  33.9140487  43.7347221  71.4408684  98.6153412   9.3059248  44.4088697
  98.0329514   9.8083597  43.8391304  99.1321659   8.7682730  43.8088226
   8.3283341 102.8090858  69.6771288   8.4314376 102.7309322  68.7287140
   9.1632640 102.5067806  70.0345373  68.6220932  61.7054987  27.5166297
  69.0398884  61.0590935  28.0856919  69.3303156  62.2999096  27.2689843
  90.8127880  26.4849949  61.2539625  91.0760689  25.9664226  62.0142269
  91.0346222  25.9365392  60.5014896  29.7063994  84.2238712  45.3552341
  28.7814617  84.2827702  45.1159573  29.7168207  84.3497467  46.3040686
  96.8514061  67.2109795  41.8191528  96.7143917  67.7291918  42.6121950
  97.6562500  67.5630808  41.4390326  74.5526791  73.5262346  60.8454466
  74.0378237  73.7521410  60.0707674  74.5360136  72.5695896  60.8734941
  66.2861681  21.5120006  89.7046947  66.7560577  21.5717769  88.8729095
  65.4671288  21.9831014  89.5514870  76.0933924  38.5672307  40.5092144
  75.4142189  38.7216926  41.1657906  76.6784906  39.3206763  40.5880260
  12.6489365  84.9866009  76.3956022  12.6282513  85.9433651  76.4156580
  11.7522538  84.7232533  76.6025877  47.8438759  16.0287821  38.6133838
  46.9274139  15.9807289  38.3413196  48.3353043  16.0716236  37.7930832
  97.1005344  64.8006535  47.1598339  97.4502659  63.9139223  47.2471857
  97.7169609  65.2449751  46.5777397  97.0278931  38.8331342  62.6336908
  96.7344189  39.3986487  61.9193411  97.8882694  39.1772676  62.8736019
   5.8611745  14.3924034  58.1799746   5.1802796  15.0651693  58.1803513
   6.6803193  14.8806262  58.2628727 100.7833672   6.4727753  61.7906618
 100.3604031   6.5096086  62.6485491 100.4208755   5.6886572  61.3783646
  60.9927464  31.2224030  74.9956846  60.4062796  30.8360863  74.3452644
  60.4746008  31.9164944  75.4031086  72.8383303  12.7276170  52.2736597
  72.7363539  13.6313534  52.5721455  71.9475126  12.4389076  52.0753670
  68.3920193  92.9191494  61.4084339  67.5224829  92.6948929  61.7398596
  68.2237244  93.5140896  60.6777143  82.9024124  27.3970675  39.8555207
  82.8695488  26.4462709  39.9610662  83.8196850  27.6235223  40.0089645
  88.2274437  23.3191657  41.8297672  87.4207211  23.0024695  42.2361326
  87.9383469  23.7417936  41.0210419  71.7758369   2.2738574  60.8117199
  72.6246452   2.6667064  60.6081867  71.1408234   2.8258735  60.3553534
  39.7369409  86.2774181  71.7196798  39.5841360  86.5993500  72.6080704
  40.6135559  85.8942986  71.7512274  96.9677067   5.0064558  91.2105274
  96.3361168   4.7203311  90.5506420  96.5868187   5.8047783  91.5763664
  53.2890558  42.5535297  54.4219542  53.6648035  42.7296638  55.2845192
  54.0412617  42.3284388  53.8744545  64.6038246  35.5643082  26.4266801
  64.7102785  36.1942482  25.7138848  64.5436764  34.7152019  25.9889245
  32.5523925   1.4937089  44.0580130  31.6178775   1.3388655  43.9204073
  32.5884533   2.3016275  44.5700645  16.6628623 102.2978115  47.0725250
  15.9486139 102.0059299  47.6389933  17.0432568 101.4887524  46.7305517
  29.6012735  81.7872429  66.6997957  29.5503330  80.8319855  66.7333126
  28.6885810  82.0755863  66.6904879  86.9120884  18.2997954  71.5933561
  87.2188473  18.4088838  72.4934864  86.8293285  19.1927409  71.2586451
  75.9290981  15.9086394  73.2993031  75.6850195  15.3641152  74.0477371
  75.3233528  16.6489744  73.3340740   4.3663618  79.4564390   6.7261648
   3.6050910  79.7859144   6.2485224   4.6778807  78.7192106   6.2011075
  69.8325920  22.7883863  41.3629818  70.4975653  22.1028686  41.4270830
  69.4207048  22.8040671  42.2268867  46.6514015  36.5264940  82.8088856
  46.9081879  35.6247783  82.6160049  45.9861946  36.7318320  82.1519566
  59.3288994  41.8822527  34.1753316  59.6895027  42.2534084  34.9805903
  59.1350842  40.9715128  34.3971920  76.2533236  13.1767499  56.4036894
  76.6348314  12.4875259  55.8599520  76.4680099  12.9206002  57.3006487
  53.2503462   5.6701088  29.3299580  53.4248400   5.9521174  30.2278733
  52.3196745   5.4463547  29.3257666  36.6934991  88.6872196  78.0785179
  36.0385895  88.4503937  78.7352085  37.4318290  88.1043148  78.2555199
  78.9380741  15.8238208  45.0194883  79.3965769  14.9914443  44.9047852
  78.4610319  15.7229710  45.8431959  71.8316412  48.4665203  48.9655304
  71.0351229  48.2762241  49.4610882  71.8574190  49.4218254  48.9111710
   1.3913247  88.1285286   2.7257112   1.2470127  89.0119457   3.0647999
   1.8014053  87.6575565   3.4511411  82.7944946  18.6243629  72.0999479
  83.4214115  19.1092002  72.6367283  82.9762650  18.9082921  71.2040854
  69.2553854   2.2842100  36.7307067  69.1853380   2.6000720  35.8298421
  68.8684559   2.9817277  37.2598457  92.6197624   9.8096848  84.7957611
  92.6210594   8.8525295  84.7865772  93.4465694  10.0543177  84.3801117
   9.6616429 103.9896393  59.1557360   8.9759636 104.1019917  59.8141098
   9.4621450 104.6456146  58.4878016  45.4110146  10.4606724  15.8371055
  45.5933952  10.2106106  16.7428863  44.8864794   9.7389621  15.4903698
  66.8581247  16.9237638  32.2622681  66.1937857  16.4281547  31.7834592
  67.1921682  16.3082099  32.9147553  48.6865759  18.2657349  68.8662624
  48.6695910  18.7639964  69.6833754  47.7648163  18.1041646  68.6650515
  28.5407782 105.7981873  32.9309416  29.4243026 105.5361462  32.6721907
  28.0119181 105.0096130  32.8097415  77.5971127 101.6465950  68.0380964
  77.7254725 102.3607731  67.4138355  76.6474295 101.5356636  68.0831575
  54.5698071  26.0249686  42.0820332  54.0965796  26.8496728  42.1922636
  55.4922295  26.2794971  42.0579433  60.4996586   0.1523412  70.6119347
  60.1338196   0.1982898  71.4952707  59.9059534   0.6812300  70.0789976
  60.7594633   4.2903411  53.2925034  61.5253687   3.7177911  53.2499981
  60.6324148   4.5876905  52.3915768  90.5380535  14.8400915  34.8125434
  91.0480881  15.3719079  35.4235029  90.6955051  13.9379644  35.0911236
  24.5078540 103.8838768  51.7350006  23.8986492 104.6199703  51.7922401
  24.0885162 103.2724476  51.1295795   1.5474415  58.4092331  40.4081011
   2.4502569  58.4533262  40.0931215   1.0200812  58.7040806  39.6656799
  63.3944082   5.1666087  65.6328440  62.4426651   5.1128328  65.5461216
  63.6256313   5.9997827  65.2222490  63.7216091 105.2267933  89.0503788
  63.4074116 105.3974533  88.1624603  63.6739588 106.0763836  89.4887352
  10.5888069 102.0944691  80.5900288  10.5008256 102.8725147  80.0394535
   9.6941632 101.8925190  80.8640003  95.5083370  18.9221954  75.6612206
  95.3131390  19.5093441  76.3915491  95.2804756  19.4270289  74.8805428
  39.4244599  39.6325803  72.5015974  38.6446691  39.5014858  71.9621801
  39.1149998  40.1429129  73.2499504  14.7981620  27.9215789  35.5729890
  14.1832197  27.3151660  35.9857130  15.3479147  27.3660445  35.0203729
  49.5062780  24.0965390  52.2409105  49.9762583  23.2656908  52.1698952
  50.1220608  24.7492719  51.9077730 113.1536674 101.9025803  93.5160446
 112.4829388 102.5385952  93.2673931 113.0571842 101.1923313  92.8816319
  68.3378696  19.3249440  35.6675768  68.4971189  19.5801795  34.7588801
  69.2115116  19.2439008  36.0502148 101.4125538  39.1562796  12.9257715
 102.1093655  39.7824216  13.1223273 100.6119251  39.5871711  13.2250404
  63.3223677   8.4473616  54.1570330  63.6404324   9.3448776  54.2546701
  62.4172640   8.4789670  54.4669008  19.1172361  35.0004101  48.5762024
  18.9888465  34.1484523  48.1591702  19.9670887  34.9287176  49.0107632
  46.4264154  35.9432292  47.0220566  46.0350800  36.5848398  47.6148701
  45.8031940  35.2168107  47.0101309  73.8016462  21.5461421  54.5543480
  74.0389109  20.7711267  54.0451479  72.9370880  21.7930198  54.2259884
  30.9249091   4.0939602  57.9626322  31.3553405   4.2039776  58.8104868
  31.6074514   3.7416792  57.3914385  76.9755554  35.1004410  46.6635132
  76.9841290  34.1861415  46.9467306  77.3518085  35.0821400  45.7835484
  33.5639071  93.8294792  68.9114857  33.3414912  93.2473183  69.6380186
  32.7214026  94.1704655  68.6112404  47.4651337  28.6583209  55.0617170
  47.0810890  28.4986162  54.1996050  47.6373768  27.7846336  55.4127693
  82.0394230  29.4018602  29.2942238  82.0661259  30.0573301  28.5971737
  82.0060349  29.9132180  30.1026988  58.5903168  23.5861325  59.5805120
  57.8422594  23.6148000  58.9840031  58.9575529  24.4694376  59.5467663
  61.2895441   8.0168784  67.4221039  60.9797049   8.1777668  68.3133650
  61.7060995   8.8383085  67.1614027  68.8262749  37.4043941  51.4059353
  69.4960546  36.7246675  51.4807653  68.0271626  36.9291997  51.1782503
  37.9205394  92.1578121  62.3871756  38.0438089  91.3566208  61.8781185
  37.1994805  91.9544697  62.9829597  68.1619453  90.5853462  37.3370314
  67.6065683  89.8949146  36.9749618  67.7891397  91.3973522  36.9936681
 102.7780533  42.1278620  69.2002201 102.3796654  42.7476788  69.8112440
 103.6654663  41.9984770  69.5348597  62.6328802  27.2341061  36.8773627
  62.2896147  28.0082226  37.3236179  62.7076054  26.5738845  37.5663877
   7.0209718   7.8826672  44.4756651   7.3463833   7.3753619  43.7320375
   7.7982748   8.3153945  44.8289061  94.0281010  28.1399465  58.9020014
  93.9648724  27.3585916  58.3527136  94.1458416  28.8596702  58.2820320
  64.1918850 105.0811195  48.5555220  64.7030210 105.8802032  48.6837673
  63.7597418 104.9355698  49.3971300  62.2338104  36.4280462  30.3930616
  62.5803089  36.4515781  31.2850356  62.6938438  37.1338534  29.9387097
  40.0225925  92.9252911  85.0259876  40.5540800  92.3492241  85.5754471
  39.2683554  93.1478977  85.5716991  75.9957552   0.3478648  36.4794970
  76.0452700   1.0472453  37.1311450  75.0843811   0.3571041  36.1870170
  92.9599762   5.5158597  29.1875720  93.5160065   5.1514030  29.8762178
  92.4927521   6.2351084  29.6125579  53.1582880  19.3919039  57.7672005
  53.6900806  18.6268616  57.5477934  52.7069902  19.1462576  58.5748005
  59.2728329  39.5560908  32.0812178  59.1982031  39.2568445  32.9873729
  60.1463032  39.9440050  32.0282555  68.3236551  32.6055241  29.9475980
  67.7951765  33.3574295  30.2151465  68.4653616  32.1126342  30.7558131
  10.2419567  94.5872402  27.4883127  11.0489345  94.2737198  27.0799971
  10.5280149  94.9818897  28.3121204  37.5845289  34.8070288  59.2014217
  38.3371353  35.3925371  59.2850637  36.8558788  35.3845668  58.9739323
  62.4428415  13.0274475  68.1994772  63.1225491  13.2527578  67.5642872
  61.7164469  13.6151123  67.9915571  13.1795716  92.8646660  80.6718826
  13.7752080  92.5963593  79.9722624  13.6665463  93.5290718  81.1593723
  58.0792141  19.3193877  44.4990110  57.3790979  19.0309644  43.9134502
  57.6298141  19.5607913  45.3089476  87.2411537   6.3478094  69.2584229
  88.0024910   6.0905820  68.7383986  86.8758774   5.5210358  69.5734596
  64.0845776 101.0687065  55.5680180  64.2551231 102.0019817  55.6950760
  63.3139896 101.0410881  55.0008678  78.9684916  21.7367887  51.0326052
  78.0660629  21.6245699  50.7338476  79.0179157  22.6525736  51.3067007
  73.6809158  18.1548548  47.4127817  74.6036673  18.2876277  47.6298809
  73.5223770  18.7405038  46.6724348  62.4057770  10.5901170  69.5446539
  62.2931767  10.9335971  70.4309797  62.3393154  11.3596702  68.9793205
  63.1435156  27.5207043  81.4640331  62.3131227  27.3186088  81.8951130
  63.0097008  27.2607708  80.5525684  88.0253601  11.4284277  69.1300917
  87.7070904  11.3689041  70.0308657  88.9362621  11.7096877  69.2160082
  65.6938171   6.6772908  57.1454573  65.4742765   6.1614156  56.3696289
  66.3429499   7.3094761  56.8369150  62.1322966  16.3749290  69.2593670
  62.3022223  16.4039969  68.3178186  62.8743744  15.8910322  69.6218491
  89.1320515  12.3969090  47.4113894  88.1948185  12.5308740  47.2703362
  89.4081688  13.1567979  47.9237938 110.0945950  89.2100334  54.5559931
 109.4292831  88.5408592  54.7166014 110.2109241  89.6402931  55.4030943
  36.8492055  99.6007156  43.5729837  36.7791390  98.8343906  44.1422558
  37.3599768  99.2960262  42.8229713  67.2301435   3.9376736  46.5102196
  67.8093624   4.6983945  46.4650249  66.3474226   4.3076271  46.4970684
  29.7890925 108.8031387  55.5924702  29.1887641 108.0699253  55.7275009
  29.2997217 109.4152927  55.0429058  56.4658546 100.5812168  73.0946589
  56.1092043 101.1404991  73.7847614  55.7529259 100.4980946  72.4613714
  73.7811947  14.5425999  56.1138344  74.7072601  14.3198693  56.0188341
  73.3700848  13.7331808  56.4172459  65.4847383  13.0404079  46.4936018
  65.7851124  12.1546745  46.6972733  64.8428822  13.2383907  47.1755505
  44.3507004 104.7518063  74.7652197  45.0633860 104.1770458  75.0444269
  43.5598660 104.2241573  74.8765421  25.3827119 104.6133232  76.7849970
  25.9780288 104.9177837  76.1000633  25.6913614 105.0467873  77.5806570
  85.9528542   8.4504879  66.8926191  86.7468071   8.2934976  67.4037266
  85.4445457   7.6448298  66.9862175  86.1614513  43.2195377  45.4105139
  86.6432381  42.7170610  46.0674953  86.0926151  44.0981627  45.7840300
  71.8056965  15.4182220  71.4502811  72.2977495  14.6496654  71.7391348
  72.0861149  15.5560017  70.5455065  57.5349474  37.8947735  38.9466286
  58.4201384  38.2187128  39.1131520  57.2581244  38.3517504  38.1524158
  32.5481176  96.7524433  66.6824818  33.1611967  97.3255348  66.2221193
  32.8251743  96.7913437  67.5978804 103.8832378   4.8225656  82.1108055
 103.8366795   3.9039743  82.3758602 104.1961575   4.7953814  81.2066078
  44.1140747   2.5380939  78.8470316  43.8048601   2.8950799  79.6796036
  44.4701004   1.6786265  79.0724134  15.1741481 105.0216103  74.8683262
  15.6441879 104.1994381  74.7292948  14.5406926 105.0594902  74.1517115
  51.2113094  37.0090890  69.3356895  52.0674562  37.0045042  68.9076424
  51.2247705  36.2407827  69.9064445  37.6869822  87.5487328  44.0761042
  38.1070828  87.7742100  44.9061108  38.3015847  86.9503212  43.6513805
  68.8471794  14.1330040  67.9528475  68.5633945  13.2204568  67.8984928
  69.7378063  14.0865600  68.3004904  29.8908424  98.7604046  37.2094488
  29.7857308  99.2599964  36.3997626  29.0025687  98.6763859  37.5560689
  13.9228880  46.4250898  10.7586706  13.9486730  47.3773098  10.8527339
  13.2601774  46.2687302  10.0859165  67.5685835  14.2379737  89.5864010
  67.0277309  13.4482241  89.5878983  68.3283520  14.0089607  90.1216984
  47.9419327  29.9570918  50.9217882  48.6024237  30.0893021  50.2417088
  47.5877476  30.8312750  51.0848570  65.8060789  12.0290506  49.3770266
  65.5028582  12.8521430  49.7601795  65.0100088  11.6086185  49.0518522
  25.7574344   1.7965838  54.7177887  26.2447262   1.0120048  54.4663620
  25.2816772   1.5401408  55.5078030  56.7757988   0.0118569  80.1012993
  56.7553997   0.1883568  79.1607332  56.9269896   0.8677266  80.5023766
  42.7188444   8.0403060  62.1137190  41.9944239   7.5503296  61.7246532
  43.4982872   7.7113891  61.6659260  63.6187363  92.6464081  61.8180323
  63.1104660  93.4370136  61.9992304  64.1895533  92.5487232  62.5801706
 113.0873203  95.4542255  24.4507146 113.5171986  95.7201576  23.6378670
 113.0799103  96.2463760  24.9879980  80.7352161  21.3195229  58.7614918
  80.3591347  20.5433583  58.3463192  80.0212669  21.9570637  58.7685347
  46.2846470  18.1007552  55.5332661  46.2733793  17.4130213  54.8675871
  45.4933310  18.6117470  55.3631353 101.6430950  19.8282468  67.6228285
 102.0726681  19.2014563  67.0407391 100.9882355  20.2569318  67.0718050
  37.3114061 107.3614216  45.2289724  37.6321483 107.8520966  45.9856701
  38.0672169 106.8525887  44.9355793  66.8722248   0.6458868  81.7276955
  66.0322046   0.4877001  82.1584797  66.6637850   0.6581208  80.7935429
  98.7955475  66.6156387   0.8264241  97.9754925  66.1991739   0.5612899
  99.1029453  67.0628214   0.0379042  42.5586176  87.5427055  69.0950346
  42.9718637  87.9872227  68.3548546  41.7226410  87.2293282  68.7498379
 109.0490055  61.2821913  87.2357750 109.4721317  62.0487738  86.8490601
 108.1122589  61.4691162  87.1742058  82.0725155  12.4714088  46.3434362
  82.1765041  13.2134748  46.9390488  82.9401970  12.0687234  46.3087320
  25.9612870  93.2302284  31.4780426  25.4028320  93.4482193  30.7318282
  26.0327601  94.0478325  31.9706345  33.0390787  92.8209209  87.6768208
  32.3257422  93.2961082  87.2507000  33.5016418  93.4878635  88.1842232
  70.2847910   8.3359480  55.9988356  70.4495192   7.5730431  55.4446936
  70.8197498   9.0307474  55.6150293  90.1135826   1.2017397  77.5100231
  90.0632286   0.8632637  78.4039640  89.5664120   1.9870585  77.5200891
  80.8119392  33.7091827  37.7132797  80.2585793  34.4789863  37.5812793
  80.6772804  33.1797814  36.9272590  74.2397738  25.4049778  58.0711603
  73.8342142  25.1703763  57.2364664  73.5849333  25.1722908  58.7293959
  72.5997829   5.0003302  27.9631042  72.2714090   4.3010923  28.5283208
  72.1150064   5.7784170  28.2384324  84.1086388  63.8753414  42.6892281
  84.5213890  63.6518478  41.8550110  84.7085190  64.5026541  43.0927849
  97.8294659  57.7423000  30.9625769  97.4400043  58.5218859  30.5666041
  98.5064888  57.4714756  30.3424740  64.4540882   2.5158802  69.1020536
  64.8746681   3.2592019  68.6698294  63.5309410   2.5888950  68.8597679
  81.6227150  34.9797797  25.9598780  81.3989830  34.2347002  26.5175819
  82.5222111  34.8085523  25.6808901  89.4449234  41.1368942  56.9526434
  89.1175747  41.2033176  57.8496742  89.9340916  40.3142834  56.9364834
  62.7396488  23.7269783  36.1561656  62.4370146  23.9541984  35.2769542
  62.1590900  23.0183125  36.4336133  79.4380379  25.7397532  78.5316610
  80.0998878  25.8456922  79.2150068  79.4483232  24.8038149  78.3312988
  61.1359453  16.7088687  51.1298037  61.5703201  17.1808577  50.4193306
  61.2356138  17.2790122  51.8921900  88.7204552  42.4681950  43.1287813
  88.2447529  42.9463577  43.8079786  88.9994049  43.1439304  42.5108862
  36.7133403  98.5450459  35.8962703  36.4898229  99.0503788  36.6778755
  36.3494158  97.6752377  36.0612440  59.1218948  22.0527768  74.6753502
  58.5814667  22.0716095  75.4651642  58.4922552  22.0261526  73.9548826
  88.1407070  39.6929741  63.2789278  87.6081944  39.6112657  64.0701246
  87.7677059  39.0535593  62.6720905  45.5606985 104.4439793  39.1976118
  44.8846102 104.5202065  39.8709059  45.7101583 103.5022449  39.1137981
  80.5960846  12.3524821  33.2144499  80.7164669  11.6318917  33.8329077
  80.3891087  11.9234717  32.3841834 104.5032310  40.7731104  53.6375713
 105.1079369  40.5530357  54.3461800 103.6496067  40.4721642  53.9490271
  73.3455086  25.7720661  75.2673292  72.4007463  25.8941507  75.3608942
  73.7308168  26.4732361  75.7928133  43.5023689  26.4225125  61.6843271
  43.9402866  25.8374357  61.0661507  42.7940083  25.8947062  62.0529318
  43.4634829  98.8906002  69.1794968  43.3003426  99.5301533  68.4862566
  43.4014177  98.0416870  68.7416315  86.9303322  32.0183420  32.2513938
  87.1490288  31.2001491  32.6974511  86.6652966  31.7483544  31.3721347
  99.6235085  33.7165117  71.8203688  99.6729851  34.6010685  72.1827793
 100.5138683  33.5294080  71.5228891  87.7719212  27.2982407  43.4935951
  88.1216526  27.2244835  42.6056337  88.3523464  27.9228902  43.9285088
  72.0044231   7.8105962  78.6933994  71.1463833   7.4023938  78.5777712
  72.5244522   7.1496499  79.1505098  97.6726723  22.2706318  47.8461409
  97.7138901  21.3483071  48.0988312  96.7370796  22.4717832  47.8256845
  74.2628670  22.4847436  64.4535446  74.2216873  23.4169912  64.6667385
  75.1865578  22.2559762  64.5569420 111.2827396  43.5888863  71.2061787
 110.9386063  43.8351250  70.3475904 111.2722778  44.4022799  71.7106724
 101.8985081   0.6411076  49.1443253 101.0749340   0.2682180  49.4588184
 101.7543411   0.7856154  48.2091427  95.1660061  30.2753901   0.1761830
  94.9670124  30.6426668   1.0374264  96.0902786  30.4809856   0.0358692
  21.9693351  82.3119736  27.8320265  22.0585394  83.0379200  28.4495044
  21.6681981  82.7225876  27.0215034  83.3836174  22.3117995  73.9393091
  83.5153008  22.0223546  73.0364752  84.0029526  21.7909527  74.4505596
  12.1007240 100.1120090  53.0677176  11.9587171 101.0464764  52.9166126
  11.2244725  99.7281742  53.0347252  72.2422552  15.7708943  46.7179060
  72.5817823  16.5650165  47.1306038  72.8622961  15.0864005  46.9693947
  61.9779396  94.3050098  57.5479174  62.0798016  93.3605576  57.4300957
  61.2476206  94.3925667  58.1604528  93.3843136  32.9102445  65.4120922
  93.8548279  32.5275922  66.1526489  93.8370419  33.7362075  65.2416515
  18.3110571  53.8136196  62.9165602  17.9535222  54.4596195  63.5257339
  17.6003504  53.1851292  62.7895689 101.5426540  19.4045639  52.6959181
 100.8133221  19.3869269  52.0762491 101.3947392  20.1934028  53.2175350
  45.8675766 108.2237244  48.2214737  45.4447746 108.9567471  48.6688566
  46.7781305 108.4998322  48.1171465  64.4479609  13.0467939  60.6463432
  63.5394812  13.2753241  60.4496956  64.4312191  12.1005666  60.7898951
 106.2278175   6.6945481  76.8250656 105.7426453   7.5063646  76.6774464
 105.9090137   6.0983902  76.1474323   0.8775011  50.6818533  56.6612196
   0.7297528  50.8485556  55.7302952   0.0117781  50.7681704  57.0603466
  77.8784084  26.9662166  73.1109905  78.2006741  26.5316033  73.9006042
  77.0044708  26.5999246  72.9757166   7.0040804  46.3175631   4.0677795
   7.0737493  45.4516745   4.4697931   7.8814459  46.4956522   3.7290394
  81.7128277  30.8926630  31.4932418  81.1638546  31.6705441  31.5920496
  82.3765278  30.9794068  32.1775055  95.1441860  28.2565570  29.4955516
  94.3319702  28.1499386  29.9906969  95.2829170  27.4068928  29.0771532
  86.3778591  12.0141792  71.5865612  85.9010792  12.3190784  70.8145809
  85.9934235  12.5031817  72.3141050 109.4730949 105.1909924  34.0614939
 108.7474823 104.6592999  34.3886280 109.6323681 104.8608017  33.1772804
  61.9401503  48.3830833  30.3095770  61.7857027  48.8607264  29.4945717
  61.1363840  47.8825712  30.4498649  69.3949223  11.2933421  38.4029937
  68.6013556  11.3381100  37.8696299  69.7145605  10.3992081  38.2822132
  83.7903500  39.6884251  54.4961834  84.5453167  40.2187538  54.7511435
  84.1143703  38.7878537  54.5107603  76.5599966  18.9757276  44.8957014
  77.4854469  18.9813340  44.6512747  76.4653301  18.2065964  45.4575825
  28.4201908 101.4503098  51.9057655  28.1485748 102.2765255  51.5059996
  27.9817009 101.4403248  52.7565622 102.0239639  26.6989398  65.8928013
 102.2370243  26.8161774  64.9670076 102.0009899  27.5876236  66.2476873
  96.4923286  15.2350569  85.8631229  97.1285820  15.5582285  85.2251720
  95.6462288  15.5341899  85.5301762  39.6180058  93.5900116  38.9353395
  38.9707422  94.1391277  38.4928942  39.3667054  93.6200905  39.8584723
  82.6461029  31.6772723  49.8483276  82.6062202  32.6277137  49.9546385
  82.5804615  31.3336396  50.7393026  93.0584526  69.9558640  50.6824112
  93.6829853  70.0300980  51.4039898  92.3639870  69.3924236  51.0237217
  51.4404774  92.5870419  66.8024731  52.2267008  92.6946926  66.2672138
  51.6348600  93.0602646  67.6114845  83.3007050  33.7357998  38.7682652
  83.2566261  33.6739898  39.7224498  82.3882484  33.6891913  38.4828258
  41.7500973  46.8666458  59.3123198  41.7142963  47.3962641  60.1088476
  41.0860872  46.1900139  59.4445467  94.2968845  32.3689318  12.8759086
  94.5085907  32.9013443  13.6426854  95.0403595  32.4925232  12.2858238
  15.0287068  20.3793430  63.1755686  15.9044635  20.7310700  63.0156612
  14.8735225  20.5372930  64.1068077 100.6907940  57.1140194  39.1718817
 100.4688263  56.2855387  39.5968342  99.8946190  57.3633909  38.7026787
  40.2232933   3.9456880  80.2116966  39.8086643   4.4705749  80.8963966
  39.9452424   4.3568847  79.3932629  42.7268076 109.0671539  46.6360140
  42.2225285 108.2638836  46.7651844  43.0844069 108.9858913  45.7518482
  69.9144173  12.0609236  18.2657707  70.4589605  11.3442290  18.5914278
  69.7313643  12.5934410  19.0398169  64.1307449  23.3941269  41.9721842
  63.6414671  24.1870117  41.7527103  63.5075712  22.8553486  42.4596262
  40.5659533 104.9496746  41.6352749  39.9092817 104.2634106  41.7538643
  40.0966358 105.7640839  41.8161440  53.3140373  94.7140217  89.4104099
  54.1252661  95.2126408  89.5079994  53.5322189  93.8373470  89.7267532
 113.4358501  43.1260824  37.8509307 113.9970589  43.4631777  38.5492468
 113.0603600  43.9083290  37.4467874  48.3040190   8.9487779  43.3876801
  48.0815601   8.2399005  42.7841568  48.0003071   8.6405808  44.2414951
  76.1849070  27.6311040  55.2813053  76.4459419  26.7198014  55.1485682
  76.5490437  27.8625298  56.1357498  95.1755047   0.9534027  91.4363861
  95.6929302   0.4806678  92.0883274  94.2707539   0.6996297  91.6187859
  67.6868725  38.0022526  61.4985418  67.0352221  38.6371565  61.7959929
  68.3735085  38.5342956  61.0964346  88.9745617  26.7171621  36.3749385
  88.0589294  26.4938450  36.5422511  89.1494942  27.4596858  36.9531155
  75.7198286   1.5931800  54.6022749  75.0686884   0.9142338  54.4254160
  76.4630318   1.3633727  54.0445328  77.0794725  29.4887638  63.7677193
  76.4063740  29.6346617  63.1029749  77.8140211  30.0354719  63.4888124
 110.4324245  55.1005936  31.5684199 111.2117100  54.5638371  31.4240432
 109.7068024  54.5566177  31.2621522 101.8544865  38.2066274  68.6837244
 102.7429104  37.9934239  68.9691734 101.5338135  38.8248467  69.3403864
  60.4680490  24.5761442  21.9139171  60.1670647  24.0181327  22.6310349
  61.0759163  24.0252662  21.4206958  95.4284191  43.0801964  46.5691280
  95.3255367  42.1285439  46.5698242  95.3097439  43.3332682  45.6536484
 111.9069290  44.3440723  26.1572099 112.3053837  43.8391352  26.8660831
 112.4965000  45.0876951  26.0320830 109.2916203   8.8368106  75.4334927
 109.1548824   8.1615466  76.0979843 108.5039902   9.3789768  75.4773521
 104.3159103  32.9819107  87.4114704 103.9782429  33.8650489  87.5607491
 103.6457539  32.4043202  87.7768612  71.9975853  16.9433749  75.5121517
  71.6837692  16.9764352  76.4158440  71.9550419  16.0163319  75.2776003
 101.2527180  33.4405279  65.4610729 101.1308002  32.8171968  66.1771870
 100.5005455  33.2959390  64.8870087  96.7694950   7.9997301  79.6577692
  96.9086552   7.0943421  79.9355078  97.3418522   8.1079221  78.8982105
  33.2588243  40.9470558  49.3266535  32.9144931  41.5884304  48.7051201
  34.1089272  40.6959295  48.9654160  89.0044785   9.1074264  67.6269388
  88.5836315   9.7823095  68.1595325  89.7843075   9.5341444  67.2719622
  87.7865124  28.3130598  60.2773333  88.4175396  28.6104774  60.9327602
  87.0067883  28.0830145  60.7826328  13.2006061  62.8711700  23.8183093
  13.6092424  62.1408844  23.3536243  12.5053513  63.1692696  23.2318020
  79.5547962  18.6769831  58.3603764  78.8609219  18.6352241  57.7023315
  80.2086926  18.0461085  58.0593014  67.5000954  41.2196493  60.9458828
  67.0712566  42.0238924  61.2383270  68.4195662  41.3382435  61.1840916
  51.9351006 107.9489708  67.6634693  51.2580013 108.1414413  67.0148420
  52.6443386 107.5511742  67.1585178 100.7051945  44.9953890  79.3840265
 100.7478046  44.8445988  80.3283119  99.8908043  45.4817200  79.2556477
  70.9727240  16.4272404  90.0129509  70.5510187  15.6338394  90.3429604
  71.2403488  16.2032187  89.1216469  76.7279720  28.8718653  58.1051922
  76.8605328  29.7789049  58.3807611  77.4605465  28.3939314  58.4939671
  71.8261814  50.6291103  58.9610863  72.2930384  50.1880741  58.2513285
  71.7503595  51.5377045  58.6696339  23.0141401 109.4400597  86.6421223
  23.1756258 108.9107227  85.8611202  22.3957038 108.9229870  87.1582603
  70.4006910  19.3864334  75.4322481  70.5464268  19.8575878  74.6118784
  71.1531401  18.7997031  75.5084038  81.2815285  28.6757708  71.4361095
  81.6072559  29.4395542  70.9599113  80.6118011  29.0270567  72.0228767
  91.7936897  39.7749829  73.1602001  91.8857956  39.0186238  73.7395716
  90.8621502  39.7968388  72.9411173  11.6049051 108.0363655  55.5105925
  11.2813830 108.3857822  54.6802521  11.6964114 108.8045311  56.0743046
  86.1390686  22.4242258  58.0255842  85.5168629  22.7393055  58.6811829
  86.7971802  21.9462299  58.5302067  17.5341070  67.9100084   5.0295907
  18.0583858  68.5128546   5.5567920  17.5470674  68.2875776   4.1500980
  64.2147160  17.9976773  62.8535461  64.8579979  17.7232456  62.2000122
  63.3731747  17.9370093  62.4014854 104.8842144  73.4053278   4.7393212
 104.8532391  73.3592033   3.7837353 104.1960526  72.8070688   5.0304258
  74.4518518  50.8688784  53.8628435  74.1160536  50.4622459  53.0640173
  74.5292807  51.7976284  53.6445284  71.7584801   8.4539878  69.5208549
  71.6951990   8.4053063  70.4747200  71.1219740   7.8123748  69.2055321
  71.1144543  13.1478715  79.3116713  70.9515619  12.7024114  78.4802485
  71.5560675  12.4926543  79.8519468  91.2258720  84.2376614   2.6617128
  91.9400597  84.8737335   2.7014431  91.5305805  83.5737419   2.0431674
  49.3511009  14.5280802  64.5323515  49.8349285  13.7559187  64.2392445
  49.9127340  15.2664340  64.2964840  74.0625048  29.8741245  45.8255720
  73.7318468  30.5295634  45.2113247  74.3262815  30.3785825  46.5951014
  96.6274166  37.7676821   2.9937419  96.6515732  38.5934544   2.5102666
  97.3760414  37.2730112   2.6604387  82.4727345  53.2451820  44.6353674
  83.2384682  53.7957811  44.4718838  81.8420219  53.8304663  45.0547361
  99.2516327  39.4045472  41.2681627  99.8067951  39.6668696  42.0024776
  99.5320702  39.9641752  40.5440092  65.5802107  17.2875142  55.2477217
  64.8660564  17.8924084  55.0469303  65.4558039  16.5595055  54.6388245
  87.0743179   5.2561998   8.0795795  87.2642517   4.3275109   8.2125938
  87.8376389   5.5918610   7.6095736  90.1729965  20.7126331  63.5163021
  89.2536831  20.9318757  63.6680698  90.3288174  19.9421895  64.0625334
  16.2023818  64.6590757  53.2730246  16.0637236  64.1483879  52.4754000
  16.1473596  64.0172005  53.9809799  65.4863214  40.0920153  59.1988659
  65.5664730  40.5273533  60.0475645  66.3864517  39.8780131  58.9534998
  95.2898312  58.1057882  68.1563711  96.1960888  58.3426857  67.9593945
  95.3539276  57.2572899  68.5947418  38.9725685  94.5597458  62.4608994
  38.9227152  95.0914288  63.2552958  38.7511969  93.6747456  62.7507305
  96.1478043  31.7604113  55.7008171  97.0116043  31.7303181  55.2895117
  95.5835342  32.1673846  55.0433922  33.1676841  82.1593952   6.8220204
  33.5611939  82.7423763   7.4712592  32.3543119  81.8615246   7.2293633
  21.0038280  41.8509245  80.6478691  21.7331696  42.2244215  81.1426353
  21.2890577  40.9624052  80.4347801  91.1293602  13.4937704  55.3684425
  90.4490662  13.8830483  55.9178877  91.7274284  14.2168307  55.1793957
 102.6730537  29.6700191  51.5696764 103.5635090  29.3250370  51.6353893
 102.1604729  29.1252995  52.1669769  85.8632183  14.6585453  42.8046989
  85.2708530  14.3414640  43.4864616  85.5134201  15.5162501  42.5634098
  33.1172562 105.2283001  35.9879017  33.4768796 105.6643200  36.7604208
  32.4732399 105.8462906  35.6421256   5.7002354  25.6662297  41.0630274
   6.5871996  25.5699420  41.4098072   5.6909424  26.5379405  40.6677246
  77.6780224 106.7443275  61.6398478  78.3244848 106.0384369  61.6462421
  78.1709862 107.5229168  61.8987226  77.2059441  56.7727518  55.5893517
  77.7263260  56.0028887  55.3596878  77.4197960  56.9413519  56.5069962
  15.7233536  78.1201315  35.6035566  15.6106842  77.3184204  35.0928664
  16.3325369  78.6487961  35.0881505  90.3655148  21.4469743  50.1173687
  90.5788708  22.2833490  50.5311155  90.9968185  21.3654470  49.4025040
 106.1048698  29.7304273  93.2857037 106.7053318  29.7250843  94.0311241
 106.6247654  30.0796747  92.5618553  29.4574475  95.1512623   6.3608891
  30.0050402  95.9339619   6.2996513  29.9829268  94.5301723   6.8652254
  72.1958447   5.6638354   7.0169586  71.3302279   5.5641425   7.4131930
  72.5463915   6.4651829   7.4057901  70.6761169  58.0942535  57.4454355
  71.3046646  58.7969971  57.6107168  70.7251263  57.5408554  58.2249117
 103.0840683  33.0308962  76.3851261 102.8498936  32.1080780  76.4841223
 102.4232769  33.3830404  75.7888174  64.3408728  52.1373129  39.0169644
  63.4933138  51.8217134  38.7034893  64.9022913  51.3620710  39.0108752
  58.9674044  39.3094397  35.1480794  58.2839489  38.9606786  35.7203412
  59.5532942  38.5680604  34.9953580  18.6626911  38.7040591   1.6793974
  19.4029963  38.7799764   1.0773876  18.7084758  39.4951868   2.2162901
   1.7916353  43.7291908  92.4152756   2.7176332  43.9050961  92.2484875
   1.3423595  44.0492010  91.6329861  87.8996277  37.5483274  69.3257666
  87.3416042  37.8380919  70.0474882  88.7283516  38.0067158  69.4648266
  76.7302275   4.4834974  82.8997231  76.0200119   4.3768284  83.5325336
  77.4223804   4.9280053  83.3891869  39.6915078 106.7714882  36.9648647
  40.4301405 106.1823273  36.8114400  39.0473127 106.5259075  36.3008356
  90.5420876  27.5055099  65.7974100  90.2734566  26.7919755  65.2186728
  90.7135677  28.2401371  65.2082205  37.1900511  12.7036059  43.6072254
  37.0677829  13.3479893  44.3043995  37.3754597  11.8850529  44.0674734
  71.1788177  21.9297409  54.2924166  70.4627180  22.4886084  54.5942450
  71.0466433  21.1012650  54.7532749  82.2084808   6.1170906  58.5547161
  81.6792870   6.2903684  57.7761555  81.6038132   6.2373215  59.2869377
 108.4075165  30.3558326  59.4443893 107.7193546  30.2539945  60.1018810
 107.9947662  30.0903344  58.6225748  79.3430376   6.2613022  35.5758905
  79.0172386   5.4291463  35.2329588  80.0640106   6.4953995  34.9914050
  82.8997707  47.3137188  43.5788774  82.0693207  46.8644857  43.7362576
  82.8484154  48.1062078  44.1132498  84.9762821  36.6615009  23.1598496
  84.0250397  36.7471743  23.0963969  85.1828098  35.8889794  22.6337457
  19.0411115  61.6651821  79.3004417  19.4363761  62.0486164  78.5175133
  18.8914835  60.7485628  79.0688181  46.3181686  28.3514452  74.7063732
  46.6347504  27.7974653  75.4198933  47.0915651  28.5102248  74.1651917
 107.1886063  27.2035646  67.8103304 106.3336277  27.6149845  67.6839828
 107.2247887  26.5169811  67.1443558 111.6188240  34.6955776  76.5953445
 111.5901661  35.6522989  76.6051197 111.1627007  34.4505048  75.7902861
  87.2559643  59.7661591  34.3620729  86.4738083  59.2800140  34.6230793
  87.1866798  60.5994081  34.8280478  97.8981781  31.3845825  17.8610396
  97.5697994  31.1414719  18.7266600  98.8496876  31.4057875  17.9631031
  98.1395245  47.4914312  43.7858629  98.7832260  47.8262281  43.1615353
  98.3293915  46.5552330  43.8467932  66.2442112  19.5293033  60.8014822
  65.3571272  19.1798067  60.7168055  66.8070984  18.8437104  60.4418230
  53.3146429 104.5306206  23.8714314  53.0197573 103.9303493  24.5562315
  52.9925966 105.3880405  24.1495538  63.7045383 106.5627575  63.0985928
  63.4615564 107.4879551  63.1333447  64.6616745 106.5659237  63.1094599
  19.0405750  94.8885059  68.3458805  18.5844302  95.2198696  67.5723410
  18.7528646  95.4608917  69.0571022  98.8811779  65.9756184  45.7042503
  98.9292526  66.9316006  45.7089281  99.5998001  65.6968784  46.2718058
  95.8150482  59.6109819  52.0101118  96.4154243  59.9471807  51.3447189
  95.3058052  60.3748274  52.2811127  94.3499851  65.6547022  53.7898922
  94.1296673  64.9597168  53.1696606  93.5036755  66.0067320  54.0656948
  93.3586788  66.5630770  69.5251894  94.1997337  66.7895460  69.9221468
  93.4127045  65.6198788  69.3712711 100.9872341  47.3481703  76.2771225
 100.1800728  46.8527842  76.4161253 100.7148361  48.1121922  75.7688904
  14.2938447  46.8011332  21.4495111  14.7825634  46.0827255  21.8511033
  13.5302234  46.3801003  21.0547376 114.1768265  22.0236564  38.9664316
 114.0416050  21.1199689  38.6813068 115.1028919  22.1932983  38.7936592
 113.1463623  59.8958969  49.8228216 113.3322144  60.7229948  49.3782997
 113.4929943  60.0159836  50.7069349   9.6715641 104.1272736  51.4392042
   9.0333915 103.4861374  51.1262894  10.1921129 104.3442059  50.6657696
  69.3621111  39.9447155  50.6922865  69.6457052  40.2802563  51.5427113
  69.2943048  38.9983296  50.8187151  35.2375460  30.1426053  54.9642563
  34.5783615  30.5689716  55.5119038  35.3018713  29.2541957  55.3147125
 104.6292591 104.6198177  68.4408379 105.5569935 104.5135784  68.6512423
 104.2686939 103.7347317  68.4942055 100.6328487  29.9397349  30.9986234
 100.0990391  30.6400132  30.6232786 100.8181190  29.3583012  30.2611661
 103.3216572  87.2583294  84.0622616 103.7488842  87.0925903  83.2218742
 103.5342407  86.4915752  84.5943546  99.3784714  40.9112024  81.3057613
  99.6987152  41.0185242  82.2013950  98.5036278  40.5363464  81.4075089
  84.3487263  34.1192436  25.3871131  84.5734024  34.5556188  24.5653272
  84.8896408  34.5552945  26.0455227 112.0230389  80.1311111  28.4314942
 111.4802170  80.0062656  29.2099500 112.9078388  79.9041128  28.7175536
  90.5913258  23.2041335  81.5307426  89.7599316  23.4411407  81.1198425
  90.3403759  22.7144527  82.3139858 109.5148087  20.6433964  70.3015232
 110.0916958  19.9787128  69.9251890 110.1099777  21.2983084  70.6663513
  95.9881973  56.9958544  59.7270632  96.2285328  57.6880121  60.3430080
  95.1266670  57.2547960  59.4000340  15.7406497  32.2792864  57.6561642
  15.0889361  32.8338575  58.0850649  15.8615470  31.5436411  58.2565355
 104.9480343  55.8428288  23.7047172 104.9311352  56.7105579  24.1084337
 104.5259857  55.2717686  24.3465900 104.1228199  27.4333358  84.7033691
 104.6177101  27.7604246  83.9521503 104.3531799  26.5057826  84.7564411
   3.2825097  29.4311666  54.2236233   3.4542564  28.6253858  53.7363386
   2.3425829  29.4068670  54.4030094  80.8920574  43.7622261  38.3723474
  80.3666496  43.3067083  37.7145624  81.0854530  44.6125126  37.9775763
 111.8594360  56.1859369  48.8242388 111.9959354  55.3333426  49.2373800
 111.3150692  55.9972811  48.0598402   6.2537175  22.3226666  43.9938736
   6.7427748  22.4233317  43.1772232   6.6766900  21.5873218  44.4372606
 110.2229118  31.6254473  63.2294512 110.3496361  30.6824708  63.1247282
 109.7964764  31.9013667  62.4181223  67.5311041   1.6514571  61.8651485
  68.4693289   1.5093847  61.9907951  67.3569679   1.3321273  60.9797478
   1.7588498  53.8840008  63.3098650   0.8507658  53.6974335  63.5482121
   2.1003622  54.3913221  64.0462255   7.4738681  26.3056302  56.9323730
   6.9386649  25.8245730  57.5635433   6.8394905  26.7485523  56.3687992
 108.4622288  78.6464548  47.7305126 107.6142597  79.0878916  47.6824999
 108.7394619  78.5604525  46.8183851 112.7559185  55.1264858  57.9083586
 111.9195843  55.5877113  57.8447914 113.3276653  55.5808783  57.2895956
  69.2654514  24.0338230  87.5973797  69.7870731  24.3837118  88.3196926
  69.3720627  23.0848217  87.6626968  99.4116211  17.5069141  80.5238438
  98.6535835  17.6909852  81.0785866 100.1656818  17.6272368  81.1010361
  49.2960691 101.4882755  74.6318150  48.7430620 101.9410896  73.9951277
  50.1756382 101.8298817  74.4708824 102.8903770  34.1111445  78.8769245
 102.8913021  33.7185931  78.0039215 102.3772240  34.9131346  78.7783718
 106.4780998  50.1624632  29.3102860 106.2112045  49.5611811  30.0055957
 106.0410404  50.9864521  29.5253611 100.6089497  53.7460756  55.7148838
 100.7098675  54.6248817  55.3491688 100.8303356  53.8451147  56.6408491
  97.8021240  45.8260822  64.9004984  97.3466015  44.9864674  64.9619150
  97.5822449  46.1546612  64.0287590  94.0946484  41.8072701  59.5531034
  93.4413910  42.1656847  58.9522505  93.5808182  41.4066553  60.2543306
  78.1336832   7.1886039  74.7295904  78.4284973   7.6168448  73.9258957
  78.1978512   6.2526321  74.5396662 105.5546379  60.7012415  49.7374392
 105.7341862  59.8899794  50.2126741 105.9414482  60.5629778  48.8728571
 113.9612103  35.0643158  55.1713419 113.9342117  34.5244479  55.9613085
 113.3661652  34.6272874  54.5621204 110.0914097  44.5162439  64.5898819
 109.1818714  44.8136377  64.6128082 110.2420235  44.1391373  65.4566813
  88.9066124  62.5323248  66.1465740  88.8985634  61.5867949  65.9977913
  88.1206322  62.8512764  65.7030249 101.6554737  40.8575201  50.2164888
 101.7024994  41.4821959  49.4927502 102.1447563  41.2750006  50.9253883
  99.7642803  59.4841385  63.7103224  99.4526768  60.3621578  63.9299011
 100.4687214  59.6308899  63.0790854 109.4052601  66.1920500  58.8287401
 109.3017864  67.0567989  59.2259026 108.7754059  66.1825800  58.1080198
 112.9031944  67.9679298  33.6780739 113.5543537  67.5533772  34.2440891
 113.2690144  68.8309813  33.4842944  88.9584255  46.9476271  40.6076288
  88.0129623  46.8500566  40.4944944  89.0506935  47.6157856  41.2868071
 114.7711849  43.3112288  52.0304108 114.3199062  43.6661625  52.7963066
 114.1172981  43.3410025  51.3319969 111.2185478  51.8458986  55.0467730
 110.3382397  52.2205639  55.0165367 111.4571762  51.8694592  55.9734535
  90.2881050 100.8399105  26.6510582  91.1583710 100.5337048  26.9062257
  90.3571701 101.0007000  25.7099891  64.2329073  84.3675041  35.6689882
  64.6440792  85.1434994  35.2881837  64.4207716  84.4320297  36.6053510
  16.0576987  17.4458981  41.6546154  16.0167646  17.1643901  42.5685692
  16.9617283  17.7363229  41.5337133 104.5156002  28.1956363  79.5006180
 104.2940235  27.3993587  79.0178394 105.0204563  28.7199640  78.8789845
 115.7127094  12.2785640  93.2036114 115.2146339  11.7673683  92.5657845
 115.6759930  13.1759298  92.8725243  84.6455479  23.1290269  53.9330864
  84.7906303  23.8589621  53.3311033  84.8036289  23.4996009  54.8013687
   8.7853891  46.6687202  61.0994387   8.0740643  46.1679363  60.7001066
   9.0007943  46.1847925  61.8967152 103.8277149  47.3885012  65.4446840
 103.3266544  47.6272774  66.2245321 103.4141064  47.8794289  64.7346449
 109.9925041  33.5025239  65.1073313 110.1198673  32.6875067  64.6217871
 109.9988365  33.2369590  66.0269356 100.7037926  33.2232261  40.8527708
 101.3830090  33.4335113  41.4936209 101.1741543  33.1423998  40.0230360
  14.1574001  34.3876028  59.0029812  13.2086408  34.3874979  58.8761425
  14.4694829  35.1228380  58.4754705  99.9833393  62.9234076  33.4592628
 100.2129459  62.8302717  34.3838358 100.3942204  63.7456179  33.1920862
 110.0052643  23.7314129  31.5522408 110.6293106  23.9671469  32.2386980
 110.4276085  23.0132890  31.0809135 100.2124214  46.7533159  46.7818451
  99.9729252  46.4912844  47.6707792  99.7650528  46.1227369  46.2175274
 110.8475304  87.3115444  61.7497730 111.7559528  87.0408535  61.8829203
 110.7830906  88.1589031  62.1902943   1.3066757   8.0837941  51.2384892
   1.8918900   7.5585192  50.6927395   1.2431371   8.9230788  50.7826424
   5.5166566  49.9039459  53.4177971   4.6364444  49.5421314  53.3150864
   5.9234452  49.3571568  54.0899420  85.3446388  47.3673868  51.9852114
  84.5443153  47.8272772  51.7318010  86.0459709  47.8456497  51.5429115
  85.5713844  24.5428181  56.3910389  86.0990047  23.8163638  56.7228699
  85.4615021  25.1227927  57.1445560  14.4833505  36.3531947  65.3780985
  14.6998632  35.5747080  65.8912373  15.3302991  36.7531061  65.1806641
  95.7085133  22.0694017  94.3059063  95.5309582  22.8582001  93.7935543
  96.3876534  21.6105080  93.8115311 105.8898640  75.9887314  48.6825228
 106.0883713  75.0849295  48.9274120 106.2312889  76.5135574  49.4065523
  99.0657139   8.1229228  23.0775881  98.3357048   8.5334688  23.5410213
  98.9791775   7.1899104  23.2731199 105.3111076  57.7153778  57.4662304
 105.7288074  57.3295641  58.2362366 106.0356998  57.9036999  56.8697882
  94.6177387  64.8457623  46.0357857  95.5466747  64.7946072  46.2609339
  94.1640091  64.5334482  46.8186092   5.2548313  37.5593662  78.6787319
   4.9202770  38.4545779  78.6248636   5.7521844  37.4404526  77.8695774
 105.8025932  39.5464659  55.9198666 105.3926468  39.4869399  56.7827892
 105.9931087  38.6390519  55.6820965  99.4285583  66.2634802  55.8291674
  98.6096668  65.8846807  56.1488056  99.6986103  65.6838655  55.1168823
  66.8750906  23.4477139  57.4604416  66.2401915  23.0964708  58.0847549
  66.8656111  24.3923044  57.6150131  21.4656353  34.9932218  52.7537251
  21.9997334  35.7595587  52.5446844  21.2616158  34.6042538  51.9032478
 101.5184021  49.2665243  49.3914890 100.9951115  48.8205481  50.0574446
 101.0630894  50.0955963  49.2446661 106.3749313  26.0718489  36.9203401
 106.0052204  26.9380307  37.0914316 105.6879520  25.4611754  37.1874785
 101.8144512  13.2861590  74.6498728 102.7195740  12.9792094  74.7024679
 101.4117241  12.9850554  75.4643488 109.5659447  56.0426044  81.7302513
 109.0900421  56.8084717  82.0514870 110.2790928  55.9233093  82.3574829
   6.2438601  49.4876814  48.5439444   5.3645402  49.1100788  48.5649681
   6.1033916  50.4100132  48.3299255   0.9211679  64.1269064  84.6286774
  -0.0304879  64.2203951  84.6716118   1.1350478  63.5245752  85.3411961
 109.1004372  43.4089327  37.2479725 109.0999508  42.7512980  36.5524530
 109.4588947  42.9523373  38.0090666  90.3769112  60.8572817  63.7988424
  89.7828674  60.2972126  64.2985153  90.8970928  61.3082314  64.4638920
   1.0751296  63.1270361  15.1857924   1.6577806  63.2013035  15.9415925
   0.2275719  62.8858185  15.5595469  99.8249245  23.3691287  89.2957020
 100.5824089  23.1060219  89.8184109  99.7698116  24.3173552  89.4142628
  68.0880356   4.1272363  68.4311247  68.1291008   3.3579534  67.8630161
  67.2093105   4.4806337  68.2926226  93.0274582  16.0724294  48.9349651
  93.4827328  16.7600667  49.4208765  93.7287426  15.5416751  48.5571718
 112.1783352  62.9171467  65.1144028 111.7076015  62.2851944  64.5710039
 113.1016254  62.7663040  64.9118948 106.4784431  15.1223421  70.7959843
 106.7304039  14.2065966  70.6770086 105.7075596  15.0870132  71.3623047
  71.0958052  73.1497717  78.3448839  71.6812563  73.8981819  78.2292938
  70.8825493  72.8726435  77.4538422  84.9127579  59.8589039  47.8531694
  85.4486370  59.9777699  48.6373472  84.5607281  60.7298326  47.6693583
  84.2226219  36.9730091  65.5835629  84.8040009  36.8906784  66.3395071
  83.5336685  36.3271260  65.7397985 104.2199326  48.6657858  60.8079433
 103.8941765  49.5387173  61.0272789 104.5135784  48.3027744  61.6435432
  65.8373356   1.2627254  32.4234986  65.3392935   2.0579073  32.6129007
  65.1739979   0.6168262  32.1805263  87.4235439  33.9666867  82.2204399
  88.3077049  33.7606072  82.5238132  86.8482399  33.4809637  82.8114796
  34.1373205  59.3875217  78.1504202  34.8843765  58.8952732  77.8100729
  34.4797659  59.8399973  78.9212799  89.0788174  36.8118048  53.5091591
  89.9165344  36.7014837  53.9589357  88.4670830  36.2679863  54.0054178
  97.6462269  23.1119418  40.5020475  97.4777412  22.8961873  39.5848250
  97.2713470  22.3806524  40.9928751  83.1072998  19.8547995  43.5593843
  83.2170200  19.5595813  42.6554823  83.2931423  20.7932949  43.5290623
  10.9852195  55.1663542  86.8163395  11.0182238  55.0128698  87.7605724
  11.3535118  54.3711042  86.4314079   5.6312805  77.3016691   1.3615263
   6.0800630  76.6922855   0.7754575   6.3069582  77.5815964   1.9790480
   2.0624812  55.6586933  82.3427486   1.1887138  55.5417347  81.9698143
   2.2936191  54.7957945  82.6865768  94.6333504  47.3869133  86.5020561
  94.5700932  48.2726240  86.1446476  94.9558926  46.8569613  85.7731152
  91.8543816  95.9781456  87.4304295  91.2330818  96.6929722  87.5691891
  91.5253925  95.5218124  86.6559887 111.0184765  27.6732254  46.6195250
 110.4623699  28.4136343  46.3771009 111.9017792  27.9455996  46.3708591
  85.5249977  38.2207680  63.5952711  84.9343586  37.6704526  64.1095972
  86.1351871  38.5829067  64.2377281   4.4405046  53.9048767  49.6289921
   3.7890339  53.3177042  49.2455244   5.0768268  54.0470028  48.9281893
  98.2801151  54.3081331  65.5643559  97.8662682  55.0828075  65.1837730
  98.0935287  54.3726587  66.5009785 107.4853992  32.8323269  42.4858570
 107.9030228  32.0501614  42.8464699 107.3716927  32.6359940  41.5559340
  54.0576172  72.7241230  91.9165230  54.7701502  72.7502298  91.2778950
  53.2655239  72.8633547  91.3974476  96.9041061  62.8272438  61.2341356
  97.1604061  63.7187386  60.9979582  97.6861858  62.3010969  61.0675049
   2.0508976  69.9728966  37.2705889   1.2077085  69.5909214  37.5142288
   1.9607249  70.9033680  37.4763131 104.4144726  44.5905781  40.7008076
 104.1079044  44.9263000  39.8584652 105.3648663  44.7005033  40.6709051
  81.0345459  37.6631474  50.6135750  81.3416004  38.3185005  51.2400436
  80.3327370  38.1018305  50.1326895 111.8753624  37.1812534  61.0389423
 112.4390507  37.8629446  61.4047194 111.7376614  36.5703630  61.7628765
 114.9005985  45.9437704  75.6633377 114.2156219  46.4294481  76.1228561
 114.6136761  45.9309816  74.7502422  98.1655788  42.2951317  44.4832563
  97.3507881  42.0960808  44.9444771  98.8555717  42.0050764  45.0799274
   4.9077159  86.6741562  69.0906858   3.9905533  86.4393520  68.9495754
   5.4011714  85.9288311  68.7483072  98.0871201  49.0102100  62.1242046
  98.0546856  48.8277769  61.1851120  98.9716244  48.7558174  62.3872042
  79.7605801  41.9317484  36.5672040  80.2006626  41.2438774  36.0678053
  79.2589045  42.4187231  35.9134364  97.8925037  18.4508514  54.3858194
  97.3626328  17.9069304  54.9685860  98.5903931  17.8693044  54.0841818
 115.3788471  30.0972462  61.1612225 115.7653141  30.1985621  62.0310545
 115.6579971  30.8778405  60.6827021   2.2116072  10.3054166  53.2010603
   2.1648121  11.2205601  52.9243755   1.3262968   9.9682212  53.0641079
  93.9658356  40.8912325  79.7593784  94.5758915  41.6174698  79.8883677
  93.7057781  40.9571981  78.8405466  28.5013771  82.3668480  26.9307971
  27.7423096  81.9182205  27.3033309  28.9630985  82.7258587  27.6885271
  74.5446634  45.8736944  35.0025225  75.3401518  45.4536819  34.6753836
  74.0788317  46.1515617  34.2138386  93.9368916  51.9924736  57.3399544
  93.6902523  52.3507738  56.4872980  93.4718895  51.1574602  57.3924541
 101.3485718  10.3404737  54.4860983 102.1123886   9.7699618  54.4004297
 101.7150593  11.2213206  54.5637417 115.5707836  31.1908889  57.5396347
 115.1281738  30.3712821  57.3192453 116.3819027  30.9173894  57.9680157
  93.9160061  61.0915232  73.7855101  94.3391228  61.9132423  73.5365438
  94.3212318  60.8568001  74.6203327  93.7064075  87.6392365  32.2763634
  93.2357597  88.0897808  32.9775953  94.6202278  87.8973770  32.3968983
 109.1603088  67.5289726  24.8163247 108.2334423  67.2899532  24.8212576
 109.5281506  67.0464516  24.0759921   1.4601068  90.7477379  19.3496644
   1.9186632  91.4806080  18.9387345   0.5571893  90.8273792  19.0420473
  96.3189507  35.8259320  34.8600411  95.7356739  36.4590669  35.2785635
  95.7664394  35.3784752  34.2191505 110.2991772  22.3315001  50.1461124
 109.9706936  22.4535871  49.2553711 110.3956604  21.3836169  50.2379942
  59.3824291   4.1921046  31.8747330  59.0114260   3.4680128  32.3789954
  59.7055912   4.8038241  32.5362444   1.0647509  56.5277290  42.2354078
   1.3505031  57.2013187  41.6182709   0.8837972  55.7631874  41.6886330
  19.2854118  52.0461988  47.7479601  19.8005688  52.8527021  47.7679157
  18.3957970  52.3248005  47.9652071  86.8203640  39.8030472  52.7428532
  87.7251911  39.6591830  52.4657059  86.8049526  39.5316696  53.6606455
  14.8846805  27.8186965  60.7182693  15.2254367  27.2411370  60.0352287
  13.9393651  27.8347278  60.5687618  79.8457050  21.8422914  71.4558935
  79.2791653  22.6097417  71.3766003  80.6470013  22.1767139  71.8587780
 105.7010365  26.7453551  61.7095852 105.7839680  26.3646579  60.8352709
 104.8160553  26.5116549  61.9896221  21.9473648   0.6278334  43.3172703
  21.4438081   1.3720509  42.9874182  21.2852526  -0.0006317  43.6051464
 110.6890869  12.4607491  61.5507507 110.8507824  12.8047204  60.6722498
 109.8065281  12.7616310  61.7670774 107.1710491  36.0450363  60.3218937
 107.6156521  35.2118373  60.1658821 107.8790379  36.6861105  60.3852892
   0.8235620  57.6453495  35.0108743   0.0163143  57.4756336  35.4964447
   1.2846777  56.8065405  35.0121403 105.3620625  49.7405148  67.4668598
 105.2744102  49.7394848  66.5136814 104.5596504  49.3242264  67.7816200
   8.9305580  56.1142731  53.3912420   9.6157110  56.2157154  52.7305555
   8.4525806  55.3298330  53.1221247  91.7317009  54.0632439  33.4194326
  92.0029163  54.8270988  33.9285493  92.3986340  53.9806032  32.7378178
 100.5710602  26.4518261  41.7583466  99.9936962  27.1909714  41.9495153
 100.3869152  26.2341380  40.8445978 113.8631630  68.7704849  76.3450003
 114.1450119  68.9480734  77.2423601 113.0599880  68.2590771  76.4429951
  97.0001316  17.4356008  56.9250154  96.7844963  18.3502734  56.7430639
  96.1589718  17.0274663  57.1302080  86.2854576 100.0643539  44.0873766
  86.4809132  99.2761517  43.5806656  87.1437645 100.4203129  44.3172121
  98.4581375  64.5209837  43.1835985  98.1905270  65.1473618  43.8561058
  97.6711082  64.3851900  42.6559877 109.7269058  53.0098438  48.8899899
 109.0990925  52.7168179  48.2295227 109.8007107  53.9536095  48.7482452
  90.5673790  72.4210644  45.2051830  91.0561466  72.1326923  45.9760094
  91.2292576  72.5024605  44.5185137  73.5271978 108.9507961  51.4488506
  73.0804157 108.4633827  52.1409798  74.1679144 109.4908428  51.9115210
  77.3464775  72.7863836  56.8711948  78.0650616  72.9201984  56.2531710
  77.3237848  73.5905457  57.3898840 116.1740017   6.7122173  26.7534161
 115.5628967   6.5071326  27.4610353 115.6904125   6.5087122  25.9528160
  94.7755623  19.3173957  42.7048397  94.8402309  18.4072280  42.4156284
  94.3470669  19.7697318  41.9781876   4.4136375  83.0860138  46.5050268
   4.8336080  83.8233852  46.0621500   5.1084530  82.6994705  47.0379877
  17.3821294  44.1676092  64.4220400  18.3089149  43.9490175  64.3244839
  17.3559213  45.1235723  64.3810797   0.0181202  51.2406254   3.8270649
   0.1166216  52.1333504   3.4960544   0.9097034  50.9638309   4.0384772
 107.0512104  73.0816936  61.0976171 107.8560257  73.5274029  61.3619089
 106.7287445  72.6732206  61.9009876 115.6213474  72.6547670  52.6526165
 116.3045502  72.8387213  53.2973051 114.8014450  72.8088570  53.1219196
  76.2364674  70.8980131  41.6679144  76.3034010  69.9537277  41.5262270
  76.7757368  71.2827015  40.9769440   3.6911315  42.1183109  55.0987625
   2.7539533  42.2388697  54.9458027   4.0230566  43.0015230  55.2600002
  76.7275715  78.0124855  49.5659637  77.4004316  78.0161142  48.8851738
  75.9093809  78.1702662  49.0949059  10.6903255  73.6344433  77.2586823
  10.3983700  74.3342781  76.6745377  10.0585985  72.9285669  77.1212196
  85.0872993  59.0506887  52.9556799  85.3039742  59.9684954  53.1197357
  84.8669815  58.6987448  53.8181353  14.5782304  62.2596931  20.3179622
  15.4639721  62.4558067  20.6233048  14.2600322  63.0877352  19.9583387
 115.2682495  39.8833513  64.0192175 115.3250980  40.7572126  63.6327362
 114.3662357  39.6075940  63.8562250 104.1716766  46.5052414  78.0717993
 103.4216309  45.9108973  78.0511951 104.8699856  46.0251617  77.6267052
 111.4105129  81.8183804  56.3651848 111.6615772  82.7269173  56.1985636
 112.2287560  81.3268375  56.2938404  11.3257349  71.9514179  65.8859730
  10.8938169  72.3452234  65.1279545  11.2614965  72.6170492  66.5708351
 105.9882355  46.8360233  44.4186592 105.5114079  47.2849941  45.1167202
 105.6638336  45.9359360  44.4475508 100.0870895  48.8007402  26.3032699
  99.2511940  48.8036680  25.8368874  99.9523449  49.3967152  27.0400834
  83.1012058  78.1287050  57.2815132  82.3906803  78.2912970  56.6610718
  83.8445187  78.6171818  56.9278002 111.9512272  74.1377306  48.3187532
 111.4800644  73.6644459  47.6330137 111.6603184  75.0450039  48.2267761
 100.4137802  61.8710327  78.3984518 101.2873459  61.4864349  78.3263445
 100.4997063  62.7370405  77.9998589 109.4116116  49.5353842  61.3077307
 110.2901173  49.6966219  60.9635448 108.8609314  49.4521189  60.5292416
 103.9093113  63.0776596  54.5212364 104.6372509  62.6192665  54.1014624
 104.1713047  63.9982891  54.5164013  19.6879542  63.6218548  64.4968557
  19.6758044  63.2386923  63.6197758  19.9021363  64.5435667  64.3526220
  26.8832088  57.8024578  74.8712873  27.4009442  58.5595608  74.5974636
  27.0933580  57.6912832  75.7984924 115.7157135  38.7165952  43.8304043
 114.7906590  38.8522887  43.6252260 115.7500076  38.7071991  44.7869444
  26.3947296 101.7251587  90.6468487  26.6035628 102.0611000  89.7751999
  25.8082128 100.9863091  90.4845905 107.0403862  34.4914198  74.7179890
 107.1008968  33.7060785  75.2618694 107.8842354  34.5370507  74.2684650
  15.8210862  63.0258703  56.0316420  15.1947057  62.3307848  55.8298206
  15.3195953  63.6581755  56.5463591   7.1017033  55.1011848  16.3545609
   7.8786999  54.6738768  15.9941208   7.4277365  55.5970430  17.1056008
  19.3584728  82.0516491  61.8764496  18.4698665  82.2848415  62.1452141
  19.7231615  81.5888023  62.6307774  -0.1439489  38.5092974  70.4893541
  -0.0249068  39.0013981  71.3016939   0.7450450  38.3590221  70.1678896
 102.4214363  73.9038372  85.2652931 103.3681488  74.0420389  85.2360821
 102.0897865  74.6287727  85.7951164  99.3315220  43.9533377  54.0190411
  98.9605045  44.7838974  54.3169641  99.7191811  43.5685253  54.8050880
  23.0963945  52.1857405  52.0069361  23.6101842  51.5824986  52.5439167
  23.6697054  52.9418039  51.8807983 110.8501720  27.9917240  68.2128096
 110.3873634  27.5454283  68.9219332 111.6324615  27.4601579  68.0655289
 114.0323257  48.5801601  67.0047855 113.6807442  48.4382963  66.1258650
 114.8825741  48.1405640  66.9964647   9.6634227  48.9050865  53.1506538
   8.9180166  48.7364340  52.5743198   9.7099274  49.8593712  53.2090473
   0.8338817  38.7388992  66.4309549   0.1827020  38.0548096  66.5865850
   0.3779556  39.3854427  65.8921194  51.6021538  90.6986332   3.8408706
  51.1908674  91.5027618   3.5239223  50.9020710  90.2376080   4.3030137
  96.9715405  81.7838097  36.1822510  96.7718601  82.5810051  35.6914997
  97.7507973  82.0052624  36.6920900  92.8334522  70.4028082  40.1796865
  93.3925724  69.6555090  39.9671626  93.0026436  71.0348606  39.4810319
  95.4693794  64.3916845   2.0284250  94.6931934  63.8392973   2.1213590
  95.5641747  64.8169088   2.8807318 113.1191158  40.2730751  62.1157503
 112.1700859  40.2518368  61.9927549 113.4753418  39.9558663  61.2858629
  98.0801296  75.0220537  57.8018522  98.8250637  74.4445753  57.9686642
  98.4270191  75.6985283  57.2202349   0.0989594  41.1365080  51.5320492
   0.8641947  41.1824608  52.1052265  -0.3909032  41.9366407  51.7219210
 114.1374779  53.5747099  37.4241090 114.5535374  53.3108425  36.6034365
 114.7526264  54.1945553  37.8160357 113.3763409  44.2194939  49.7190285
 113.2816982  44.3329191  48.7732983 112.6869678  43.5991526  49.9560404
   8.4666306  52.2511816  47.1574163   9.0292627  51.7872143  46.5374088
   8.7254643  51.9134140  48.0148268  77.5954056  68.4185648  64.2279148
  78.4070015  68.6465359  64.6813202  76.9795084  68.2090616  64.9300623
   2.2356029  43.6344862   4.3192184   2.2824892  44.5821285   4.4457409
   2.1703225  43.2775307   5.2049679  77.8888130  61.1559391  51.7294788
  77.6088953  60.2979994  52.0485687  78.4721375  60.9601307  50.9962463
  27.1340132  33.1108141  82.6242447  27.6071835  33.1102014  83.4563160
  27.5119066  32.3811674  82.1332836 113.3649349  42.1050310  58.1475878
 113.3351421  42.4153233  59.0526104 113.1680393  42.8803873  57.6219511
 115.0807571  40.0250626  38.4402609 114.2083836  40.3161573  38.7057066
 115.0831985  39.0842032  38.6163592  39.3950415  59.4089031  71.4698219
  38.9978695  59.1518831  70.6376982  39.1326690  60.3217459  71.5886068
  87.3917675  40.5345631  49.8377037  88.3456898  40.6081438  49.8668861
  87.0910549  41.0101843  50.6120396   8.1730700  63.7812853  61.1983776
   7.6626420  63.0881834  60.7796764   9.0096927  63.3675814  61.4108515
   1.6139756  46.6473675  61.5411043   2.1173225  46.5338850  62.3473263
   1.4831334  47.5930262  61.4715385 110.3342247  41.0338020  71.2861490
 110.5047226  40.6248140  72.1346092 110.7127666  41.9096899  71.3620853
  13.2939911  70.5924606  73.7259340  12.9806781  70.8304262  74.5985365
  12.4980688  70.4030991  73.2290602   3.7660602  51.5997791  47.8133011
   3.0976325  52.1881294  47.4621868   4.2714602  51.3272524  47.0474482
 107.2186089  34.2029905  28.5504699 106.9583225  34.7023678  27.7764487
 107.1046162  33.2877254  28.2944942 103.2350922  71.0125875  68.4017944
 103.0985546  71.8492556  68.8462877 103.1109428  71.2113619  67.4737263
 115.4457569  36.7950702  49.4237137 115.6030941  36.6218185  50.3518629
 115.9643841  37.5770903  49.2347670  34.6804810  45.5099630  80.3519726
  34.0261793  44.8116779  80.3292847  35.4263473  45.1551199  79.8682404
  81.8588924  70.5279589  69.6293449  81.7787361  69.5891047  69.7977495
  82.8001118  70.6983137  69.6657324  80.6670475  16.8151557  63.1134701
  80.1883411  16.2720978  62.4872446  80.8909035  17.6059067  62.6227188
  80.4152298  80.3428555  47.2596359  81.2621975  80.6672955  46.9536686
  80.5527401  80.1523113  48.1875467  59.0184689   5.4891926  82.7399635
  59.4738340   4.9454749  83.3828068  58.5768938   6.1587310  83.2624245
 101.0601425  74.1918516  65.3845739 100.5179596  74.3639851  64.6147442
 101.6829586  74.9183989  65.4061937  16.8283558  72.0477247  51.8721771
  16.4661813  71.4025593  52.4794817  17.4569571  72.5438166  52.3965693
   8.1127661  59.2157316  21.5310407   8.3867258  60.0051928  21.0642076
   7.4714637  58.8049841  20.9511733  94.4819069  69.8068762  48.5654879
  93.9601707  69.8765755  49.3649721  94.5411396  68.8660574  48.3994007
  86.6441917   8.3755839  62.0819664  85.7888508   7.9460734  62.0933914
  86.6761971   8.8674599  62.9024935  77.1128511  73.7294722  70.6608820
  77.7232456  73.7100172  69.9238110  77.6584244  73.9420128  71.4181185
   7.2563928  56.0987329  59.6163750   7.6847512  55.2475548  59.5256329
   6.4594203  55.9140205  60.1133156  83.9889717 107.8313351  26.9287634
  83.5805702 108.1341934  26.1177635  84.0669441 106.8837357  26.8183208
  86.0148239  72.8910303  42.9684591  86.9121647  73.1260681  43.2046270
  86.0916805  72.0254230  42.5671482  68.8597059  60.7681751  57.6125383
  69.6313429  60.9598398  58.1455183  69.1808796  60.1803112  56.9288015
  86.0453510 106.3271809  29.7666359  85.5670738 105.8732700  29.0727782
  86.2023544 107.2036743  29.4154310  71.2763929  79.3437195  67.7128077
  72.1232891  78.9937210  67.4362278  70.6491470  78.9702368  67.0936918
  12.1345222  93.9161682  92.1558380  11.1902082  93.8789749  92.0037937
  12.4581158  93.0644894  91.8622875  13.5713673  40.2804899  58.0824089
  12.8676915  40.8333683  57.7427149  13.4893692  40.3460264  59.0338373
  87.8646946  25.3402209  67.5408030  87.2769737  25.0945425  68.2552624
  88.3989429  24.5602059  67.3911715  75.1690102  72.1602631  69.0972948
  75.0364161  71.3242769  69.5442629  74.9579239  72.8207779  69.7571373
  98.7823105  88.8396072  34.1099238  99.1150188  87.9914474  33.8163948
  99.3298817  89.4812679  33.6575198   7.5658482  78.7815237  56.1146736
   7.9304451  78.1166935  56.6988850   7.7566409  79.6128130  56.5491772
  77.2279358  48.7493563  44.5952702  78.1378841  48.8508177  44.3161154
  76.8454790  48.1518316  43.9526844 109.2961216  90.6175995  35.5826950
 108.9501381  91.2204075  34.9245572 110.0739288  91.0578346  35.9253812
   0.6325194  47.0762634  66.0929108   1.3201107  47.5859356  65.6643248
   0.2772630  46.5216494  65.3983402  12.2936833  90.8628750  24.0868735
  12.8207231  90.3788471  24.7226238  11.6354740  91.3140965  24.6154523
  92.1241379  86.2955284  62.7437639  93.0802345  86.3414955  62.7419710
  91.8410778  87.2007370  62.8729677  98.6120796  49.0130329  59.3825674
  99.5341301  48.8810396  59.6030760  98.5581589  49.9313784  59.1180515
   9.6772259  71.6402960  91.8252945   9.7598052  72.5899076  91.9127846
   9.7782242  71.4764786  90.8876419  89.2413616  97.1338081  84.2007923
  88.6672783  96.3707447  84.1345119  90.0881672  96.7742157  84.4650650
  92.2669888  75.8374691  15.5692136  92.7278233  76.0335445  14.7534811
  92.7901554  76.2634850  16.2482154  66.9213820  40.8362341   6.3628983
  67.6864195  41.3561440   6.6091490  66.2449598  41.0939693   6.9892079
  83.5846138  74.5791197  70.0287724  83.5971260  75.4615259  70.3994942
  83.5262680  74.7173071  69.0833998  12.6914656  53.2415342  41.2567186
  12.6213431  52.3004723  41.0963488  12.6674175  53.6355448  40.3847027
 109.1116905  57.2833443  42.5271177 109.9426174  56.8124294  42.4635506
 108.6235142  57.0138168  41.7491293   8.8574862  76.1204863  66.8177795
   8.1160009  76.3215876  67.3887348   8.9184588  76.8736267  66.2301588
  27.5754905   2.5123829  34.4260240  28.3615065   1.9907480  34.2638254
  26.9603157   1.8996410  34.8289394  98.9714050  66.5472555  27.1031880
  99.8483276  66.9259596  27.1650195  98.4021091  67.2918367  26.9089341
  82.8364754  67.6891088  30.3724337  81.9234943  67.6200533  30.6515837
  82.7957726  68.1416893  29.5299697  12.3430705  29.7927094  19.1197300
  13.0450094  30.3479385  19.4591904  11.6112041  30.3927374  18.9763033
  73.2102442  69.6463156  69.0016699  73.1555986  69.9337292  68.0902767
  72.8230858  70.3640985  69.5027924  95.7882404  37.8580165  59.6359015
  95.7829857  36.9370627  59.3750429  95.2232742  37.8915238  60.4078579
 110.0903988  56.1182165  56.6384888 109.2825413  55.6503773  56.8499470
 110.2663803  55.8916330  55.7252932  77.4924898  74.8210430  58.3839703
  76.9689798  75.6171513  58.2924366  77.9680395  74.9403048  59.2060757
  90.2261829  70.3673553  57.9318333  90.6314945  70.6118155  58.7638092
  90.8554649  70.6477737  57.2673035   3.0457988  96.2014294  33.6199260
   3.9338183  96.0861683  33.9581108   3.1596082  96.7081451  32.8158641
 109.8461151  87.5365639  58.3070469 109.4110012  88.0049896  57.5946712
 109.1428947  87.0528793  58.7403536  95.8950996  87.0760345  56.0565329
  95.1994610  86.4425564  56.2326384  95.4621220  87.7785969  55.5715895
  74.2341900  38.9180183  42.5481415  73.9367771  38.1399822  43.0197763
  74.0243387  39.6468711  43.1320715  95.6298637  62.1801805  69.8938704
  96.0663223  61.7597675  70.6348085  94.9927616  61.5325880  69.5922947
  75.7827520  97.8710556  80.8914280  74.9543428  97.3936462  80.9367466
  76.3281155  97.3490906  80.3028965 114.2770576  55.2593803  54.4221544
 114.3055344  54.3059587  54.5022488 114.6069908  55.5802059  55.2614689
   2.6152682  39.9666214  44.8680496   1.6599333  40.0189877  44.8393297
   2.8774843  39.8701954  43.9525318  25.5397916  49.6098566  58.2274008
  24.8984170  49.0717745  58.6914444  25.0125790  50.2306366  57.7244997
  75.7871103  69.5538092  50.2837801  75.4722834  68.6640930  50.4435158
  75.3238201  69.8336840  49.4943094 103.1590652  42.5964212  51.8528795
 103.6809158  42.0364332  52.4276114 103.7960148  42.9819822  51.2513161
  11.2937617  49.9941587  62.5885201  10.6947005  49.4584990  63.1085443
  11.7916608  49.3620443  62.0701027   1.1308165  69.9566889  34.6863627
   1.9707331  69.8350191  34.2436790   1.3405390  69.8975182  35.6184292
  92.1752167  33.0592418  34.7214174  92.5535202  33.6156368  35.4022551
  91.2894535  33.4004569  34.5980048 112.1904373  73.4305286  65.0700569
 112.0961571  73.4344387  64.1175175 111.8411446  74.2770100  65.3487873
  70.7466173  25.1655650   9.6719557  69.7925234  25.2419758   9.6815032
  70.9156895  24.3309093   9.2349249 109.6307659  70.7009077  43.3639479
 109.0528870  70.2196932  42.7717304 110.4982567  70.6245804  42.9666138
  89.8421764  58.9216948  87.1695805  90.2835941  58.6662292  87.9795933
  89.1422081  59.5096636  87.4534225  99.3352795  72.1189260  34.4117260
  99.9534512  72.0243597  35.1364017  99.4605255  73.0172110  34.1057396
  74.8949862  74.8455715  47.2991085  75.0691223  74.1546965  47.9383326
  74.6249771  75.5973434  47.8265238  18.2327449  50.9766150  52.1962118
  17.9999864  50.6538248  53.0667639  18.7274945  50.2597237  51.7993212
   8.2063204  29.6611047  32.1090889   7.7322298  30.0070381  32.8652620
   8.8181317  29.0254021  32.4803042  97.0151901  65.9729481  57.3403978
  96.4524078  65.3959465  56.8240881  96.7073822  65.8652353  58.2403326
 112.5541019  73.1237364  37.0101070 113.2929134  73.3408833  37.5786519
 111.9707966  73.8797951  37.0760965 113.8703156  40.7393599  41.9231558
 114.4080162  40.0950146  41.4628124 113.0358028  40.2940130  42.0697784
 105.0858021  45.5318308  62.3648119 104.4722271  44.9057293  62.7492046
 105.4548931  45.9971523  63.1154633  78.0898046  21.7110133  67.3934650
  77.7393198  22.4239635  67.9274035  78.3674240  21.0505366  68.0282354
   9.2736226  57.1458197  47.5925779   9.6874863  57.0179558  46.7389965
   9.2910731  56.2795448  47.9993916 106.3509846  68.2150841  55.3625393
 105.4716587  68.5061741  55.6039715 106.7969227  69.0121555  55.0760889
  73.7151194  86.9587898  58.2881641  72.9502869  86.6046619  58.7418842
  74.1812944  86.1871624  57.9664516  99.6138477  48.6877871  56.5404987
  99.5730209  48.7405777  57.4953699 100.5387402  48.5330248  56.3485098
  95.1613617  91.0197926  70.0868034  95.4660034  90.9969521  69.1796637
  94.3573093  91.5382767  70.0564480   7.2356343  25.7279587  84.7154999
   7.8839767  25.5168581  85.3873062   6.5545964  26.2112164  85.1833439
   8.6895233  46.3565111  73.4348965   8.4148741  45.6564760  74.0271378
   8.1096810  47.0887232  73.6443758   1.5673998  47.9411554  68.4753227
   2.4204531  47.5737476  68.7067175   1.3083263  47.4662828  67.6856327
 110.7812881  59.3909311   5.1073211 110.4473877  60.1099586   5.6437355
 110.4016209  59.5415878   4.2416483  73.4533024  66.6719913  71.8389654
  73.9187002  67.4882841  72.0214462  73.7885809  66.3902521  70.9878206
  87.5821304  61.2959909  20.2263021  87.5382996  60.8755827  21.0851169
  88.3258533  61.8951416  20.2906108  88.8603306  22.6063728  54.5410395
  88.3930874  21.8413401  54.8766708  89.2665291  22.3019433  53.7295294
  28.0978680  85.2478790  54.7124004  27.1648455  85.4616451  54.7140980
  28.5081029  85.9620571  55.2001286  10.8184969  56.1773491  55.4207897
   9.9930978  56.1221266  54.9392319  10.5596280  56.3998318  56.3150597
  18.5342205  32.0180988  48.6849833  18.6787200  31.8270564  49.6117258
  17.6436102  32.3669648  48.6483812  92.4063969 101.9480801  62.0004559
  93.3134079 101.6779423  61.8569422  92.3629856 102.8375149  61.6493845
   3.4464028  85.7427883  77.2823381   3.1797314  86.4391994  77.8824425
   2.8188241  85.0374317  77.4399805  92.2607708  34.3874288  31.1706066
  92.9109669  35.0236702  30.8728218  92.7732849  33.6149812  31.4091301
  87.5957584  66.3274479  34.2387891  87.6516628  65.5256081  33.7190247
  88.1292915  66.9613075  33.7594128 102.6608658  75.0005054  32.1944094
 103.5139561  74.5807266  32.0837522 102.8672218  75.9147501  32.3888612
 113.3808899  26.8067050  67.1168137 112.6722145  26.9957399  66.5017748
 114.0617657  27.4438930  66.9008780   4.9825019  78.9935970  55.3065872
   5.8384061  78.6524963  55.5660295   4.8094544  78.5860205  54.4579554
  97.5652122  39.0031624  85.6790638  97.8526020  39.8000360  86.1247444
  96.8739986  39.2967057  85.0855255  82.2764111  89.6967793  44.5858717
  83.1936359  89.8669720  44.3714857  81.7989445  89.9146271  43.7853718
 111.2932396  46.1175966  61.6103745 110.4329014  46.5228891  61.7189169
 111.3957119  46.0230780  60.6633759   6.5011799  67.6811028  31.7500710
   6.2540841  68.1299353  32.5586033   7.2764593  68.1508684  31.4426756
  64.5399618  28.4004235   6.9048011  64.3539619  27.5198102   6.5789890
  64.5362902  28.9511871   6.1219358 112.9086971  59.7693586  58.2975388
 112.4471855  59.9247408  57.4734640 112.2134495  59.6971989  58.9514971
  11.2631345  78.5436487  71.0022688  10.6055462  79.2254591  70.8646345
  11.8289578  78.5976505  70.2321005 104.0556526  27.5434852  12.1671736
 104.3151093  28.1368399  11.4623022 103.1987762  27.2123122  11.8982434
  90.6637573  45.6091976  60.2707911  90.4864979  45.0308657  59.5289421
  89.8063660  45.7560587  60.6702185 111.7084312  53.7248278  39.0453005
 111.3470745  54.3568802  38.4238791 112.6492119  53.7264109  38.8687778
  20.9073949  56.8717623  55.6775570  21.4249063  57.3598289  56.3180304
  21.0454607  57.3377657  54.8529291   1.9343680  72.0116758  49.8474741
   1.3261056  72.2457981  49.1464520   1.4704199  71.3454676  50.3545713
   3.1346816  34.0441608  64.2911673   3.6375064  34.3166947  63.5236263
   3.1528735  33.0875731  64.2621231 110.7335854  72.1032953  77.1492624
 111.1792374  72.3134136  76.3286018 109.8085499  72.0427036  76.9107819
 107.4540901  34.5343566  49.8213100 106.9136715  34.0166068  49.2245579
 108.3362198  34.4801092  49.4537067 106.2779808  57.8887415  49.8978996
 106.3315868  57.8652954  48.9424896 106.9069099  57.2286320  50.1893425
 104.0352440  85.7663822  27.0851612 104.4159985  86.4316750  27.6584315
 103.4947395  86.2615395  26.4696002  11.5398669  16.2921011  69.2542315
  11.0327983  15.6972063  69.8066902  11.9949114  16.8638194  69.8725414
 102.0311069  31.1875629  83.2447433 101.3168335  31.7520809  83.5403252
 102.7934456  31.4864492  83.7404728  10.9349465  19.6444619  85.1780510
  11.3166964  18.9239013  84.6767616  10.0359023  19.7102678  84.8561573
  95.0313091  57.9750538  39.7832513  95.8485699  58.2965374  40.1639795
  94.3654823  58.1754923  40.4410791  91.3471317  71.4035988  66.8303967
  90.3987694  71.3376188  66.9421387  91.5318108  70.8910179  66.0433865
  79.0240192  64.9519920  64.9084139  79.0623617  65.7296467  65.4652023
  79.9358130  64.7811747  64.6724463  74.0428925  77.6232195  48.1325531
  73.6146593  77.9495144  48.9239931  73.3219576  77.4200344  47.5365639
 110.8137798  64.8453760  43.6683846 111.5735626  65.3152084  44.0122128
 110.3491211  65.4949427  43.1407595 102.8623104  74.1299629  58.4045458
 103.5600471  74.7160006  58.6977339 103.2975864  73.2882738  58.2691479
  16.9540668  73.7040901  31.0279608  16.6158545  74.5993805  31.0453129
  17.5882781  73.7014961  30.3110218  77.3689413  55.0778437  42.7445364
  76.5878010  55.1780891  42.2004795  78.0929613  55.3354359  42.1738625
 102.0984840  63.8796329  66.4456034 103.0528831  63.8566685  66.3761854
 101.8351555  62.9594612  66.4322710 114.3249512  11.4330781  53.5226679
 114.9388790  10.7030439  53.6024952 113.8972759  11.2950492  52.6775169
 105.9081745  62.2287846  52.6688623 105.6372356  61.6445780  51.9606781
 106.7174435  62.6299572  52.3520374 101.9672203  59.3481350  42.4240065
 101.7043591  60.1749992  42.0197439 102.4798012  58.9036846  41.7487621
  95.8272076  65.9054708  70.5036783  96.5534973  65.8067274  69.8880577
  96.1122799  65.4361010  71.2876844  84.7560501  71.0953236  66.6610527
  85.7048893  71.1890745  66.5764666  84.3990803  71.6091871  65.9366560
  14.7091925  79.6621037  55.0876951  15.0641370  79.0573597  55.7392502
  14.1815221  80.2785492  55.5954313 107.6511955  48.7500143  81.9664574
 107.1075535  48.3746147  81.2738037 107.0711517  48.7986517  82.7263355
   5.0936526  75.4873800  55.7165003   4.2799342  75.6794596  56.1825466
   4.9017358  75.6979752  54.8026896  60.9166670  98.6856461  77.4697828
  60.9450054  98.4933376  76.5325308  61.2596560  97.8953362  77.8869200
  89.9777508  31.4830732  44.4112062  89.7673988  32.1602654  45.0541639
  90.9306812  31.4022946  44.4514751  92.4631119  43.9505005  22.7751088
  93.1314564  43.3425188  23.0911756  91.6528511  43.4409428  22.7829361
  93.2559299  23.0140662  70.7591677  92.4782372  22.8069162  71.2773609
  93.8802338  22.3219609  70.9770155  84.6663094  85.2349758  35.7082653
  84.6482086  85.7728386  34.9166799  83.8068199  85.3681087  36.1080027
 114.2190266  35.5070949  12.1418762 113.4330177  35.7485414  11.6518438
 114.2543316  36.1357403  12.8628421 100.6664848  27.0782590  62.6950884
 100.3634453  26.7994952  61.8309736  99.8724556  27.1096826  63.2287264
  76.9635916  42.8445005  25.8270478  77.7526426  42.6671743  25.3150082
  77.2495270  42.7787781  26.7381763  13.8670075  50.1122189  55.7102108
  13.6578345  50.9310722  56.1596012  13.2974386  49.4615221  56.1206007
   1.4573365  55.3185606  44.5911884   2.2315657  55.7036495  45.0016880
   1.3469997  55.8116627  43.7782288  34.2846727  95.2073193   0.9548181
  33.9801884  96.1103630   1.0444913  33.4844160  94.6823025   0.9680744
   7.9155594  54.3970060  22.2778606   8.1413794  55.3050518  22.4795842
   7.0265728  54.4437599  21.9260812  84.5281315  70.6664324  69.1973972
  84.3365479  70.9502697  68.3035517  85.3558350  71.0961819  69.4129419
 111.7258453  73.0599642  74.8780918 112.4290371  73.6787987  74.6811438
 111.9980049  72.2455931  74.4550562 115.9589481  99.4355392  92.3258686
 115.9502316 100.3486061  92.0387077 115.4072285  98.9793491  91.6904736
 114.2641068  76.6311932  75.5281544 114.4546795  75.9352350  74.8992205
 114.0617466  77.3943090  74.9869204 104.3841839  94.4313240  46.5470743
 104.6268177  95.3484535  46.4196777 103.9512157  94.1824627  45.7304716
   7.7868080  88.7718582  18.1999815   7.9722524  89.5055962  17.6139104
   6.8936306  88.5083199  17.9785991  25.4188061  46.0297632  50.9330702
  26.3146448  45.9963369  50.5975294  25.2224946  46.9642878  50.9991074
  19.9765253  66.0487413  32.2707605  20.5301595  66.2251902  31.5101123
  20.5003548  65.4632664  32.8176188 106.1713314  67.2066832  35.7654858
 106.2197876  67.2227240  36.7213249 105.7370853  68.0276632  35.5338717
  10.7276320  66.0508299  91.8008995  10.5933273  66.9645882  92.0523739
  11.3923812  66.0869169  91.1131287 107.7937794  42.9261923  28.1504822
 108.5560417  43.0677128  28.7118745 107.9898834  43.4166193  27.3521996
 112.3824978  44.7186279  68.5712290 111.8620014  44.1488791  68.0049276
 112.3790836  45.5662107  68.1264639  79.8778677  79.6845770  52.4231815
  80.5917931  79.6338224  53.0587626  79.2935944  78.9647341  52.6612759
  10.3484058  50.2450895  70.9092760   9.7678638  50.2306318  71.6701937
   9.8353648  50.6745052  70.2247143 105.2356243  67.0600796  84.0356064
 105.0313663  66.1597872  84.2885590 105.6509113  66.9792652  83.1769753
   6.9186956  63.4393835  47.2478199   7.5132978  62.9791069  47.8401232
   7.4137229  63.5290527  46.4334822   7.2939056  66.2442970  53.0305338
   6.4280993  66.5015697  53.3474302   7.9000139  66.8226910  53.4934855
  11.8576515  72.5334406  56.6304541  11.4220011  73.0511665  57.3075056
  11.1872661  72.4037743  55.9596300  90.2855682  92.6355267  10.8219326
  89.4296265  92.8004932  11.2173748  90.4197693  91.6934681  10.9256530
   9.8749465  88.1468201  13.7235236  10.6278610  87.8598499  14.2402446
  10.0982130  89.0360069  13.4483445 113.4918594  29.7408414  55.7679939
 113.3306503  29.9631262  54.8510265 112.9362679  30.3438616  56.2618685
  91.7827892  58.3053017  54.1629362  91.8016529  58.9459562  54.8738766
  92.7044868  58.1452417  53.9602423 111.1854839  24.8939586  58.6301470
 110.9331131  24.7427726  57.7192783 112.1228790  25.0836182  58.5906458
   6.2263101  68.6115026  84.7694206   6.4080554  68.4174824  83.8498783
   5.7271093  67.8559351  85.0794983  94.1125298  52.1631145  45.0802851
  93.5846519  52.6400471  45.7206869  94.2238617  52.7785873  44.3556929
  12.7410340 107.2380161  52.5491333  12.5145948 107.7466583  51.7705107
  13.1277609 106.4328289  52.2051191  12.0799172  75.6114721  27.6996803
  12.8253365  76.0044193  28.1537437  11.3371980  76.1689806  27.9315901
   6.8164849  73.6524391  59.2566442   6.9270676  74.2823362  58.5444403
   5.9796304  73.2262039  59.0716362 111.9445038 100.7514000  19.6765697
 112.7507210 100.8633900  19.1728890 111.7344475  99.8216629  19.5887923
  17.8586435  42.0324183  59.8790789  17.1784890  42.3880672  60.4510355
  17.3837578  41.7145729  59.1111660   7.5867945  11.7607319  75.5644083
   6.8593013  11.2294638  75.8880424   7.6091242  12.5180483  76.1493921
  17.7028501  96.1016750  76.6046286  18.6232090  95.9386539  76.3982439
  17.7222812  96.5419674  77.4543333   5.8039451  84.6039295  76.4510012
   4.9514684  84.9790287  76.6719341   5.6976008  83.6641598  76.5985250
 103.0919266  86.6330051  41.1447334 103.6847305  86.5096855  40.4033804
 102.5058365  85.8769608  41.1110973   4.4893289  69.0054083  73.2310677
   5.3438658  69.2501736  73.5861540   4.3629691  69.5919085  72.4852276
  79.2457438  87.7062702  72.7148008  78.5244226  88.1791115  73.1299543
  79.5413446  87.0866871  73.3818579 107.3140812  39.8059464  48.4253025
 107.3023796  38.8495159  48.3887386 106.4342880  40.0668287  48.1530094
  91.1818218  72.6273489  48.5014296  90.5999756  72.7068472  49.2573118
  91.1538410  71.6978979  48.2743406   7.7748507  42.1981668  57.1246099
   7.6816511  42.9707098  56.5671825   7.1318567  42.3269606  57.8218889
  -0.3176364  85.0464630  92.7317142   0.2301763  85.4293442  93.4169388
   0.2869896  84.5218372  92.2069073  75.5495596  55.4645538  49.7612524
  74.8387623  55.1702356  49.1917133  75.5193806  54.8683929  50.5095243
 106.2810612  29.9969602  39.1686273 106.1808968  29.8553443  38.2272768
 106.2360001  29.1197109  39.5489383   6.6819090  74.2348433  76.1613178
   6.3661194  74.8555565  76.8179941   5.9897178  73.5763979  76.1017132
 111.2698746  98.8291168  82.3651505 110.5064774  98.2713318  82.5145626
 111.2316799  99.0426826  81.4328671 112.8899002  99.8796844  70.0085735
 113.1177902  99.4705582  69.1737556 113.5146046  99.5121956  70.6338167
   9.6149462  64.5653725  42.4308443   9.1942102  65.4250240  42.4161911
   9.3406498  64.1504955  41.6129971 115.1433945  97.5580883  82.1284485
 115.9082699  97.8807926  82.6049614 114.9952030  98.2101727  81.4435768
  79.2429066  73.4478283  30.3605938  79.5537663  73.2403231  29.4793797
  79.5790434  74.3274832  30.5321980  91.7644024  85.6847000  32.7794886
  91.6599274  85.9811401  33.6836123  92.4324799  86.2640953  32.4131465
   2.9000118  87.1620655  16.7925203   3.6006331  86.5352821  16.6122198
   2.6553789  86.9926834  17.7022982   3.2031605  10.7501292  78.8307142
   2.8575712  10.8204889  79.7205734   2.4258657  10.6756413  78.2770967
 102.0373821  48.6143446  55.3625011 102.7477932  48.0724144  55.0191879
 101.8608665  49.2470598  54.6662617  14.6482170  97.2027397  38.6971569
  15.4542875  97.7051353  38.5785365  13.9471757  97.8268337  38.5093236
  11.1065984 102.2727776  37.0943642  10.9576786 102.9424095  37.7619314
  10.9490526 102.7228069  36.2643719  15.5650258  68.9473867  46.8462610
  14.8692226  69.2177725  47.4454069  15.4589307  69.5161629  46.0837221
   8.2075840 102.0979309  50.5341244   8.0930084 101.3622475  49.9325609
   8.1004339 101.7144680  51.4045906 115.3898239  60.5303526  24.5196891
 115.0521755  61.3866997  24.2572021 114.7489452  60.2034855  25.1510930
   7.8057903  63.0551672  44.7304153   7.4005920  63.1625175  43.8698816
   8.7274235  63.2721663  44.5899343  94.8192883  43.2254505  49.2246580
  93.9101887  42.9354954  49.3001795  94.9832821  43.2564640  48.2821226
 100.9900093  96.6891861  44.3073511 101.7677593  97.0323372  43.8673639
 100.3200054  96.6637039  43.6242056  21.3558221  47.6318693  56.8112326
  21.3223553  48.4174728  57.3570633  22.2544575  47.6067114  56.4825201
  91.3062286  94.3171310  47.6693296  90.6984901  94.5157337  46.9569778
  91.8187428  93.5756493  47.3471975  93.5437679  50.3477430  91.0795212
  92.9520798  51.0647011  90.8512497  92.9989815  49.5623207  91.0290909
  73.9297056  70.1716995  33.0971074  73.6413336  69.3483257  32.7032399
  74.0001822  69.9782848  34.0319109 107.6051998  63.0969381  48.6700249
 106.8022442  63.5709524  48.4536648 107.7441120  63.2733107  49.6005249
  98.7740517  76.3269615  53.9926386  99.2485905  76.0453844  53.2104874
  99.4527340  76.4334726  54.6591759   4.3736812  53.8847589  68.8663101
   3.5816813  54.0060329  68.3426094   4.9845010  53.4413528  68.2776451
  84.4288445  69.6105289  78.9756107  84.0223312  70.2733088  78.4173107
  83.6915588  69.1460752  79.3717337  91.4628410  88.4461021  46.9986773
  91.4513969  88.2888222  47.9428005  91.7609406  89.3513966  46.9102716
  19.4763196  65.9102678  41.2377787  20.2120161  65.3821182  40.9278774
  19.0642071  65.3732061  41.9145060  99.7892189  89.3620205  44.6887875
 100.3215313  88.9666367  43.9984655  99.7049713  90.2797985  44.4302750
   5.2872139  86.8747997  34.3538880   4.7785851  86.9631386  33.5478306
   4.6330708  86.7102909  35.0330520 116.2345123  42.4424744  58.8046408
 116.0160732  43.0670977  59.4962740 115.4045582  42.0117188  58.6000586
 100.9685802  72.9202318  49.6190119 101.4254093  72.9255581  50.4601526
 100.2715492  72.2735023  49.7291040 100.6153297  83.8713646  52.7649117
 100.8704662  84.0416050  53.6716413 101.1630154  84.4614601  52.2471666
 115.2641296  97.4416924  59.2443800 114.5832253  97.8245354  59.7975779
 115.2209568  97.9428387  58.4299946  41.3829422  91.5383625  41.7130327
  40.6433249  90.9351635  41.6399193  41.7331982  91.5967083  40.8241320
 110.3136158  83.4212780  73.4114885 110.4038906  82.9935074  74.2630100
 109.3749714  83.5879803  73.3255053   5.9685284  84.7986221  30.6067348
   6.4800030  85.0205231  31.3848019   5.1120329  84.5418262  30.9483528
   2.8100517  48.9156866  53.1614351   3.2761586  48.0810452  53.1129408
   1.9805937  48.7532568  52.7121592   9.7431308  60.5432558  80.1308441
   9.2082119  61.2802362  80.4257298   9.3234044  59.7736883  80.5153179
  20.9700799  86.3348770  18.6656892  20.8886886  86.5652657  19.5911777
  20.3641772  85.6034565  18.5467613 103.8585472  96.0948277  49.6701956
 104.6698284  96.3515568  49.2318583 103.9986706  95.1807213  49.9171829
 112.9489803  56.8439770  45.6702757 113.5019112  56.5476418  44.9473047
 112.4114799  56.0825682  45.8883953  70.5894899  82.0253372  67.1252203
  71.1789989  81.3938141  67.5373936  70.6013823  81.7934132  66.1966228
 106.8653774  91.2691021  51.7926550 106.3113785  90.9266949  51.0911798
 107.4945259  90.5685139  51.9645882  19.4904876  80.3762531  76.5728903
  19.4934666  81.2740135  76.9049215  18.5862398  80.2257919  76.2973309
   3.9193735  68.6849737  62.2470427   3.8629705  69.2764616  62.9975080
   3.0163741  68.5991335  61.9413376 111.6467762  82.3465347  47.1979666
 112.4903584  82.0282173  46.8765974 111.7998219  83.2699013  47.3984766
  23.6144137  59.3807793  52.1597433  24.4298363  58.9352465  51.9299364
  23.0094743  58.6732388  52.3826027  88.7841702  86.8322277  48.1259012
  89.6910763  86.9769669  48.3957434  88.8058853  86.0031414  47.6480150
 106.7755413  88.6969471  53.7319994 105.9022713  89.0374756  53.5379219
 107.0944500  88.3635521  52.8933239 112.6635551  85.3570271  68.8021612
 112.4020004  86.0463333  69.4126320 111.9972038  84.6780205  68.9078188
  95.6601715  49.4921589  49.3731451  95.6468773  48.6162138  49.7588587
  96.4002037  49.9285269  49.7952461 109.1314316  65.1795483  66.0494852
 109.4294071  65.6604528  65.2773571 109.8548412  65.2539062  66.6718864
  81.3836479  82.7121735  54.5700359  80.6196594  82.4632072  55.0902081
  81.1961651  83.6053658  54.2814302   9.9914682  99.0320587  60.3675699
  10.2543604  98.7059021  59.5069027  10.6395793  98.6672592  60.9701538
 107.1876049  99.9289513  53.7235498 107.9902267 100.0425148  53.2145071
 107.1553326  98.9914227  53.9138985  14.4485152  89.5423222  76.7135572
  13.6618257  90.0442982  76.5005445  14.3211234  89.2718220  77.6228619
 107.8386307 106.4262009  88.5560226 108.6040306 106.5034199  87.9864311
 107.2569466 105.8218193  88.0949402  58.5411930   6.5444702  58.5950851
  59.4135857   6.2051642  58.3949995  58.5921478   7.4764121  58.3826733
 108.6274529  57.2329712  30.3805542 108.9682865  56.8109846  31.1692190
 109.1754055  58.0098104  30.2687144   0.5385773 106.3324070  31.6540003
   1.0319945 106.3168049  30.8339214  -0.3424887 106.0498428  31.4088225
  65.6664276  98.2781124  29.9835467  65.1310587  98.0305672  29.2296672
  65.2539349  97.8361893  30.7256961  92.1276474  46.3164330  40.8994389
  92.3352909  47.1305418  41.3580704  91.4413548  46.5598488  40.2781725
  87.7474213   6.4963531  36.0042500  88.2798100   5.8824277  35.4983974
  87.2536850   6.9845247  35.3453588  82.9982376  51.5756083   6.6765773
  82.6203823  52.4514771   6.7560130  82.2626972  51.0199070   6.4188826
 111.4875126  50.7381439   0.8191952 111.8854046  50.7187939   1.6895622
 111.9324493  51.4557648   0.3683338  78.7811613  93.8711262  72.4931860
  78.4136868  94.2039776  71.6744041  78.2001352  94.2127609  73.1728363
  53.5464573  92.0335674  72.2745752  52.9009628  91.6187668  71.7022896
  53.3862257  91.6475391  73.1357050  63.8292265   9.5383459  40.1703978
  64.1390419   9.9549013  40.9745932  62.9198170   9.8251677  40.0871038
  48.6007118  92.2112179  67.5715590  49.3992424  92.2844219  67.0488548
  47.9833460  92.8096104  67.1508121  45.3001881  24.0655541  65.9897232
  45.1401758  23.7347746  65.1058578  46.2279558  24.3010759  65.9930038
  50.3064203  11.8121970  18.1166101  49.4991875  12.3240268  18.0653107
  50.0525761  11.0095823  18.5722446  84.3246078  36.9908834  58.1026697
  83.9545918  36.1809945  57.7513933  83.8742924  37.1174717  58.9377928
  95.0920010   9.9496472  47.7559042  95.8209038  10.3613150  47.2917175
  94.3474388  10.5291581  47.5945807  39.3020129  96.1163616  50.0409889
  38.6378050  96.6316128  49.5831966  38.8105774  95.4091930  50.4588795
 115.2362442  21.1020470  28.5828567 115.1560402  20.1711798  28.3748055
 116.1352444  21.3248754  28.3412457  80.2548027  26.9787216  24.4916940
  79.8380566  26.8192840  25.3385305  80.7740593  26.1913896  24.3282723
  76.8667555  99.8562527  51.6526699  77.0054102  98.9285469  51.8434000
  77.7049685 100.2707100  51.8572474  50.8423853 107.6675701  85.9364128
  50.0316095 107.9862595  86.3330460  50.9164524 106.7619610  86.2374401
  54.8104095  39.9672890  46.8450212  54.0191746  40.5049896  46.8775320
  54.5663929  39.1550112  47.2887468  13.2617474  89.1462994  66.2479782
  12.7509964  88.9232826  67.0262003  14.1396475  88.8133240  66.4341307
   7.5585854  51.0675526  37.5566316   7.9058158  51.8595886  37.1463442
   8.3353060  50.5680609  37.8085184  61.1011362  14.7874904  41.3217640
  61.2654972  15.4113722  42.0288610  60.5707026  14.1011131  41.7264318
  54.8886728 103.6815262  49.7628164  54.1069603 104.2308903  49.8208046
  55.0011158 103.3309460  50.6463814  69.0011120  25.9706402  85.7660007
  69.8203802  26.4654684  85.7791138  69.1353893  25.2681470  86.4021683
   9.3872762  55.7511902  83.4267426   9.7355390  56.1469555  84.2256927
   9.5092970  56.4215946  82.7545071 113.3153629  22.0811009  44.0828180
 112.4764633  22.0253134  43.6252594 113.9656448  22.1473622  43.3835506
  20.0431633 108.0581665  46.4773035  20.8610177 107.6626015  46.1758518
  20.2209449 108.3160114  47.3818111  85.4705811  18.1756222  24.5654631
  85.6462955  18.2031024  25.5059958  86.2903786  17.8695917  24.1774917
  13.8214540  82.0346928  46.5049934  13.8361335  81.8430138  45.5672979
  14.6041322  81.6047192  46.8496323  59.3656445  -0.0762813  52.4619150
  60.2544785  -0.1890885  52.1250486  59.1994762   0.8635844  52.3893070
  50.8095932  92.1439838  41.7573881  51.6834211  92.1782017  42.1466112
  50.2427530  91.8427372  42.4674416  76.2817717   9.5868206  13.1370580
  76.6361427   9.7658122  14.0080428  75.6427145   8.8881540  13.2774258
  32.5180364  86.4888477  19.0587044  32.3902202  87.4252033  18.9065719
  33.2943559  86.4406204  19.6165860  62.7102995  15.3879988  80.6835175
  61.8551397  15.8180380  80.6838322  63.3400583  16.1072385  80.6352997
  82.6883125   4.9127027  10.4809499  82.6262379   5.8179665  10.1761961
  82.8882599   4.4078010   9.6927077  27.5937915 100.5358696  26.5359783
  28.0371213 100.9443665  25.7924557  27.4547958 101.2524796  27.1551538
  93.2538605  22.1853662  34.6189809  93.0469322  21.9394612  33.7173462
  93.3409595  23.1382513  34.5933795  85.7038498  36.2079120  33.2281590
  85.4896545  37.1165347  33.4397149  84.9525928  35.8959627  32.7236509
  65.1152372  37.8385520  53.3790112  65.5045319  37.0182204  53.0761242
  65.4594946  38.5021234  52.7811861  78.9269304  46.8492699  38.3939600
  77.9776812  46.8921232  38.2785773  79.2799282  46.9338751  37.5082564
  68.1820250  89.4994164  50.1147127  67.5298405  90.0091648  49.6340418
  67.9184771  88.5886383  49.9833918 112.9950714   6.2804979  84.4968700
 113.6418438   6.9628972  84.6764469 113.3821964   5.7635224  83.7903976
  91.9904709  23.8655591  19.4747567  91.1905098  23.9456463  19.9942648
  92.1355534  24.7432971  19.1215432  60.9808064   7.0378125  60.3860807
  60.5320549   7.4828243  61.1049795  60.7108879   7.5165153  59.6023607
  38.8491535  94.7742081  30.5540252  39.6845222  94.5569229  30.1402855
  38.2384324  94.8723221  29.8235273  58.7028885  10.1869774  81.7309189
  57.9769611  10.1225805  82.3514938  59.0989304  11.0391271  81.9131947
 104.3041039   9.0563333  42.0103359 104.5940876   9.3151778  41.1356115
 104.9406528   9.4573665  42.6021242  48.2208109  22.2192407  63.8185453
  48.9490509  21.7779016  63.3813715  48.4636402  22.2222471  64.7444248
 112.1274471   2.9464740  41.1248112 112.5018597   2.3494047  41.7725420
 111.3394165   2.5001308  40.8149481  82.4903965  30.9015703  52.6470518
  81.7088223  31.3282323  52.9982519  82.5917721  30.1121879  53.1788683
  12.8186178  97.2955894  43.7162256  13.1870425  96.5573788  44.2015505
  13.4519553  97.4634743  43.0184221  92.9998779  13.3670211  68.8740349
  93.0361652  12.9187727  68.0290556  93.8762569  13.7347543  68.9879084
  70.9018898  28.9690208  34.2277288  70.1809359  28.3573794  34.0782166
  70.9592581  29.4744349  33.4168649  60.3454733 101.6186523  55.5861092
  60.5390120 100.6949615  55.4262161  59.5242834 101.7754841  55.1199675
 114.4967365  37.3065734  56.3047552 114.6942329  36.8370342  57.1151638
 114.1046429  36.6454172  55.7343483  79.7160482  31.0088873  56.3358879
  80.3260517  30.7242870  57.0164204  78.9308071  31.2750793  56.8141842
   3.3998629   9.1087347  47.2157526   3.1071699   9.4366950  48.0660534
   4.3393561   9.2912394  47.1991348 101.0519695  23.4894943  52.2844982
 101.2198925  24.1092086  51.5745783 100.2839088  22.9967070  51.9955921
  85.8272076  12.0738411  48.5980654  86.0840702  12.9959309  48.5962105
  85.8375740  11.8241775  49.5220709  87.9195881  36.7850924  48.8619375
  88.4608936  36.7526150  48.0731630  88.4360600  37.2949862  49.4860315
  56.0481596  10.4953635  23.4292889  55.9155321  10.0365412  22.5997567
  55.5564642  11.3109779  23.3331513  86.4698029  33.3184409  45.7278061
  86.9585228  33.6253238  46.4914894  86.1254978  34.1166735  45.3271770
  43.0947590  28.8124871  71.9457245  43.2504654  28.0045962  72.4349022
  42.1793938  28.7540960  71.6719866  19.8670089 103.2265759  56.1240053
  20.0120902 102.5202084  55.4945421  20.6287026 103.7974358  56.0231686
  85.6918716  14.0706754  73.4593773  85.0372982  13.6323822  74.0031338
  85.2580833  14.8694849  73.1594372  69.4041777  31.2134862  54.5355129
  68.6271524  30.6734562  54.6798325  70.1216078  30.7077885  54.9173498
  61.7961216  92.5080395  34.8626471  61.4611053  93.2256889  35.4002047
  61.1072254  91.8441677  34.8931146  76.1840105  27.3788142  12.3595726
  76.9591188  27.0952821  11.8747592  76.5206814  27.9943061  13.0107665
  92.3606586  31.9496942  83.5237312  92.1429729  31.1108136  83.1173801
  93.0111027  31.7309546  84.1910362  78.2203054  26.1527348  63.9546585
  77.2736597  26.2634110  64.0432596  78.4112740  25.3399563  64.4227934
  38.9728260 102.9842567  57.2286701  39.3310046 102.1066475  57.3619080
  39.2599726 103.2291317  56.3490057  83.5958481  16.9921291  79.6700764
  83.2955456  17.8305793  79.3192816  82.8540993  16.6663229  80.1798630
  76.2103367   2.3786309  57.7505589  76.8826532   3.0343029  57.5653124
  75.7823849   2.2295818  56.9074202 115.9414101  63.8209915  93.6070824
 115.0702000  64.1852427  93.7637711 115.8296967  62.8767967  93.7177467
  36.5690374  15.3074181  76.3669348  35.7448912  15.7939863  76.3832808
  36.4285445  14.6201479  75.7156658  61.8267107  24.2727661  73.5882854
  61.9111919  24.4579744  74.5235920  62.7230644  24.3109512  73.2546425
  69.0536737  25.7068491  19.8002732  69.0392828  25.9264231  18.8687086
  68.2459116  25.2133775  19.9425399  81.6688251 100.4021645  43.7940931
  81.5393829 101.1238670  44.4094181  81.6770077 100.8201313  42.9330063
  31.3287902 105.2601337  24.1185093  31.5602827 104.3421173  24.2595840
  30.7430553 105.4737759  24.8448014 112.5543118   0.5411612  30.4207635
 112.9376125   0.5083674  29.5442724 112.7422047  -0.3188479  30.7966757
 103.3943367  31.7196703  37.4612951 103.4181404  31.3578248  36.5754414
 102.6791191  31.2515759  37.8920841 108.2327080   7.4907273  20.3657436
 109.0105915   7.2769332  19.8505545 107.5943851   6.8190575  20.1256728
  63.7812328  92.9037571  55.3701639  64.1712284  92.0469952  55.1966763
  63.9978218  93.0847263  56.2848091 110.3395081  66.5556049  18.6912024
 110.5924416  66.9376421  19.5316231 109.5958424  65.9900331  18.8993156
  95.8455753  33.9935064  51.4177895  95.4323769  33.7110496  50.6018782
  96.7693329  33.7673879  51.3092422  21.1448741 108.5362339  59.8541594
  21.2238264 108.8028431  58.9382362  21.2209964 109.3523121  60.3485775
  60.5368233   4.8164797  50.6436396  60.4363298   5.6433982  50.1721096
  60.1965666   4.1546142  50.0416517  40.0294924   6.2273997  82.1314907
  39.0752268   6.2955290  82.1626472  40.2966118   6.1838406  83.0496311
  50.3786659  95.0036144  47.1285868  50.0155830  95.2376461  46.2743998
  50.9810972  95.7177830  47.3365784  56.2385798   9.1251510  71.6476583
  57.0056677   9.0362799  72.2132587  55.6282473   8.4598058  71.9655323
  97.3047066  57.4404192  48.7408972  97.9032040  57.8505421  49.3652630
  96.6750050  56.9694471  49.2866850  59.1338539  27.4909854  73.2425547
  59.2712545  26.8119502  72.5820494  59.1316938  27.0184588  74.0749884
  78.6671400   7.1477091  68.4213114  78.5969305   6.6149288  69.2134237
  77.7960968   7.5289893  68.3111238  78.9739132   9.7906297  62.2305346
  79.4086599   9.2782372  62.9122114  79.6003389  10.4811561  62.0137501
 111.4616013 104.9620247  39.2791653 112.3206806 105.0477505  39.6925139
 111.5010929 104.1252804  38.8159776  89.9248791   1.7367198  32.2312117
  90.4602528   2.1078113  31.5298557  89.0798950   1.5580368  31.8185401
  88.0274582  25.7145286  64.8455763  88.0630112  25.6036139  65.7956648
  87.2543144  25.2190852  64.5753622  73.2314491  14.5111537  38.6979008
  72.4859571  14.1281772  38.2355118  72.9244518  14.6207726  39.5978832
  95.5718899   8.7053156  51.6793776  95.7152081   7.7829313  51.4674807
  96.1083698   8.8585550  52.4571466  89.2153835   5.8729166  51.3015413
  89.3589211   6.2830782  50.4486656  89.5743465   4.9906793  51.2064791
  98.9464474  45.2779198  41.0678196  99.8531818  45.5637360  41.1789894
  98.9698887  44.3359327  41.2361813  92.7699566  42.3309565  67.6570654
  92.6661777  42.2723961  68.6068201  93.6804485  42.0809603  67.4997520
  15.4053044  28.8979220  46.9250965  15.8239245  29.2298126  46.1308432
  15.0773883  29.6805930  47.3679638  62.3431635  11.6078627  36.8141103
  61.5055513  11.6741812  37.2726226  62.2279215  10.8746946  36.2096143
  82.3609829  64.4933844  26.1623311  82.8724003  65.0237513  25.5512643
  82.3493576  65.0046158  26.9714928  76.3499212   4.6202153  36.8154049
  76.2246943   5.5644095  36.7202902  76.3705969   4.2896765  35.9173250
 100.9683990  53.1629562  83.7082577 100.9223557  53.9862728  83.2221889
 101.7312145  52.7128553  83.3452797  88.2353687  22.9204559  70.2711058
  88.9945602  23.4357119  70.5438375  88.5054111  22.5133467  69.4479561
  43.0545616 104.4044971  40.3519678  42.4490023 105.1146412  40.5646563
  42.4914789 103.6923790  40.0485611  12.2728062  25.4997468  68.6819935
  12.0704639  26.3771749  68.3573246  11.8488967  25.4578853  69.5391893
  89.8585033   9.4526321  34.5585656  89.6990585   9.4291401  35.5021000
  89.1013908   9.9150610  34.1991591  71.1990356 107.1438313  58.4175062
  70.8638334 107.9691696  58.0672455  71.8586588 106.8645096  57.7826023
  54.7981596 108.7829018  22.4619627  54.7914839 107.8633881  22.1961260
  54.7423601 109.2702675  21.6400146  58.2428741  10.0835025  78.4301186
  59.0216255  10.0682557  78.9864826  58.0757999  11.0135520  78.2773876
 109.4712353  57.2832012  68.2852221 110.2344227  57.5863838  67.7934361
 109.5706177  56.3317776  68.3190870  55.3120327  36.5266132  46.3373470
  55.9638166  37.0659757  45.8895731  54.6908665  36.2825537  45.6511831
 112.6899052  13.7266552  34.3542981 113.5686684  14.0444303  34.1468406
 112.1163464  14.1956389  33.7482405  63.5989141  17.2190249  29.6423960
  64.2397881  17.7556300  30.1088381  64.1128206  16.7485321  28.9860654
  87.3128510   2.6652539  78.4242773  86.3683033   2.7923492  78.5132122
  87.4146938   2.1988976  77.5945950  89.8710918  24.3347502  38.4645820
  90.3122902  24.9313664  39.0692496  90.5811596  23.8406134  38.0548763
  96.8780899  74.0911150  54.2985249  97.5204468  73.6162186  54.8258495
  97.3459148  74.8687935  53.9942408  75.3479862  42.0342016  30.1134396
  74.5525122  41.6422033  30.4737020  75.0707769  42.8961134  29.8028135
  71.9157600  45.8586884  41.7413664  71.4035654  46.6465855  41.5593910
  72.4464989  45.7311249  40.9550571 100.9855080  32.4765277  54.5208883
 101.2981892  32.1546054  53.6754084 101.7316246  32.9512286  54.8872328
  83.1370449  70.2255297  37.7937508  83.6590958  71.0274410  37.8188872
  82.9451370  70.0936747  36.8653011  87.7296543  19.6060574  34.8393798
  87.0053005  19.4029474  34.2475200  87.4541855  20.4044271  35.2898860
  86.6491413  22.5982475  50.5627298  85.9863663  22.0230365  50.1805067
  86.6886806  22.3394513  51.4834309  82.5317192  22.4474883  34.9789953
  82.2605228  23.3120513  34.6704268  82.7447891  21.9642258  34.1806912
 105.9087563  11.7946541  54.7792244 106.7916012  11.9112837  54.4282055
 106.0352802  11.7173231  55.7248688  36.5782928   4.8546562  46.3476658
  36.1200595   5.0282598  45.5254030  36.7365098   3.9106622  46.3390064
  68.4024048  17.4060094  27.1573639  68.8041830  16.7742753  27.7537823
  68.8066006  18.2427526  27.3869658  29.2537665  56.3813686   6.6557884
  30.1757312  56.1838055   6.4909244  29.2439890  57.3130083   6.8753076
  93.4543991  14.1470206  38.7642765  92.8212833  13.4296417  38.7367845
  94.3078709  13.7137461  38.7544990  61.3880968  27.8814697  88.9405823
  61.0645342  26.9815373  88.8998413  61.9038677  27.9869819  88.1411648
  38.9317775 104.7517776  63.9752960  38.7834954 103.8895702  63.5869217
  38.0654955 105.1585579  63.9932966  61.9008255   7.9281521  71.8660688
  61.3120079   8.6233205  72.1597862  62.5855589   8.3848184  71.3773680
  82.5672722  18.4521699  45.8651972  82.7781677  18.8653874  45.0279331
  82.8360939  17.5399435  45.7565165  78.8967180  90.1270294  38.8570142
  78.2557678  89.4196796  38.7858820  78.9663839  90.4773140  37.9689360
  95.8805275  41.0766506  73.0083609  95.0480652  40.8277273  72.6067495
  96.4358807  41.3299942  72.2710466 106.0282707  23.9866686  32.1547532
 105.1079178  23.7507844  32.0384145 106.4640236  23.1587148  32.3568511
  98.2993221  40.9774780  56.8277025  97.5420189  40.8534527  57.3998499
  97.9242992  41.0817909  55.9532261 107.3345184  90.2885246   3.0361632
 106.7030239  90.5884933   2.3823580 106.7981911  90.0248432   3.7838644
  65.5620909  23.9361501  81.9526386  64.7391939  24.0868521  82.4177933
  66.2272072  23.9224339  82.6408672  75.1470184  10.6046546  52.7694321
  75.3303432  10.0697124  51.9971228  74.7087526  11.3822174  52.4236679
   4.1591960  26.0240197  73.6855459   4.7614586  26.5973115  74.1597319
   4.2391524  26.2962580  72.7713680  59.2395258  20.4803061  65.6149960
  58.2983875  20.5421782  65.7782888  59.6321297  21.0849285  66.2446976
  42.3436165  40.9547949  46.6261005  43.1904507  40.5578375  46.4223194
  42.3142624  40.9787178  47.5825500  81.0578251  28.6518478  44.3775558
  81.9772339  28.8090324  44.1626167  80.5713367  29.0577340  43.6600494
  71.0539675  44.2637157  29.0589976  71.5321636  43.4848118  28.7746263
  70.7142496  44.0337467  29.9238300   1.2894598  17.7011371  29.6704793
   0.4305491  17.9909813  29.3630791   1.1352082  17.4041772  30.5672812
  81.3082981  25.5827665  80.9512138  81.6312408  24.9543428  80.3054333
  80.9409142  25.0410652  81.6496468  28.1862330  37.6257801  41.9447184
  29.0519166  37.3292708  41.6638184  27.6243591  36.8579817  41.8397522
  87.5055790  41.1533022  38.4171295  87.6705074  40.8844566  39.3208742
  87.7549553  42.0771265  38.3927655  76.2932968  36.3343954  49.2476463
  77.0682621  35.8682418  49.5612717  76.1893559  36.0438037  48.3415651
  91.9703102  15.8949149  36.7838049  92.5880146  15.4094684  37.3306298
  91.1371613  15.8333683  37.2510409  70.4070330  87.8698730  38.5649061
  71.0821247  87.7824211  39.2378378  70.0771904  88.7621498  38.6710763
  44.6575546  99.9462128  31.6130590  44.5615196  99.0045929  31.7557359
  45.5918550 100.0689316  31.4449692  96.2250233  24.5700622  61.8741560
  95.3904724  24.1388273  61.6903305  95.9867191  25.4725981  62.0859814
  81.2075329  21.7483401  76.0174942  80.5654430  21.8274236  76.7229700
  80.6809235  21.6498303  75.2242708   2.4342065  54.4894600  19.2130089
   1.5723474  54.1466093  18.9766097   3.0516091  53.8461018  18.8649631
  93.3056736  21.9298172  20.3527904  92.5715160  22.4833179  20.0865459
  92.9168320  21.0660505  20.4903984  64.6458197  78.7652254  49.3097496
  65.4152679  78.6655903  49.8703289  64.3622828  77.8687048  49.1306162
  76.2406588   2.3554501  29.0259409  75.7747984   1.8144003  28.3883905
  77.1582651   2.0996511  28.9321184  96.9154549  27.4641323  62.5500870
  97.2597980  26.7691231  61.9891691  96.0125256  27.5840831  62.2558928
  80.7436657   2.0000140  51.9166613  80.8220863   1.4438909  51.1415434
  79.8232365   1.9296218  52.1698141 102.1172047  19.1475439  18.1549609
 101.5218735  19.3046951  17.4220812 101.5664482  18.7514734  18.8302517
  70.2362585  46.0328341   7.9742974  69.7280455  45.3105068   7.6052392
  69.6964598  46.8083096   7.8210562 103.0970001  13.0582488  70.3914881
 103.5700321  12.2324777  70.2886868 102.2926712  12.8178751  70.8513927
  97.4331570  30.8706355  46.6861773  96.8175220  30.4699063  46.0724545
  97.3983765  31.8056202  46.4841223  80.1551247  33.8816118  47.3341131
  80.8093071  34.2498660  47.9279804  80.4028797  34.2117071  46.4704657
  87.1113682  25.1660323  45.4247570  86.2841511  24.8629594  45.0504684
  87.1532154  26.0939240  45.1934576  97.8521347   8.3099931  49.5347977
  97.2188950   7.6823002  49.8829937  97.7192211   8.2836878  48.5872316
  95.2177429  43.9984512  57.2845650  95.3075981  44.5852184  58.0354738
  94.4216728  43.4985542  57.4651337  74.6870327  94.5932388  48.6795425
  75.0308800  94.6058559  49.5727634  74.8112631  93.6900806  48.3878136
  74.1177464   1.2950128  39.7721720  74.0331268   1.9515416  40.4635763
  73.8970137   1.7645083  38.9677572  54.8452044  23.3587074  41.7006683
  54.8649025  24.2807102  41.9570923  54.8747778  22.8791714  42.5285625
  93.2042980   5.2302325  53.6420870  92.3610401   4.8364764  53.8659191
  93.2672119   5.9995300  54.2081785  83.0185795  60.6081390  33.8714147
  82.7227497  60.3339815  34.7394919  82.2619629  60.4624891  33.3034730
  73.0910921  31.9203639  39.1363692  73.3852863  31.0306358  38.9412737
  72.1690178  31.8211746  39.3733811  10.3022420   3.1591967  31.6611791
   9.7650510   2.6395202  32.2591686  11.1287749   3.2829410  32.1278286
 112.3045254  30.5930638  25.1803660 113.2569981  30.5373955  25.2573633
 112.1562672  31.2886858  24.5397711  82.7420139   3.4984782  30.6649208
  82.9222393   3.4988001  29.7248411  82.4618816   2.6030931  30.8547831
 106.4749908  29.3799329  62.4221373 106.6102219  28.4498978  62.2405386
 106.4654255  29.4385099  63.3774948   1.3300057  19.9080551  33.4773016
   1.3656646  20.4696655  32.7029920   0.4724105  19.4858038  33.4276295
  96.0700130  45.8747911  49.3805599  95.6509972  45.0150442  49.3419600
  95.7406998  46.2656164  50.1899004  83.8381100  42.9561138  38.0742359
  82.9029560  42.9148149  37.8742075  83.9036751  43.5979462  38.7813330
  18.0576181   1.7868423  23.7777424  18.6117339   2.5562131  23.9091086
  18.2071459   1.2484649  24.5549321  81.8094444  23.5966706  57.3394489
  81.5501404  22.7718163  57.7500677  82.5492859  23.9030766  57.8638363
  93.5061169  20.4527807  44.7214079  93.1590462  21.1893392  44.2181635
  93.9275360  19.8939633  44.0684414  28.3854008  34.0634561  63.3879948
  28.0930066  33.6228848  62.5900984  27.5829935  34.2083263  63.8893795
 110.6382561  14.4457412  29.6886969 111.3596725  14.3973804  30.3159595
 110.9431076  15.0589120  29.0198755  79.6838379  13.0793083  44.9313402
  80.5027771  12.8488147  45.3700352  79.8639250  12.9433310  44.0011215
  91.8861103  37.1918917  55.8569431  92.4501038  37.9470253  56.0240221
  92.3094082  36.7326164  55.1316071  57.6679277  44.4438648  41.0855341
  57.5748682  43.6853552  41.6619301  57.1539259  44.2196894  40.3097916
  12.3239028  40.4153490  78.6180830  12.9816532  39.8917603  78.1604290
  12.7163243  40.6004095  79.4713068  84.1266632  27.8057003  60.4620743
  84.3884182  28.2302451  61.2790680  84.5217037  28.3431959  59.7755861
  30.2084303  86.2762165  42.8076839  29.7170401  85.6618500  42.2624063
  30.8110094  85.7246399  43.3065701  93.9953136  20.7421041  63.7796116
  94.5663071  20.7465005  64.5478392  93.7992764  19.8168635  63.6321831
  97.1803379  40.1688671  65.9381485  96.2730789  40.0943375  66.2340498
  97.6604176  40.4675198  66.7105246  83.6755466   2.5910935  62.2567081
  83.2236099   3.3424658  62.6406717  84.0215492   2.1099640  63.0083942
  94.9938011  49.0647221  53.2105780  94.9704456  49.9831867  52.9420471
  94.5705986  49.0553474  54.0690851 102.9798412  17.6064491  63.7851906
 102.7635098  16.9629073  63.1104374 102.8277111  18.4534025  63.3659554
 109.6309185   6.9099075  61.4957237 110.0699520   6.1914223  61.0404634
 110.2615833   7.6295739  61.4717197  84.5142937  25.1209092  61.7456865
  84.3910217  25.8865428  61.1845779  83.7373352  25.1059628  62.3045683
  61.3973045   0.5390141  45.3163099  61.1960697  -0.3929318  45.4012442
  62.0771217   0.5769082  44.6435165  75.2270031   7.4144709  62.1381092
  74.5678234   7.9971415  61.7610073  75.1400375   7.5346327  63.0837488
 109.2680454  34.0751791  70.2704716 109.0764904  33.6053824  69.4587851
 109.2510414  34.9994087  70.0219965  79.5526743   1.4226942  59.7108316
  79.0481043   1.1302435  60.4698563  80.3449440   0.8858353  59.7286081
  58.8431168   2.0115660  78.3869410  58.8497829   2.9666001  78.4509563
  58.2947540   1.8264401  77.6245403  60.3991175  72.9651642   1.9328696
  60.0367546  73.1492710   2.7994895  59.6579838  72.6270151   1.4302671
  90.3517437  39.5630980  45.4165888  91.0427284  40.0374317  44.9542189
  89.5777035  40.1188374  45.3257942 113.6600685  40.8380795  71.0240126
 113.7769699  41.7789888  71.1553764 113.3134937  40.7615948  70.1350403
  75.5274487  16.8663585  54.7066069  74.8475027  16.7732489  55.3738689
  75.3017759  17.6744270  54.2458153 103.2665253   6.1920327  35.2370501
 103.4214687   7.0968306  35.5082798 103.5170078   5.6677336  35.9977078
  58.6756325 105.3190899  47.0943403  59.1444540 104.5953178  46.6788960
  59.3651438 105.8686256  47.4669170  85.0804520  46.7694759  48.9655972
  85.6718445  47.0564270  49.6613979  84.3594456  46.3400507  49.4260168
  84.9164772  28.3843279  63.1672716  84.7383404  27.6081038  63.6982822
  85.4654026  28.9353728  63.7251806  68.7983894  79.0096140   3.3738753
  68.8735199  78.1009436   3.0824965  69.3377018  79.5043421   2.7569312
  92.3249531  50.2615976  44.2798090  92.9429817  50.9407377  44.5500612
  91.6775990  50.2327871  44.9843216 102.8598404  29.0200090  26.4955473
 103.7863731  29.0048695  26.7354083 102.4426842  29.5381832  27.1838140
  67.5857735  42.1467018  18.9989305  67.6694202  41.2811422  19.3989789
  66.6416883  42.2856379  18.9238656  80.0880718  37.1558619  13.6253142
  79.5522308  37.4487257  12.8882003  80.8348942  36.7162824  13.2187927
 110.0040340   4.8739034  24.4195175 109.5843697   4.6950424  25.2610135
 110.9156036   5.0631678  24.6419144  83.3655357  17.3709679  39.4352245
  83.7388039  16.9256592  38.6745644  82.4685287  17.5796223  39.1742969
 105.0288773  27.1396613  53.3672953 105.1049423  27.9461384  52.8573561
 105.2041245  26.4405632  52.7373886  70.4276562  21.2366915  84.6934032
  71.0708427  21.8478847  85.0525570  70.8595419  20.8566332  83.9283848
   2.9131204  24.5194483  63.8713884   3.2059675  23.6137986  63.7700558
   3.4400737  24.8622203  64.5932341  94.9390030  45.5150509  18.9715064
  95.6105328  44.9139452  19.2939234  94.7342396  46.0709620  19.7233474
  96.1658001  14.4750917  66.4964437  95.6638336  13.6973548  66.2527418
  96.8213558  14.5635569  65.8045959  93.7508392 103.9087677  19.7080088
  93.0181599 103.3012486  19.6063840  94.4036293 103.4157372  20.2050233
 105.6646824  11.5908325  62.6142168 105.1355839  12.1782339  62.0745420
 105.9111500  10.8794534  62.0231009  30.1719403  92.9107761  35.6695533
  30.2673244  92.0399475  36.0553026  29.6114445  92.7742863  34.9057150
   2.8170761 100.0210762  57.0840597   2.2610818 100.1572609  56.3168859
   2.4058186 100.5424023  57.7734947  93.2781124   3.3708745  46.7028761
  92.8362179   2.5318146  46.5727377  92.8852272   3.7274599  47.4995661
  71.9353247  45.5516100  49.7805834  71.2760878  45.4578686  49.0929365
  72.7594137  45.3121805  49.3565750  81.3979912  73.6938667  10.7608926
  80.4624367  73.8197899  10.6024539  81.6377735  72.9535007  10.2035832
  55.8368635  98.4327888  45.4784727  54.8828220  98.3791161  45.4222870
  56.1477566  97.6450062  45.0323963   8.0153251  16.4100254  32.8044438
   7.7772075  16.4828086  31.8801951   7.6117259  15.5910885  33.0919862
  48.9802313 105.8864212  33.1256199  48.2483435 105.4201603  33.5295725
  49.6405458 105.9401894  33.8165045 107.5335312  34.5376992  44.8061085
 107.6535320  33.9028335  44.0998697 106.6904163  34.9496412  44.6171570
  66.7178917 103.5967636  40.4393816  66.5122700 103.2729816  41.3163757
  67.4620104 103.0653954  40.1562548  70.2670193  97.9460144  48.8098192
  70.9063339  98.2326984  49.4619894  70.7465410  97.9612160  47.9815340
  89.7540379  28.5491776  38.4829974  89.3664742  29.3943739  38.2556987
  90.6888580  28.6599588  38.3096075 110.6065941 106.5420437  36.5520382
 110.0102425 105.9728146  36.0656500 111.2428379 105.9436512  36.9436240
  72.4177217  98.9026070  57.0978880  72.1871662  98.3498573  56.3511992
  73.2323885  98.5268307  57.4315596  42.8916407  10.4474747  26.9852376
  42.8023434   9.5179623  27.1956325  42.8833914  10.4783726  26.0285735
  95.8322906   2.3588754  45.3286648  95.0848103   2.9287583  45.5095911
  96.1358833   2.0804709  46.1926985  96.7398930  37.9552650  47.2102261
  97.1366405  37.8624105  48.0763674  97.4186611  38.3718944  46.6792727
  75.3910923  39.2910337  12.1696901  75.7180643  39.6307635  13.0026984
  75.6359911  38.3657146  12.1757162  28.2105184 109.0799713  69.2173481
  28.3560371 108.7137508  70.0896645  27.6426721 109.8359489  69.3666363
   1.3579212  50.0277853  36.5481925   1.8962638  50.2615261  35.7920289
   1.9257963  50.1816273  37.3032308  82.4939919   3.1556025  58.7132549
  82.6306725   4.1025731  58.7414503  81.7352486   3.0400524  58.1412554
  22.7288103  54.5025492  68.1409979  22.0254993  54.0520430  67.6734209
  23.4186864  54.6134472  67.4867773  63.7699080  27.7444434  39.7251010
  63.0089760  28.0289006  39.2188430  63.9389133  28.4668922  40.3298616
  78.0836010  43.4117031  54.2258501  78.4242582  43.9866924  54.9111080
  77.1324778  43.4648943  54.3194818 100.7632065  35.7062674  24.7600770
 100.1718330  36.4534736  24.8505950 100.9179306  35.6360173  23.8180828
  38.8971257 102.6293850  54.0452147  38.7842917 102.6314545  53.0946922
  39.4474530 103.3921814  54.2227364  90.6809616  30.8413434  69.9866915
  90.0547028  30.6039858  70.6705761  90.3231812  30.4521203  69.1887379
  34.9320555  94.2521095  23.7174273  34.3822885  94.8304462  23.1887436
  34.3405747  93.9028168  24.3840432  96.5608692  48.9998341  34.4872069
  95.9841633  48.4670210  35.0347114  96.5209293  48.5869169  33.6245728
  78.0739927  10.3851104  15.2603137  78.3687115  10.4451060  16.1690342
  78.8560820  10.5743194  14.7418845 101.4928532  15.9323001  36.4027143
 101.5481091  16.8333399  36.0844278 100.9119701  15.4938519  35.7809615
 101.9274616  20.5553055  72.4521971 101.4469051  20.0757575  73.1269789
 102.5117016  19.9033070  72.0651627  15.1274478  24.5870686  54.4206285
  15.3407204  23.9098454  55.0625944  14.8611069  25.3407955  54.9471140
  10.1970851  44.0529346  85.1376152  11.0650706  44.4561958  85.1229954
   9.8339725  44.2968416  85.9890175  99.6634197  43.0200624  73.7737513
 100.1291656  42.2053337  73.9622402  99.5689678  43.0270958  72.8212500
 106.1942101  23.9160490  63.1791306 106.1542225  24.5517111  62.4645901
 105.4234600  24.1075230  63.7134600  84.8716068   3.9811006  34.1555810
  84.8901463   3.1006324  34.5306349  83.9515591   4.1288850  33.9367104
  40.1764870  52.6496172  90.5644512  39.4184041  52.7241516  91.1440945
  40.5529833  51.7942333  90.7713223 105.0973415  24.8205233  22.3463988
 105.1399040  25.2012849  23.2235765 105.9819031  24.4925237  22.1844983
  78.6519957   7.2593629  23.3100748  78.8946819   8.0140072  23.8465881
  78.2525492   7.6400775  22.5279427  72.5472116  28.7721252  26.8483829
  72.5867844  27.9184198  27.2794914  72.5191402  28.5673976  25.9137559
 101.6655350  20.8424401  48.3596039 102.2254753  20.2509832  47.8567410
 101.5436840  21.6005898  47.7881193 106.9134998  46.0720015   3.9456120
 106.0498428  46.4847040   3.9440721 106.7476082  45.1683187   3.6771652
  79.8823929  30.1790380   2.4244092  80.6891155  29.9920130   1.9443552
  79.4696665  29.3233967   2.5417447  35.3242326  95.4394913  81.9119167
  35.8777213  96.2173080  81.8420601  35.7335854  94.8010063  81.3279629
  94.2006493  16.7884266  60.0989532  93.3327961  17.0160139  60.4325342
  94.7654819  16.8024206  60.8716106  46.3004446  18.4096766  72.2909498
  45.4919863  18.7570202  71.9141436  46.0065937  17.7989423  72.9668808
  89.8013115  13.2313597  81.3851357  90.2896404  13.9786458  81.7305756
  90.4335308  12.5126600  81.3824844  90.9332085  12.4902654  41.9560146
  91.6766453  12.9872477  41.6146278  90.4606915  13.1142759  42.5069809
  91.3211536  17.3868680  78.7927675  91.4404488  16.4418411  78.8872385
  91.9579601  17.7701485  79.3959284  73.4097862  42.6824665  49.6260357
  72.5449324  42.6852274  50.0362253  73.8684893  43.4194899  50.0292921
  69.6869469 101.3795948  49.0773678  69.5071983 102.3175526  49.1418600
  70.1539040 101.1690521  49.8859835  90.5840778   2.7414733  85.3265572
  91.0510826   3.4739739  84.9246025  89.7152328   2.7622953  84.9254131
  76.7694426  20.1268339  30.7215738  76.3660860  19.3357432  31.0789347
  76.3078499  20.8464551  31.1520505  84.5261192  62.9742146  10.1639271
  83.9652348  62.9060173   9.3912739  84.4820213  63.8978910  10.4111290
 107.7235413   5.9864944   7.8079939 107.6118374   5.5431128   6.9670624
 108.0310440   5.3010607   8.4011704 113.4225559  41.8137121  55.1952362
 112.6915073  41.9062328  54.5843029 113.1623936  41.0964060  55.7731819
 105.0781250  26.3294601  28.2019162 104.9950504  25.3830171  28.0854082
 105.9864235  26.4583445  28.4750819  94.6462631 101.9499016  32.3828459
  95.3862286 101.3445282  32.3359179  94.7607803 102.4038601  33.2177353
  66.2590122  19.2630029  72.8536034  65.4564714  19.6161056  73.2376432
  66.6948938  20.0232315  72.4685192  60.1303482 105.6800270  49.8126507
  59.7084141 105.8479118  50.6552744  59.7333050 104.8655605  49.5040369
  86.1905575   3.5172018  69.5581245  86.6448021   2.7649403  69.1786575
  85.6380177   3.1423426  70.2439833  95.2034092  14.1511428  48.5315704
  95.4053593  14.3705177  49.4411421  96.0276413  14.2860973  48.0639648
  90.7538223  20.9854579  29.9114203  90.1771164  21.3362122  29.2327309
  90.1614094  20.5688572  30.5373025 103.1314087   7.3891002  44.4343090
 103.3282471   7.7166331  45.3119278 103.7689209   7.8237802  43.8678646
  95.5778885  16.8887818  62.6589775  94.9280930  17.2351253  63.2705641
  96.4167500  17.0205665  63.1007576  94.1852379  29.3284583  67.5334215
  93.6871815  28.5132718  67.4730778  93.8724422  29.7412133  68.3384228
 105.2569103  24.8690939   7.7814871 106.0640240  25.2985883   8.0649030
 104.7569370  24.7427201   8.5878950 101.4498997  17.2163343  50.1232576
 102.3954678  17.0681393  50.1363087 101.0867405  16.4909458  50.6313515
  82.8592587  29.1646242  54.6300507  83.5841751  29.5106435  55.1506376
  82.4329472  28.5294914  55.2054548  76.7839527  10.8220899  31.7578316
  76.3542223  10.5799258  32.5781465  77.1849394  11.6720867  31.9393420
  82.9952621  55.1047277  39.7286153  82.8009510  55.8939600  39.2230582
  83.9512444  55.0585365  39.7425485  84.5805550  21.4332271  49.4390297
  84.1520977  20.8896232  50.1002026  84.2686367  21.0849333  48.6037874
  29.3079686  15.5358386  59.4623327  29.0710211  15.6540227  60.3821802
  29.7815919  14.7042751  59.4419384  76.5491438  23.4163356  37.5217104
  75.7582951  23.8776922  37.8008723  76.7108822  22.7769065  38.2153988
 111.9570637  72.8730106  69.6803236 111.6838551  72.1333647  70.2230167
 112.7072620  72.5430298  69.1858149  84.6330452  32.2261572  53.6694479
  83.9199638  31.7462516  53.2482195  84.4068909  33.1480622  53.5462379
  84.8483467  22.0455790  85.4557419  84.1345119  21.4121389  85.5294037
  84.4176102  22.8643513  85.2101517  58.4754848  76.6287422  14.1723585
  58.9519262  75.9759474  13.6594296  58.5955572  77.4466801  13.6898744
  85.5329323  54.6843576  56.9879818  86.0445786  54.0210485  57.4510956
  85.8753490  54.6701097  56.0942364  10.7987928  21.7114782  29.3720198
  11.5422666  21.1679912  29.1110587  10.1542640  21.5860367  28.6755443
  49.7330809  40.7520819  92.8235435  50.2322292  41.3190699  93.4114265
  49.0605974  41.3237667  92.4531746   9.8355454  17.2095060  92.1887875
  10.0246263  18.0456376  91.7629147   9.4270056  17.4510801  93.0200291
   0.5292859  41.9260454  54.7855282   0.8966565  41.0460806  54.7022724
  -0.3926186  41.7815304  54.9986935  83.4914303  58.6404228  55.4497910
  82.8994846  58.6317825  56.2019539  83.5542107  57.7230501  55.1838541
 112.2252941  38.9962959  33.6045051 112.7913952  38.2467198  33.7886095
 111.7508602  38.7489057  32.8108144  92.8632450  27.0103931  67.4122477
  93.0444622  26.0819864  67.5587130  92.1747971  27.0180464  66.7472601
  76.9983006  26.3503098  45.0715208  77.6476192  26.0166502  44.4524193
  77.4027634  26.2302780  45.9307289   4.6256652  58.1596613  29.8237371
   4.9558502  58.0484819  28.9321947   5.3826123  57.9850483  30.3830004
  89.9070454  28.1030726  54.3518877  89.6246243  28.2039642  53.4428787
  89.1001892  27.9246140  54.8349667  17.0287800  53.6074972  35.9512711
  16.0765684  53.6933661  35.9048700  17.2240150  53.6089706  36.8883467
 115.8441448  27.9627991  17.8663933 114.9636650  27.8994393  18.2365036
 116.4224148  27.6774168  18.5737789   2.5529927  51.0329437  38.8209677
   2.4137083  51.8553591  38.3514333   3.4908372  51.0221815  39.0121841
  96.6495037  27.5826716  85.4782772  96.9358349  27.2911549  86.3438797
  96.6253376  28.5373807  85.5429459  83.2560444  35.9502745  31.7657757
  83.4713078  35.7056236  30.8657527  82.9793453  36.8646431  31.7057753
  97.8999043  35.7539749  66.8486261  98.5080433  36.1645031  66.2339211
  97.4333572  36.4872432  67.2497320 105.5298042  41.8900442   4.8411986
 105.3330421  41.3687420   5.6195086 104.7712612  41.7647648   4.2709726
  86.5678787  14.2394531  38.0555010  86.8218327  13.3970070  37.6786423
  87.2630787  14.4409657  38.6818528 106.0272503  17.5661063  46.8877554
 106.6164398  18.0833972  46.3386631 106.2833118  17.7828622  47.7842379
 110.8829021  26.5706277  17.6704311 110.1491642  26.9443679  17.1823967
 111.6283607  26.6422629  17.0742869  80.1741695  37.9497790  45.3139067
  79.5683384  37.9353762  44.5729685  79.9850512  38.7742400  45.7619381
   3.2932135  45.4363394  76.9435453   2.5200295  45.2604961  76.4073563
   3.1465164  46.3146687  77.2946072  27.1974897  61.5738440  11.3999748
  27.0249009  61.3185835  12.3062229  27.7069664  62.3810434  11.4713871
  34.5027971  54.5171642  34.3916488  33.5975385  54.4536924  34.0871668
  34.9278951  53.7330723  34.0442014  80.4382133  20.1248932  52.3952341
  80.7430077  20.7043004  53.0935335  80.0282860  20.7112455  51.7593241
  16.0084581  36.5615797  35.4083967  16.6930938  36.7190480  36.0585546
  15.6190991  37.4228382  35.2571821 115.2214241   1.5724778  13.8184762
 116.1238194   1.3705337  13.5712421 114.6866035   1.0836865  13.1929505
  71.5852404  23.1631279  51.2348270  71.3467073  22.5371599  51.9185638
  70.9065104  23.0595183  50.5678749  22.8554535  13.8555074  64.6598625
  22.0800734  13.3480382  64.4200850  23.0137658  14.4221437  63.9048147
  15.8797157  55.4965162  49.3408823  16.5937054  55.4031277  49.9715376
  16.2962997  55.8601809  48.5595751  42.8516960  43.1482649  80.1781940
  43.7888098  42.9857874  80.2861404  42.6887703  43.9498615  80.6753254
 109.4494534  32.0857000  55.9743118 109.2949200  31.2898278  55.4654551
 110.2620125  31.9121313  56.4495611  89.4591141  74.8086834  45.8369112
  89.9007320  74.8130369  46.6861391  89.8773003  74.0964270  45.3531361
  77.5710201  36.9452977  51.8384695  77.0793629  36.9046044  51.0181952
  77.7197981  37.8798437  51.9824266 101.8378544  48.7282991  38.7519264
 101.1858940  49.2835045  38.3242249 101.6216373  48.7787390  39.6830225
  89.3477726  21.9850349  83.8077545  89.8368073  21.1965919  84.0432072
  89.2539406  22.4635816  84.6314144  79.5146704 107.9510784  51.8040848
  79.0180922 107.4290657  51.1738920  80.4258919 107.8596210  51.5256214
  93.9986515  68.3562660  65.1268291  93.6003494  68.7722731  65.8913708
  93.5434628  68.7435102  64.3791151  88.5986900  13.8733995  72.3270416
  87.7180386  13.5139143  72.4340391  88.5294819  14.4554424  71.5702915
 106.4466000  31.7761159  71.7693377 106.2985802  32.1773171  70.9129763
 105.8163834  32.2060943  72.3474264  81.1539364  59.9183989  16.4134061
  81.6306114  59.1780567  16.0380280  80.2522087  59.7985363  16.1154866
  90.9474468  35.1597047  42.0659447  91.7856693  34.7052193  41.9818687
  90.4666901  34.9242640  41.2724257   4.6760285  34.6102214  60.0615454
   5.2253097  33.8799834  60.3466368   4.8046434  34.6509528  59.1139030
 108.3542252  39.8604035  58.1045771 107.7609730  40.5206394  58.4628677
 109.2092991  40.2903223  58.0882883  98.9820862  42.2892618  18.3894539
  99.3443680  42.5429630  19.2383480  99.2009544  43.0176640  17.8082860
  82.0641518  19.4040275  60.7898188  81.1684132  19.1259444  60.9810257
  81.9714260  20.2948022  60.4519463  75.6039381  46.8548536  39.7436738
  75.8598280  46.2280655  39.0669966  74.7330189  47.1508884  39.4789195
  24.6293736  44.7859383  85.4631805  24.0111160  45.1792240  86.0790634
  24.3253016  45.0732374  84.6022320 101.2309742  12.6631224  34.8651028
 102.0115089  12.4993241  34.3357873 101.4373970  12.2846735  35.7197356
   7.4409145  64.3800211  77.3257446   6.6955280  64.4030714  77.9258299
   8.0827028  64.9719286  77.7181482  15.6883049   8.8152057  15.0185812
  15.9358251   8.1380910  14.3889141  14.9943256   8.4137893  15.5415428
  98.4632874  39.0381932  45.3973293  99.1121578  39.4988656  44.8653793
  98.3853436  38.1767964  44.9872637   6.7367631  32.6354909  44.3251228
   6.1101311  32.8541374  43.6353731   7.1810079  33.4616399  44.5158005
 111.5787315  47.4198818  41.6614103 112.3725033  47.9301882  41.8218708
 111.6103268  46.7173004  42.3107290   1.8980962  12.1076465  35.4210186
   1.1198258  11.6007400  35.1895595   2.2499657  11.6666138  36.1942649
 109.0665054  20.5244565  56.2334824 109.5255184  20.3992534  55.4029036
 109.7267437  20.3415465  56.9019604 113.9184666  54.8561811  60.3632593
 113.1753540  54.4201469  60.7802534 113.6631680  54.9383068  59.4443941
  76.8553782   5.3506339  70.0017691  76.5804338   4.4934869  70.3272486
  76.0369301   5.8243519  69.8535490  93.5545635  55.1224852  39.9230218
  92.7219296  54.8357105  40.2981377  93.9261627  55.7070971  40.5836058
  88.9619446  33.3346581  34.6896601  88.3123302  33.7012863  35.2895093
  88.6400127  33.5648894  33.8181162 109.3603802  56.3862705  62.1193695
 108.8670254  55.5875301  61.9326878 110.2475643  56.1966705  61.8140888
 110.2267742  26.1834526  43.3827496 109.2933464  26.1311936  43.5881758
 110.4131126  27.1218419  43.3521271   0.5656610   8.6394525  42.9203081
   1.1707614   8.2020003  42.3213768   0.9590252   8.5234851  43.7852097
   7.0892239  28.2868314  23.1325579   6.8323278  27.6699781  22.4471903
   6.9758284  29.1493535  22.7332711  71.4734364  20.8415961  73.1846237
  70.8862448  21.5472913  72.9136419  72.2227621  20.9131718  72.5933409
 104.1352558  35.6579232  32.1585011 104.4794941  35.9023356  33.0175686
 104.9104595  35.5850434  31.6017389 105.5506325  17.1119905  53.0578184
 106.0574532  16.6966164  53.7555504 106.1546516  17.7427697  52.6660109
   1.4075340  16.5162718  32.2492099   1.4351757  16.9198179  33.1167459
   1.9561844  15.7361245  32.3303604  99.3897629  11.6844785  38.7991595
  99.1030598  12.5969267  38.8375664  98.7355232  11.2062120  39.3085313
  88.9823437  17.8080106  21.8568110  89.7775173  17.9706907  22.3642302
  88.7452316  18.6647701  21.5018845 105.2002144  28.9084125  10.1616442
 106.1176586  28.6981630  10.3357804 105.2260208  29.7744131   9.7546923
   3.5176444  36.3047671  66.4962482   2.7326268  36.7876959  66.2378693
   3.3933336  35.4304314  66.1270380 101.5805054  59.0561914  25.7651424
 101.8984795  59.7582579  26.3327980 100.7293129  58.8180733  26.1325622
 101.5481758  10.8503270  37.3005128 101.3633919   9.9276620  37.4759507
 100.8720875  11.3259661  37.7831125  60.7092905  26.2035584  48.2228470
  60.4298973  25.4212856  47.7472210  60.5600595  26.9229579  47.6093149
  72.3516703  13.5077608  16.9227791  71.5122080  13.3997452  17.3698437
  72.9836607  13.0659795  17.4899232  98.1272888  50.9057474  31.5193963
  98.3543110  50.6579924  32.4156737  98.5847473  51.7343760  31.3767910
  76.8390560  50.8302355  46.2131214  75.9958839  50.5911922  46.5980244
  77.0873356  50.0690031  45.6886101 101.9753838  50.0801992  33.3334041
 102.7693558  50.6108379  33.2680655 102.2561455  49.2835093  33.7836170
 109.8810291  33.5928297  46.1186504 109.0144444  33.8494825  45.8033848
 110.3256035  33.2489133  45.3438568  82.3315907  22.7143383  65.8087444
  82.0618153  21.7965961  65.8434582  82.4062157  22.9769087  66.7261982
  77.3305893  38.4562111  16.3938832  78.2612467  38.2585883  16.4990079
  76.9429350  37.6328707  16.0971284 104.6330166  22.8094673  58.9183235
 105.1509953  22.2823930  59.5266914 104.9163342  22.5213242  58.0506039
  36.8347764  52.0506001  35.9633374  37.3429728  52.7776432  35.6036496
  36.8298793  52.2059536  36.9078350  90.3021145  23.0735588  65.8044291
  91.0932350  22.5348997  65.8184338  90.4022408  23.6260819  65.0292349
  97.7871323   6.3748300  68.6796188  98.3427429   6.4780146  69.4521999
  98.0209827   7.1124446  68.1161785  23.1353927  17.8149426  14.6139932
  22.9119706  16.9048834  14.4187796  22.8887963  18.2967508  13.8245118
   6.9789320 108.4514713  89.8534203   7.8646356 108.1239128  90.0098324
   6.9534731 109.2967033  90.3019238  21.7699814  14.4779217  36.8592882
  22.0803571  15.3557718  37.0812726  22.3710680  14.1765022  36.1780596
  96.0520458   6.3943416  58.3570194  96.7075825   7.0134878  58.0358362
  96.0548401   5.6867158  57.7124357 114.1928005  43.9876509  34.6621919
 115.0389290  44.1278887  35.0872111 113.5482311  44.1682720  35.3463960
  91.4943695  12.8250313  25.5105901  91.7965508  11.9679344  25.8110952
  91.3079834  13.3088970  26.3151813 113.6853600  44.8270798  54.2561340
 113.6723328  44.3748188  55.0996542 114.3380833  45.5186605  54.3652201
 113.4769058  84.1585350  28.0615783 112.6855755  84.6741390  27.9061055
 114.1127872  84.7907925  28.3964324  99.2453003  51.4558268   0.1122394
 100.1925945  51.5898180   0.1422537  99.0189743  51.1482954   0.9899824
  72.0083570  40.8919048  55.0792933  72.7401304  40.4506350  55.5105877
  71.9324636  41.7305136  55.5345011  73.5925865  22.9711556  35.4423404
  72.9761982  22.3285341  35.0911522  73.0406666  23.6135197  35.8884192
   8.5288006  21.2012362  46.6854715   9.4318587  20.9902120  46.9225073
   8.2719028  21.8841839  47.3050022  99.6502876  74.7060680  25.4247093
 100.0994015  74.5585823  24.5923734 100.0540066  75.4990292  25.7774806
  66.8939304  16.3001239  42.5325727  67.7081823  15.8554673  42.7681732
  67.1128988  16.8000281  41.7462015  96.0124874  56.1529732  63.3976412
  95.4567719  56.6991186  62.8416395  96.4952278  56.7766333  63.9400864
 111.0860062   5.5545676  42.0979404 111.1769676   4.9048620  41.4009142
 111.5022850   6.3419425  41.7472506  11.9654346  38.8451767  42.6841640
  11.6494715  39.7211814  42.4627638  12.8839827  38.9744687  42.9203558
 109.8149872  14.2304790  56.9341373 109.6574593  13.2917047  57.0347261
 110.2540684  14.4878745  57.7448082  99.2791462  23.5783005  31.8097854
  99.2201328  23.8102698  30.8829951  99.0921307  22.6398659  31.8341804
 106.2130928  32.1297860  61.3828659 105.3544617  32.5245571  61.5349722
 106.0960293  31.2071586  61.6093206  94.6929550  37.0692039  22.3576856
  94.6300697  36.1245155  22.2168136  95.1331139  37.1565080  23.2031822
  68.2586002  20.4533076  59.0255117  67.4286461  20.2743959  59.4675541
  68.0324411  21.0753298  58.3340120 106.9149685   3.1179109  42.6315212
 106.1857891   3.2872009  42.0349741 106.8522072   2.1830417  42.8272581
   1.2848826  46.1291456  30.0487638   1.8676934  45.3743267  30.1313066
   1.8243013  46.8043709  29.6372724 100.8199406  33.4263015  20.4081225
 101.4019394  32.9895663  21.0300374 101.2291241  33.2816172  19.5549703
  98.3804321  31.7266941  54.0584469  98.4272194  31.0185075  53.4161711
  99.2936325  31.9125152  54.2770195  76.3380527 108.0382919  69.9009371
  76.6409826 108.8529491  69.4999552  76.6240454 107.3531532  69.2967606
   5.2876461  12.5953805  59.9591684   4.4954520  12.1251738  59.6992302
   5.4531014  13.2027996  59.2381287  94.4676113  26.3230634  46.4391041
  94.1137600  27.0508409  45.9278631  94.2980766  25.5487180  45.9025621
  68.4080458  21.1936903  39.0613985  69.0829992  21.1578894  38.3836150
  68.6625051  21.9326806  39.6140075  79.0721893  41.9270658  52.2246313
  78.7925434  42.3132372  53.0546284  79.0701294  42.6586342  51.6073465
 102.7209377  30.1586843  41.1156464 102.8855705  29.7229767  41.9518805
 103.3948708  29.8145008  40.5294800  84.5184231  24.9414515  38.5729003
  84.2025661  24.1136718  38.2106113  84.1063213  24.9983573  39.4349694
   5.0476819  61.3998175  63.1391239   5.4807657  62.1279860  62.6936579
   4.1182852  61.5175629  62.9426813  11.7310858  38.1361866  92.7803421
  10.9712982  38.6631680  93.0278206  11.4009929  37.2381234  92.7528667
  98.1416321  43.8485193  57.2869253  97.2219849  44.0618563  57.1288633
  98.2473660  42.9661703  56.9312429  83.8354683  34.7401381  29.3018866
  84.3086338  35.4543996  28.8750696  84.2930412  33.9478827  29.0204859
 102.8783417  58.6900997  39.7750616 102.0176792  58.2899380  39.6511102
 103.4918976  58.0608797  39.3957639  96.5860367   7.9220510  74.9137592
  97.5094128   7.6717389  74.9447870  96.4686966   8.4986597  75.6687307
  82.6278210   9.5358557  80.8195019  83.1675625   8.9735776  80.2638435
  83.1281090   9.6218663  81.6310120  95.8268642  42.2363520  68.3571339
  96.4266205  41.6542387  68.8236904  95.2645588  42.5993204  69.0414572
 114.7084427  49.7111273  35.0971460 114.3414974  49.0544939  35.6891036
 115.4255962  50.1063728  35.5928349 108.0298996  48.2707882  18.4536886
 107.9131699  49.2012596  18.2617843 107.1689320  47.8836966  18.2951880
 115.5217266  22.0219421  53.8077068 115.9990215  22.8514957  53.7914848
 114.6007061  22.2742152  53.7421131  96.2515354  31.6802359  49.9699163
  95.9463501  31.0288882  50.6014538  97.1958542  31.5344882  49.9129105
  18.0560899  29.5008659  24.0383101  18.1494844  28.7952352  24.6783066
  17.4153185  30.0951338  24.4288063   9.1978431  34.9334335  25.8125281
   8.8432866  34.0462184  25.7544684   9.3742794  35.1807308  24.9048138
  22.8747916  72.4127436  45.6654739  22.4122024  72.2081184  46.4781046
  23.3028173  73.2513189  45.8381653 101.0067844  43.6689520  38.6353827
 100.0705624  43.8462305  38.5443211 101.4331341  44.4675064  38.3242989
  22.2114229  51.7958498  15.8421838  21.3253951  52.1195841  16.0046041
  22.4526811  51.3426590  16.6500485 108.7662506  48.3665895  66.4380550
 108.4373569  47.5105143  66.7122602 108.8419342  48.8657904  67.2512627
  91.0898304  31.0007334  53.9215279  90.4564476  30.3278589  53.6719322
  91.9147968  30.5264664  54.0251684 107.0963860  41.7324305  21.3679147
 107.7841282  41.6353703  22.0265675 106.3587284  41.2317038  21.7162919
 113.9126015  11.5096033  20.9714246 113.4586620  10.6786096  21.1114979
 114.4509506  11.6234326  21.7546582 102.0970249  45.3704262  56.9389772
 102.3037624  45.8035040  57.7671909 102.9055405  45.4286337  56.4299059
 104.0010262  27.0193839  57.7520895 103.8225842  27.7511883  57.1614552
 103.4291363  27.1735311  58.5040236  97.9899406  16.6187084  49.9265003
  98.4758854  15.8509135  49.6255302  98.4530354  17.3619199  49.5399666
  10.2142370  51.5851831  64.9912739  10.9125876  51.7496061  64.3576288
   9.4739705  51.2905550  64.4607735  85.0683594  49.0552855  54.5672321
  85.7830238  49.5820999  54.2095184  84.5507050  48.8031292  53.8025808
 114.0092659  42.7124977  62.8416014 113.4441376  43.2638502  62.3004198
 113.8739109  41.8269491  62.5043869  86.4172077  49.5920515  40.5787516
  86.7179489  49.1188478  41.3545465  87.0252514  49.3298054  39.8875618
   4.1777909  44.4665337  48.5283184   3.6242911  44.4649029  49.3092585
   4.0856186  43.5847139  48.1675816  86.2382507  55.5705070  47.9115486
  86.1126423  56.1964178  47.1983194  86.1683083  56.0973549  48.7076473
  97.5812912  30.5485153  32.6317978  96.8237400  30.0309277  32.9046702
  97.4668598  30.6614709  31.6881990   4.6750864  29.9186659  19.8391783
   5.2610439  29.2654371  20.2215123   4.0699053  30.1408911  20.5467105
  84.3435383  41.0781050  31.4217401  85.2931976  41.1929464  31.3871717
  84.0606117  41.6387987  32.1440983  75.0084400   7.2374696  40.0119305
  75.8923340   6.8712574  39.9827552  74.7855663   7.3986220  39.0950942
  87.0678520  74.7019339  11.3982666  87.4313927  75.4735422  10.9638870
  86.4741516  74.3204641  10.7515514 111.1209488  22.0185757  27.6561642
 111.1581707  22.8983402  27.2808480 110.3157234  22.0128155  28.1736612
   7.6978743  20.9499884  57.2622538   7.3238003  20.1346564  56.9282866
   6.9404209  21.4643502  57.5414133   2.1523680  53.9203978  47.2086143
   1.7596568  53.7563705  46.3512325   1.4615467  54.3541765  47.7094460
  10.9830379   8.2690579  93.3387280  11.2862945   7.4318576  93.6899567
  10.1133478   8.0800539  92.9863834 100.9746933  46.3522863  26.9371462
 101.6419792  46.5506411  27.5941253 100.5834103  47.2008038  26.7294240
  90.8057499  33.5533142  62.8438234  90.9167957  33.3368039  63.7695789
  90.2322006  32.8662968  62.5043011  96.0020733  50.3922462  56.4128542
  95.2176762  50.9398413  56.4457417  95.7736874  49.6157408  56.9238424
   5.4605216  66.7213726  50.6560898   5.3385454  67.2585154  51.4389229
   6.3321215  66.3398314  50.7608318 112.6434708  36.8115377  73.0647039
 113.3851337  36.2149715  73.1660748 112.0890617  36.3945079  72.4052000
  99.5190144  38.3634520  74.0014505  98.6004925  38.5628700  73.8204002
  99.6305180  38.5698938  74.9294472  15.4315937  45.3268337  48.6462593
  14.8685801  44.5908928  48.4061813  15.9320807  45.0101614  49.3982315
  87.9446411  44.5408678  23.5905695  88.6804962  44.9634027  24.0335274
  87.2255421  45.1676559  23.6696982  14.6706009  18.1903160  25.2895808
  14.5624042  19.0782440  24.9488354  15.4112971  17.8340971  24.7989607
  90.6235504  18.5180223  23.7604833  90.3911781  18.2620370  24.6530652
  91.2905598  17.8846264  23.4956264  11.9562149  42.0274782  53.8492060
  11.8824923  41.1557198  53.4608316  11.1103654  42.4399614  53.6742020
 103.5867977  19.7843456  50.4773378 103.4894466  20.7353830  50.5250978
 102.9658890  19.4472945  51.1231709 114.2405415  60.7012749  52.4825573
 113.8658810  60.0539970  53.0799627 113.8730240  61.5360880  52.7728176
  83.6294460  99.2245674  49.0947151  84.1536045  98.9094543  48.3583689
  83.2747841 100.0617218  48.7953472  98.4269428  72.2142410  38.6594820
  97.8466797  72.9732418  38.7181664  97.8916836  71.4797449  38.9599013
  97.3634338  45.0498629  26.0045648  98.2973671  45.1551771  26.1860061
  97.3290062  44.7338057  25.1017070  11.8413627  18.4844244  65.1824570
  12.2052026  17.7720833  65.7082176  11.9912386  18.2141685  64.2765141
   9.1581666   4.2152297  48.7303638   9.2070043   3.2693464  48.5919762
   8.6733818   4.5433772  47.9730463   9.0004456  28.0074096  67.1967077
   9.7323573  27.6552391  67.7031803   8.2996440  27.3653889  67.3103666
  23.3193755   6.9771719  37.4055719  24.2032981   7.1813101  37.1002221
  22.7471232   7.2729057  36.6975474  90.8228874   0.9375505  59.8748636
  90.6689453   0.8507513  60.8156061  90.0488949   1.3952690  59.5467424
  98.5352421  23.1906009  43.7663937  98.2802105  22.2684503  43.7951374
  97.9899979  23.5685015  43.0763721  71.2459517   9.5254862  18.4516859
  71.0906935   8.6838859  18.8804460  71.9939137   9.3665713  17.8758943
  95.2399921  36.4954019  51.5975571  95.3477001  35.5447054  51.5691185
  95.5988026  36.7517877  52.4471188  87.1325016  36.6039753  87.0234394
  86.5703106  36.8906522  87.7431488  86.7023849  36.9375134  86.2360573
  71.3009214 107.3260307  26.1636209  71.0204220 108.1665802  25.8016205
  71.8110371 106.9213486  25.4620218 104.5886230  96.3162231  92.7321815
 105.2697277  96.8039513  93.1952667 105.0688648  95.6914234  92.1888256
 112.9096317  41.2767792  45.7306957 113.6127472  41.6424990  45.1939487
 113.3327675  41.0529137  46.5595913 107.3165607  53.2445908  73.9633226
 106.4117241  53.1555557  74.2626143 107.7269745  53.8196230  74.6091795
 108.0486965  55.7841539  50.0115633 108.3517647  55.9218788  49.1141176
 107.2407818  55.2796555  49.9167681 105.0962162  67.7260590  42.2068787
 104.6967983  67.0290184  42.7272892 104.6235657  67.7045679  41.3747931
 106.8702793  44.6429920  36.5250850 107.7454662  44.4227934  36.8441319
 107.0029354  44.8823833  35.6078458 105.4081917  28.8795233  51.2938356
 105.7729435  28.0961394  50.8821297 105.8825684  29.6057463  50.8891106
   7.3931891  63.5879183  50.2191591   8.0040985  62.8597450  50.3322268
   6.5935963  63.1802702  49.8864317  92.4591255   0.5384989  45.8935452
  92.8212452   0.5362231  45.0074863  92.0202827  -0.3082555  45.9751129
  64.5489788  78.5660219  91.5328026  64.9527836  77.7002096  91.5923214
  64.5123863  78.7492228  90.5940151 109.7566891  10.0631845  45.1126289
 109.7858906  10.6327605  44.3438911 109.7446823   9.1761267  44.7531652
  90.6583214  48.9825439  46.4059925  91.5758610  48.7735319  46.5811205
  90.2409935  48.1321573  46.2684584  10.0748765   3.0287933   1.8430279
   9.4222504   2.8994143   1.1548620  10.0895512   2.1981242   2.3184282
 110.4427719  65.0477219  36.4340854 110.1910686  65.7377100  37.0479202
 110.5300045  65.4957676  35.5927324   0.2624260  35.6171179  36.4587045
  -0.6333707  35.3492880  36.6637588   0.3710508  35.4007769  35.5326200
  69.1013956 105.5682182  59.1875076  69.9243832 105.9598446  58.8950205
  69.1568995 104.6552944  58.9051580 111.4593029  34.7385120  11.6168773
 111.7905903  33.8475442  11.5043867 111.7566967  34.9962449  12.4894345
  63.0575037  96.4835358  90.4782772  63.8447809  96.1511230  90.0470924
  62.3412943  96.2350178  89.8938847  23.6437821  66.5893459   5.4915369
  24.4647670  66.1737871   5.2278566  23.6399627  67.4271870   5.0286794
 114.4935703  27.4817681  56.9846106 114.1115093  28.1733608  56.4442778
 114.2749500  27.7310514  57.8825521  12.3363030  50.7808352  34.5042014
  13.1316328  50.2921200  34.7159576  11.9002414  50.2511024  33.8367677
  98.8391495  29.7071075  48.9732170  98.2232475  30.2061152  48.4366560
  98.6173058  28.7915397  48.8036442   6.8369502  20.7865047  52.7553749
   6.5788758  20.6404257  51.8452692   6.7747039  21.7344356  52.8727818
   8.6659640  39.8986030  70.7847118   8.7214780  40.6537151  70.1990891
   7.8783011  40.0565386  71.3051701  82.8665924  62.7758265  52.9370308
  82.0014954  63.1360626  53.1321430  83.2168674  62.5186300  53.7899065
 114.9088001  87.2036171  23.4903717 115.0815582  87.9012680  22.8581762
 114.4550991  86.5292168  22.9848170  20.7350492  50.1832676   2.7446696
  21.6260672  50.3786564   3.0347407  20.5018783  49.3806362   3.2111934
 100.6982994  66.7049837  58.7942934 100.7748795  67.5940275  58.4479284
 100.7275009  66.1429453  58.0200243 114.1016006  21.8911195  65.8501959
 114.2868137  21.2484574  65.1654243 114.6575356  22.6394606  65.6330347
  98.5299492  87.9322338  60.6502104  99.2153740  88.5993290  60.6126308
  98.2231903  87.8528690  59.7469759 115.1556206  31.5530896  65.0169706
 115.2438927  32.2153330  64.3314981 114.4351292  30.9966874  64.7211027
  91.2090015  36.4621782  68.3986855  90.8678055  35.5768204  68.2723761
  91.9524956  36.5202045  67.7986145 110.8219528  32.5323367  41.3498878
 110.2885246  32.4335194  40.5612707 110.5056763  33.3407354  41.7532396
  22.7034259  38.3009791  79.1578865  23.2238579  37.5105739  79.3015528
  22.8068280  38.8057423  79.9645805 111.8515873  47.0590591  18.5724390
 111.1868572  46.4585638  18.9097464 112.5103378  47.1009970  19.2656291
   2.1236435  52.7563095  43.6579227   2.7461153  53.0358839  42.9866552
   1.7617752  53.5722208  44.0037107  21.7119908  55.5959415  36.2229133
  20.9746408  55.9270716  36.7356491  21.4164710  55.6525707  35.3142357
  12.9567587  50.8018732  52.7363539  13.8603806  50.9682989  52.4680233
  12.6678860  50.0841236  52.1727753   3.4665424  70.2455807  13.1887698
   3.6122036  69.3147469  13.3577657   2.9566708  70.5484962  13.9401054
  96.5109921  81.9781303  62.5293493  96.4909649  81.0574055  62.7903032
  96.5649319  82.4598885  63.3547163  99.4456100  34.7757578  47.2735500
  99.6221733  35.4719067  46.6407537  99.7370625  35.1344514  48.1117773
   3.4641331  21.4755344  23.2170010   2.6688921  20.9787226  23.0246449
   3.3614558  21.7483473  24.1287374 101.6404343  45.1592445  41.7393780
 102.4245644  45.5931377  42.0756865 101.9103813  44.2516565  41.5992212
 104.5867634  70.1353741  47.3746872 103.7474060  70.5838013  47.4777603
 105.2316570  70.8413553  47.3305988  14.3173623  52.8030586  36.5963960
  14.7968400  51.9746542  36.6053104  13.6542296  52.6886606  35.9156609
  18.3161509  44.3885994  55.1165342  18.2368410  45.2895260  54.8030519
  17.4129307  44.0806770  55.1914358  87.4997616  34.2176962  48.1513166
  86.9287109  33.9013457  48.8513565  87.5304508  35.1660562  48.2774210
 105.4739475  66.1238098  17.2136426 104.5441818  66.0900831  16.9886458
 105.7204819  65.2091503  17.3509526  91.2380695  29.4371176  57.0809031
  90.6178570  29.6381783  57.7817202  90.7126141  29.4632363  56.2812519
   3.3340320  29.1407871  59.0537262   3.3462435  30.0469470  59.3618727
   2.8557998  28.6636281  59.7318459 109.7745895  43.9182377  47.3185587
 109.2440510  44.6141243  47.7064991 109.4808674  43.1200409  47.7576923
   5.0288302  67.8318310  53.7057209   5.7368076  68.4422588  53.4998751
   4.2375594  68.2668829  53.3881521   3.8858205  33.6061311  38.6341238
   4.7784808  33.2615781  38.6600542   3.8939241  34.3388557  39.2499828
   6.8874258  26.2588811  67.1572065   7.4160630  25.4621720  67.2022581
   6.4350045  26.1988711  66.3158083   2.2858128  44.7346544  37.9546618
   2.3850721  44.0498066  38.6159968   3.0553943  45.2920866  38.0697417
  95.4453754  51.1684752  32.7098441  95.5782604  50.9018135  33.6194944
  96.1233616  50.7011795  32.2217846  97.2640324  45.2874231  35.1071000
  96.5432930  44.6626568  35.1872349  96.9421482  46.0806513  35.5353594
 105.6726837  58.0088758  41.7242336 106.2890911  57.3421240  41.4213800
 106.0540104  58.8373089  41.4335108  83.7742519  13.9993346  44.8742962
  83.6807156  14.9289966  45.0821686  82.9830837  13.5938084  45.2290249
 113.0674362  89.3408680  35.6599021 113.5830021  89.7006607  34.9381137
 112.3741341  88.8385010  35.2319002 107.9678059  41.9600630   5.7835788
 107.1707249  41.8270683   5.2705431 108.5045433  42.5421190   5.2456605
 100.5717182  49.3346977  69.8415470 100.4019737  49.8142433  70.6523848
 100.3042889  48.4360504  70.0342989  53.2518864  84.3923473  91.2549877
  52.6768732  85.1207638  91.4894962  52.6766586  83.7641048  90.8183479
   0.9411342  22.1578932  74.2680359   1.4346139  22.1654940  75.0881910
   0.0525484  21.9121432  74.5254374 115.3859901   5.2089804  19.9504960
 115.2786827   4.3668988  19.5082092 115.2447128   5.8601689  19.2633080
   2.1132649  51.8149757  25.6325436   1.8798520  51.3777781  24.8136377
   2.0533966  51.1279535  26.2963557   4.0486440  97.7445507  44.3467331
   4.3072328  96.9008923  43.9757824   4.6298504  98.3789158  43.9271832
 108.5629940  16.3524485  31.1651635 109.0552044  16.2088180  30.3568745
 108.9420700  15.7338500  31.7895603  11.8758845  43.1135750  75.6851149
  11.3566983  42.7601767  74.9627638  11.9236946  44.0531206  75.5084753
  97.5043011  95.9327221  46.3040018  98.0653095  96.6761875  46.0832024
  98.1031227  95.2804852  46.6676283   9.8834777  40.6160021  42.0414543
   9.3032634  39.8809481  41.8432760   9.6827191  40.8414698  42.9498005
  14.2936611  80.3581047  31.5485525  14.2336059  81.2955856  31.7322946
  14.3828082  80.3057766  30.5969524  19.8936164  27.1400332  41.0530710
  20.7640934  26.9915271  40.6836843  19.3245697  26.5365291  40.5753660
   5.3961086  78.6258888  64.9280930   5.0638175  79.3665028  64.4208384
   5.1067179  77.8536606  64.4421482  99.5844936  23.4938669  20.0062180
 100.4738712  23.5760164  19.6619952  99.4423103  22.5501394  20.0796413
 108.7656307  53.5030842  11.5703917 108.3613873  53.8982153  12.3428524
 108.9739227  54.2452812  11.0029495  46.8952465  18.9879632  87.5942707
  46.3880777  18.5138452  86.9353104  47.5693369  19.4469666  87.0931244
  13.0082119  32.9057574  30.7705998  12.5003386  32.2307658  30.3203964
  12.8138125  32.7728677  31.6983843  85.6723118 106.8840981  49.9545336
  85.3554821 107.1559715  50.8158875  86.6224957 106.8278980  50.0556183
   4.2641833  90.1498032  22.9022002   4.5531443  89.4416142  23.4776926
   3.5463262  90.5673981  23.3781552  13.5250556  45.1745701  37.8774238
  12.6851737  44.7335434  38.0051899  14.0990472  44.4975138  37.5191450
   8.6035055  54.7399998  50.1178885   9.2801988  55.3271008  50.4549789
   8.1385517  54.4375086  50.8979797 101.0679150  21.6874480  85.3163147
 101.6857624  22.2215414  85.8155441 100.7842922  22.2556996  84.6001530
 102.0046902  53.3943939  30.7868266 102.0376205  52.4879599  30.4810071
 102.0090866  53.9178514  29.9854493  13.5198879  94.5099354  69.3101358
  14.4458890  94.6286011  69.5214987  13.4938097  93.7062168  68.7909174
   5.0001717  17.7742374  44.0094566   5.4131562  16.9326437  43.8160801
   4.2277750  17.5485158  44.5278072  85.0363731  38.7094212  33.9523602
  84.7871113  39.5922089  34.2258286  85.0414276  38.2000947  34.7627878
  12.6424444  39.9562383   0.5148143  12.0072067  40.6692266   0.4488489
  12.7205324  39.6216059  -0.3785810  84.5643616  90.7425213  47.1692038
  84.1537189  91.5850353  47.3635435  84.5877361  90.7023335  46.2131310
  82.6302814  22.9420280  68.7595272  81.8888378  23.5362554  68.8752365
  82.2481060  22.0668030  68.8240051  19.8252976  36.7573142  36.2667346
  19.5612657  35.9357643  36.6809511  19.0812349  37.3439670  36.4025307
   8.7490386  45.5220890  31.0533810   8.7293011  44.7570229  30.4784775
   7.8413260  45.6324911  31.3364029 107.7636909  53.4328079  29.5680737
 108.7135506  53.3283281  29.6235061 107.6377010  54.1555882  28.9532948
  11.5023947  66.9378567  27.8935194  11.5858364  67.5207520  27.1388674
  12.2979951  66.4059830  27.8744650  17.3432767  14.1413569  37.6336432
  17.5721884  14.1705644  36.7046785  16.4073884  14.3409586  37.6560926
  71.9315529  24.8885059  43.3721828  71.1643791  25.3291655  43.0068111
  71.6073275  24.4610429  44.1648912   5.6788605  34.4847751  57.3252058
   5.4872847  33.7162519  56.7877102   5.9700400  35.1480889  56.6995382
   2.6983038  50.8466244  87.0471859   1.8259802  50.8742237  87.4402809
   2.6458818  50.1462793  86.3967991  69.6845818  24.7240949  60.9293365
  68.8268232  25.0752783  61.1683941  69.7368956  23.8861251  61.3890123
 106.0035801  55.5772114  44.2742729 105.8764744  54.8222923  43.6996651
 105.2844429  56.1694050  44.0543127  12.5694180  43.7063217  63.7037611
  13.0943978  44.4201088  64.0658808  12.5610459  43.0418015  64.3926525
 101.8147945  71.2260532  40.4762459 101.8212318  72.1133327  40.1171827
 101.2570477  71.2856007  41.2518787 112.4217319  10.8932340  34.4874406
 112.2764969  10.9127319  33.5415220 112.6507378  11.7947900  34.7132325
 112.1763325  90.5968380  29.5317245 112.3752594  91.3475800  30.0912309
 111.5858364  90.0566006  30.0567985  72.6638699  38.3665848  25.7143641
  72.7320862  37.6502538  26.3455915  73.3489227  38.1849265  25.0709844
  34.2521882  40.5867290  46.2583160  33.5862970  41.2073565  46.5543604
  33.7670469  39.7804165  46.0830307   6.7541033  74.1390371  51.8100739
   7.1202099  73.5617828  52.4801302   5.8699131  73.8035917  51.6620398
 109.2149830  49.6226358  85.3020763 109.3092251  49.5934677  84.3499756
 108.6499786  48.8784075  85.5097485 104.7986031  45.7093573  38.1604099
 105.3756809  45.1853943  37.6048207 105.2681065  46.5345097  38.2825375
   0.8342578  38.8405824   6.0178351   1.5876721  39.3199420   5.6731439
   1.1987271  38.0106473   6.3254136   3.0178297  48.6980152  44.1905928
   3.2577693  48.9285040  43.2930756   3.7757757  48.2189560  44.5256329
  96.1598206  20.1061010  57.1206379  97.0338440  20.4844570  57.2163677
  95.8425808  20.0059152  58.0181646  23.7666917  27.9720879  37.9081535
  23.3451629  27.5404191  37.1650481  24.7036076  27.8446364  37.7592397
   7.7143329  18.7167311  71.9688463   6.8715817  19.1608512  71.8752480
   8.3322746  19.2732096  71.4948082  12.8779447  54.8706627  63.3136749
  12.7584743  53.9258385  63.4099579  12.0122313  55.2404404  63.4869766
  16.3880241  70.8446550  26.0941887  15.9875262  71.0645723  26.9353008
  15.8825076  71.3416195  25.4509830  72.7553844  59.1822624  22.4587989
  72.7524281  58.2294703  22.5505137  72.0894241  59.3610382  21.7948914
  99.6695614  56.9107533  54.7407532 100.0990677  57.7587414  54.8533535
  99.6301746  56.7862606  53.7925005  69.5608044  44.3778181  15.6434202
  70.1672602  44.0178490  14.9962246  69.6175861  45.3257895  15.5236077
  95.0877762  54.3777657  53.7346029  95.9778881  54.6428967  53.9661884
  94.7447014  55.1110029  53.2238245 112.3782539  72.0937490  57.6796770
 113.1218147  72.5846767  57.3299074 112.5696087  71.1815691  57.4616289
  96.8395329  34.8907042  71.4643383  96.0601997  34.5573187  71.0196877
  97.5519848  34.7421932  70.8425713  25.8172846  65.2762508  38.4947681
  26.4074087  65.7728720  39.0616488  25.3736687  64.6675205  39.0854311
   6.6548437  79.6075439  67.0663500   5.9186894  80.1566792  67.3360872
   6.3741863  79.2213392  66.2367058  54.7023201  27.0143485  39.0268016
  54.9765539  27.6762915  38.3920932  54.4453239  27.5161791  39.8003316
   3.7263379  85.9477043  89.4361115   3.5554630  86.1301708  90.3600883
   3.0859956  85.2757549  89.2022610  93.1589699  33.7478685  41.3381195
  93.0690002  34.1468620  40.4727077  93.5887432  34.4193125  41.8679190
  51.5169001  79.2707396  85.2119732  51.0162640  79.1146708  84.4112015
  50.9634113  78.9242411  85.9118366  84.7121716   7.5104982  18.3860338
  85.1421547   6.8373656  18.9135158  85.0501442   8.3370650  18.7307000
  39.4436717  14.3339205  18.9367557  39.0508175  13.6274076  18.4241784
  39.0625978  15.1335335  18.5739410  94.7804928  38.0583858  35.3689933
  94.2871857  37.5273561  34.7437835  94.8221207  38.9257026  34.9661779
  99.2762089  16.4187801  52.2996569  98.8207054  16.8801558  51.5954638
  98.5751057  16.0558367  52.8409195  72.5328398   2.6492915  41.4469862
  71.9952536   2.0355654  40.9464121  72.3184299   2.4648057  42.3614359
 114.2580795  38.9916706  51.7054605 114.7395039  39.8181725  51.6685390
 114.7534657  38.4533048  52.3227024  80.3281784  47.3481512  21.1722398
  80.9859943  47.0878649  21.8170357  79.9521303  46.5225124  20.8670425
  86.2448692  40.4561377  27.2923875  85.9380150  41.3434124  27.1057796
  85.9308052  39.9338913  26.5542507  54.5582008  97.8250217  35.4511023
  53.9020443  98.5123253  35.5664968  55.2706528  98.2515717  34.9749708
  95.3989792  21.1429095  46.5052843  94.6343040  20.8734131  45.9964895
  95.9608936  20.3681755  46.5217257  65.9095144  40.3157473  55.8961821
  65.6391478  40.4691219  56.8015051  66.6550398  39.7195435  55.9666014
  53.9302540 105.1002693  16.7570448  53.3710527 105.8741951  16.6895175
  54.7603703 105.4335594  17.0977128 110.6699562   4.3595317  56.4712524
 110.5585861   3.7634003  57.2118282 110.3438663   3.8682812  55.7172108
  78.1368780   3.7122339  38.6827660  78.7029362   4.4514459  38.9049721
  77.4452400   4.0941557  38.1423926 105.3070736   3.7729979  49.7799635
 105.8479214   3.6587855  48.9985085 104.6612930   4.4337836  49.5298195
  87.8167152  30.2113509  49.2593050  87.3254776  30.9378505  48.8757467
  88.7342548  30.4306746  49.0973091  67.2010708  31.1394691  47.6751518
  68.0569506  31.5307093  47.8501844  66.6127014  31.5601134  48.3021402
  23.1626105  33.7096214  45.6550169  23.1649303  33.4962773  46.5881348
  23.9651585  33.3126378  45.3165627  81.4096451  11.2123621  37.9541492
  81.7085838  10.7390296  38.7305641  81.3242817  10.5377543  37.2804642
  36.3351870  91.9627476  86.4165974  36.5431190  92.7183056  86.9662666
  36.0212278  92.3426819  85.5960369  80.6844330  21.6752696  54.6928978
  80.3874111  22.5631571  54.4937468  81.2680721  21.7808223  55.4442024
   9.0739912  16.6484118  36.7013979   8.2740331  16.8264508  36.2068272
   9.4599277  17.5114238  36.8513799  74.1931105  13.0278790  11.2503791
  73.6993027  12.2173202  11.1263525  73.9545870  13.3214903  12.1296585
   4.3817297  54.5064497  31.3402343   5.0907654  54.6908236  30.7241940
   3.6183602  54.9456072  30.9652185 106.9946861  18.4312725  40.5226088
 106.8141079  17.4918067  40.4905462 106.5168285  18.7408972  41.2920284
 104.4224072  23.3995867  10.0503314 104.3788528  23.4804416  11.0031152
 103.5127449  23.4738946   9.7618246  84.5422840  27.8354335   7.5368792
  85.4404736  27.6695108   7.2505987  84.6369076  28.3746791   8.3220482
   6.4746588  18.6538851  16.7639112   7.3117030  19.0409315  16.5074277
   6.3438159  17.9348755  16.1457396  36.3523912  55.0688744  89.3487740
  36.6587567  55.1803780  90.2487373  35.7105255  55.7682610  89.2258835
  65.2908325   4.4660640  67.6070547  65.6037474   5.0917530  66.9537354
  64.3886137   4.2796335  67.3473024  81.4873505  57.2998905  15.4619360
  81.2259007  57.5083208  14.5650339  81.3727856  56.3520575  15.5306792
  82.3426533 104.5793438  17.2057188  82.8443623 103.7652016  17.2469354
  81.6412067 104.3970203  16.5804458 106.4987278  34.6942806  31.1889315
 106.9619465  34.5662928  30.3611159 107.1388340  34.4586945  31.8604875
  81.7721939   5.0549871  13.3118725  80.8730698   5.0367701  12.9840350
  82.3140240   5.0864995  12.5234187 109.4628334  51.7853689  33.5997653
 108.6983776  52.1903610  33.1901002 109.5055580  52.1806908  34.4704723
  86.3958549 108.2026005  38.2023716  86.1962223 109.1375923  38.1559396
  85.7607651 107.7926445  37.6151466  87.6603031   5.9110302  55.4405975
  86.7522621   6.1781240  55.5832767  87.9841137   6.5119857  54.7696018
  61.3696480  19.9290848  50.6658316  60.4212141  19.9297380  50.5365896
  61.7119980  19.4290829  49.9248695  97.4826908  10.1972687  39.9928737
  96.7416668   9.5917976  40.0156736  97.5366402  10.5434239  40.8836603
 104.7255611  37.9039669  37.0807719 104.6891880  38.7778044  37.4697661
 105.6458950  37.7841783  36.8465519  92.3885536  26.7822957  25.5421495
  91.5869808  27.1896124  25.2138066  92.1831226  26.5438771  26.4461327
  89.0941238   7.0831805  13.5826218  88.7489223   6.3697398  14.1193461
  90.0383568   6.9283074  13.5569000  47.9946423  32.4750900  40.6819534
  47.5991631  32.3174810  41.5392685  47.4479532  31.9805002  40.0714254
 107.8589439  34.1933608  36.7119861 108.3616543  33.7623119  37.4031496
 107.3774529  33.4832215  36.2876105 107.7521801  16.9186127  49.9433374
 108.6890793  17.1132493  49.9671650 107.3296165  17.7772486  49.9228191
  84.5957756  59.8639345  31.7820454  84.0023613  60.4566431  31.3207626
  84.2693043  59.8504734  32.6817489  55.6335592  17.6626921   6.3599080
  56.2232637  17.7346480   5.6093752  55.5507135  16.7209685   6.5099931
  86.5897655  23.6300993  14.4144511  86.7455769  23.8414407  13.4939682
  87.3429203  23.9991570  14.8757422  87.4830246  45.7165241  36.6464615
  88.3382702  45.3240728  36.4710474  87.2517204  45.4054451  37.5216532
  96.5322399   1.7826253  72.0096874  96.5747643   1.1656195  71.2791204
  97.3597813   2.2617760  71.9669962  70.6543446  34.7602034  31.5068364
  70.3305387  34.5301127  32.3777199  69.9432516  35.2653909  31.1126661
 104.3689728  68.2246637  63.9372444 103.7533474  67.5227118  64.1481829
 104.8478794  68.3761215  64.7520733 102.9741573  17.4627507  54.4680023
 102.5197220  17.9328799  53.7689304 103.8902664  17.7247465  54.3766260
  54.5715904 104.6892834  35.8336973  54.8292542 105.4334831  36.3777566
  54.9717665 104.8652077  34.9821448  46.9379091  94.3895245  78.0502748
  47.8661823  94.2375183  78.2275772  46.4802265  93.7888050  78.6384010
  75.3590536   9.7924757  40.4230118  75.4103184   8.8518113  40.2534389
  74.4526148  10.0234151  40.2198839  90.9096050  28.7682176  43.8465977
  90.5471611  29.4350147  43.2632875  90.2730465  28.7009788  44.5582914
  76.6949892  12.2516251  12.3767412  76.3920927  11.5030360  12.8906488
  75.9170008  12.5486922  11.9048107  87.4791336  42.6706791  18.0578637
  88.0748749  42.6671410  18.8070703  86.7176914  42.1725178  18.3549738
  89.6589756   4.5465791  23.8483477  89.3170261   5.3696543  24.1974235
  89.1476822   3.8683972  24.2898059  85.4021931 100.9406471  39.9261570
  85.2899361 101.5517902  40.6542587  85.3828907 101.4930248  39.1446590
  63.6795855  97.7301598  27.7990556  63.9579439  97.8316212  26.8888617
  63.9199352  96.8314171  28.0242610  52.0673084  98.0863857  37.9412127
  51.5828943  97.4699306  37.3920703  52.5525522  98.6299419  37.3204756
 100.6272602  21.0268784  21.0618448  99.7660065  20.6716418  21.2815666
 101.1840725  20.2557611  20.9543037  51.8006420  91.4127350  87.9533863
  52.2171545  90.5651188  87.7975082  52.1251583  91.9724178  87.2479153
  87.7365780  13.0122828   8.3701277  87.4309063  12.2460330   7.8846800
  87.6490974  13.7379420   7.7520686 111.3913918  28.1233692  32.2944021
 111.3339901  28.2440710  33.2422256 110.5338192  27.7794456  32.0443821
  63.7506199  88.5925484  63.5165548  63.7977409  89.1019344  64.3255949
  63.8833284  87.6866627  63.7958097  93.5198689  62.9077721  37.8436613
  92.9388618  63.6500835  37.6773906  93.6589050  62.5147486  36.9820166
  88.4242344  11.6461718  27.2143745  88.8130665  11.7112410  28.0866146
  89.1328430  11.8871140  26.6176701 109.8126984  33.1636000   9.0674615
 109.4993687  32.7661371   9.8799163 109.9006271  34.0940237   9.2743647
 100.8830833  38.3942413  18.3702970 100.4883575  37.5265956  18.4575403
 101.3280487  38.5399914  19.2051613  64.9280310  28.3867526  32.3479962
  65.0364256  29.1524792  31.7839527  63.9970493  28.3829999  32.5704527
  85.0404072  26.2912488  13.9089811  85.1510906  27.2277021  14.0734100
  84.7197437  25.9385824  14.7390592 106.3485336  52.0440054  93.6433125
 107.1158695  52.4374771  93.2278538 105.6234169  52.2540951  93.0548382
  88.6857319  45.6378031  11.1311734  88.9232445  45.7073975  12.0558214
  88.3341026  46.4998293  10.9086740   4.8119369  28.1513834  42.6538229
   4.8209816  29.1075206  42.6980066   3.9419991  27.9053044  42.9682827
 106.6898346  29.8918867  24.7047234 105.8758926  29.9196506  24.2017722
 107.3647976  29.6890473  24.0570307  74.9757957 108.8888741  27.9534221
  74.5075321 108.1071281  27.6604295  75.6525993 109.0252209  27.2904158
 107.7876186  14.0731668  38.0719924 107.3402596  14.7344720  38.5999870
 107.4054146  14.1647887  37.1992016  13.3047795  25.0857663  52.6392460
  12.5594556  24.8083615  53.1719446  14.0709579  24.8878050  53.1777763
 108.1444454  58.0573177  21.7581844 107.6538944  58.8447666  21.9937921
 107.4728012  57.4217844  21.5107703  88.0225182 108.3404446  58.0151844
  88.2195568 107.4707794  57.6672220  87.0907402 108.3063316  58.2316732
  83.2863617  34.4761562  18.4708107  82.7447510  33.7886167  18.0832720
  82.6605034  35.0647378  18.8928437  62.4680948  87.6543903  20.8923817
  63.2538557  88.0734825  20.5414295  62.5386190  87.7687550  21.8401051
  81.5505123  51.7811728  51.7126322  82.4144459  52.1850443  51.7947054
  81.3992023  51.3647509  52.5611210   0.8742892  53.8492823  40.7197332
   0.6698264  52.9142904  40.7344103   0.4005572  54.1861391  39.9592495
  33.9724207  89.2843056  82.4352264  34.0277910  90.2398872  82.4405003
  34.6650362  89.0075588  81.8352890  96.0598564  30.5953002  60.6654072
  95.3338242  29.9715281  60.6613588  95.8844090  31.1718798  59.9217606
  31.3591194   2.7516779  38.5705185  30.9680128   3.5417393  38.9434433
  31.8981624   2.3950753  39.2765641  62.2270155  16.6146123  32.0840025
  61.5384483  17.2769296  32.1426916  62.7679253  16.8961895  31.3461947
  39.7585607  95.0061703   0.6495133  39.6358943  94.2711735   0.0487174
  40.3821707  95.5789280   0.2030876  91.0157108  33.5515189  53.1653070
  91.0584354  32.7134371  53.6257696  90.1791286  33.5272169  52.7008057
  85.2373314  29.2097378  37.7284598  85.3886604  28.4602022  38.3042431
  84.6104527  28.8904309  37.0793796  98.9851475  24.4302964  29.1973639
  99.3062878  25.2983642  29.4414067  99.5043468  24.1898417  28.4300017
  89.5750809  45.7625628  13.8170934  90.4360390  46.1223936  13.6037886
  89.5365429  45.7844543  14.7732663  49.2590952   9.3486255  31.8016768
  49.0784788   9.5559818  30.8848286  48.8140917   8.5143673  31.9507194
  36.4411807  63.8741064  86.1546612  35.8499646  64.5950317  85.9379482
  36.2235880  63.1879854  85.5236912  79.9734640  47.7247334  35.7512522
  80.5576038  48.4647417  35.9167886  79.7757721  47.7801085  34.8163271
   6.7065024  16.7792583  60.4279184   6.6887265  17.7359009  60.4553223
   7.2425866  16.5280211  61.1800671  11.1853719   7.8364843  42.6985788
  12.1322882   7.9700816  42.7402020  10.8672905   8.5480607  42.1429586
  99.2614746  15.7834637  33.7626481  99.0733624  15.2041149  33.0242729
 100.1173592  16.1606646  33.5591292  70.9172106  21.8513870  31.5466785
  71.1818457  22.7702641  31.5898204  71.5951633  21.4314938  31.0172439
 103.7117481  18.6868358  30.1044559 104.3641949  18.2578206  30.6580710
 102.8709221  18.3782899  30.4421639  19.6314442  46.2633991  75.6003761
  19.0403962  46.7782736  76.1497402  19.6018600  45.3834486  75.9759331
   1.8793494  21.2091374  31.1469197   1.7062977  20.5116677  30.5146074
   2.8339776  21.2481833  31.2051654  95.4656124   7.3870528  43.0791283
  94.9556065   7.2647953  43.8798666  96.0974884   6.6680783  43.0854988
  74.3538904  26.5450525  34.0450597  74.4876242  26.2508130  34.9460411
  73.5262775  26.1424637  33.7819719  86.8043423 107.3231697  14.1519487
  87.2208595 108.1842613  14.1163671  85.8690166 107.5056362  14.0619504
 111.8975067   5.7352751   5.8853334 112.7898121   5.4542023   5.6827748
 111.3445759   5.0166768   5.5785525  95.5183220  25.8382273  28.1499362
  95.7725620  25.1904321  28.8071632  96.1628532  25.7348275  27.4498534
  92.0239830  58.9622355   3.0193564  92.6894379  58.9419413   3.7070954
  91.1971188  58.8264513   3.4820661  32.8849125  22.9222560  23.9634299
  32.1764421  22.6793504  23.3673596  32.9603410  23.8720274  23.8713598
  91.6909981  14.6457613  16.1930060  91.8199921  15.1522076  15.3910673
  91.2617779  13.8412714  15.9017920  73.9327765  47.7096987   6.8647170
  73.4176254  48.5123539   6.7835188  73.6081457  47.2966671   7.6648742
 104.1840839  61.5389919  32.3425245 103.6980629  61.2300682  33.1071019
 103.9878178  62.4746990  32.2959757 109.7402763  11.2103057  17.8434563
 110.6615639  11.3087380  18.0838335 109.3512535  12.0645702  18.0308807
  71.8396235  92.2867298  37.2732139  72.2621918  91.6798115  36.6654992
  72.5105715  92.9428768  37.4617147  22.4978757   8.3916593  44.1323996
  22.9019785   8.1505710  44.9659491  22.8555393   9.2571419  43.9342880
  15.7622218  91.3558292  52.8815889  14.8269606  91.5590286  52.8966808
  15.9280121  91.0570717  51.9874430  86.9233704  16.8334150  35.6588078
  87.0576286  16.4000833  34.8159361  87.1492577  17.7492154  35.4959583
   4.8346913  17.3904157  11.6955543   5.4911572  16.7428291  11.4388144
   4.1665238  16.8839979  12.1574259  96.3362980  17.0167613  37.3839855
  96.8515778  17.4992561  38.0304503  95.5335712  16.7779064  37.8474569
  86.1409664  32.4526691  49.7776937  86.1773968  31.9017029  50.5595779
  85.5521393  31.9870424  49.1838074 110.8247089  37.7694178  37.5309420
 110.1878166  37.9742503  38.2155108 110.7628536  38.5028791  36.9190288
  96.9775581  61.2049723  43.0333805  96.8695164  61.4052677  42.1036243
  96.1984730  61.5734720  43.4498739  17.7980602  10.8308971   2.4495758
  17.3692095  10.3068674   1.7730325  17.7628744  11.7275012   2.1162674
  57.1267891 100.2502346  11.1663294  57.0893049 100.4132938  10.2238643
  57.0036173  99.3047714  11.2509131   9.7777653  13.6533117  34.2441535
  10.5651522  13.1139159  34.3169999  10.1044047  14.5251107  34.0216589
  97.0830345   2.6918587  36.8052816  97.8735542   2.1558538  36.7419004
  96.6821003   2.4302465  37.6341605  98.6560535  38.2185960  59.1218567
  97.7047634  38.3178091  59.1596031  98.9672565  38.5751486  59.9538755
 102.8248882  58.7513256  64.9627066 103.0741978  59.4877815  65.5210114
 102.3069859  58.1830883  65.5328941  75.8329868  14.0178311  53.2550430
  76.2536860  14.8666680  53.1182146  76.0292625  13.7972391  54.1655636
  12.0137644  27.0770812  38.8258052  11.2505591  26.6245508  39.1849256
  12.4117196  27.5113153  39.5803261  17.8182983  19.9337864  38.4451008
  17.8773189  19.7860146  39.3889809  16.8798232  20.0100923  38.2728386
  98.8419914  33.3567715  63.8637924  98.5288239  32.5719333  63.4141350
  98.0482960  33.7728810  64.2001390   8.5641432  43.6582470  25.1157498
   9.0003937  44.3335962  24.5963097   9.2089158  42.9539871  25.1829791
   6.0686409  36.4889503  45.8246231   5.3371644  36.9040632  46.2816286
   6.4733034  37.1987367  45.3259420  22.7326465  40.2848434   8.5289425
  22.3273540  41.0434723   8.9490110  22.2888851  39.5306993   8.9169765
  94.9532604  17.8561199  24.4688869  94.2643642  17.1936619  24.4158959
  95.3693676  17.8384256  23.6070442   2.1612574  26.6813850  29.5309067
   1.2478296  26.3984871  29.5739293   2.2228408  27.3903108  30.1711130
  94.9832153  44.1145182  35.2650404  94.5095921  43.7433100  34.5206523
  94.8320293  43.4944677  35.9784245  14.6679521  57.2892523  38.2235956
  13.9239776  57.3070049  37.6215839  15.2730560  56.6557264  37.8379440
   8.8163817  55.1018715  30.5636382   8.0964893  54.6793556  30.0951695
   8.4983003  55.1902437  31.4621091  97.5727177   8.0680174  46.9810772
  97.8440952   8.5653663  46.2095642  97.6800251   7.1518624  46.7253828
  76.6043043  17.4654245  40.7511139  75.8938980  17.3450708  40.1209736
  76.5507936  16.6987407  41.3216972  84.7178745  15.9776485  36.9527674
  85.4933548  16.3625240  36.5444517  85.0104904  15.1202881  37.2618604
 115.2243042  30.5207467  25.4545784 115.7144260  31.3428187  25.4402399
 115.8127403  29.8984885  25.8820891 115.4060364  24.7213268  32.2967649
 115.0311184  23.8414454  32.3352408 115.0819683  25.1545024  33.0864286
   5.0976419  16.9617617  37.5991344   5.2810377  17.4763942  36.8131614
   5.3592664  17.5297844  38.3237958   1.3051486  15.2534401  24.3217802
   1.0191783  15.0943983  23.4222484   1.8379013  14.4894052  24.5423651
   3.0589733  27.2404194  67.2111893   3.1151330  26.4098191  67.6836109
   3.3054370  27.9012036  67.8583717  83.8400841  33.7676644  41.6850567
  84.1039467  33.2471871  42.4438143  83.5512066  34.6016765  42.0554638
  20.5781269  47.9481268  32.1059489  21.4822030  48.2440281  32.2123408
  20.1716924  48.6144018  31.5517592 104.4256973  40.7544518  48.1866264
 103.7752533  41.4563465  48.1643629 103.9712334  40.0197458  48.5988188
 102.7706337  32.7481508  22.4087620 103.3803272  32.0550489  22.1555543
 103.3009243  33.5450363  22.4097586  24.0772867  53.3105612  39.6892762
  24.8602653  53.5887623  39.2141175  24.0041637  53.9309692  40.4145193
  17.6890349  66.1092138  44.0541029  18.2385802  66.8915462  44.0073109
  17.1471047  66.1497164  43.2661295  13.7220609  26.2328148   3.9347136
  14.6275723  26.3227224   3.6377355  13.6417282  26.8614507   4.6520656
  95.8281231  64.2984915  26.7775321  95.6365108  64.5729780  27.6742864
  95.0378609  63.8389969  26.4936614  95.3960705  52.0760870  92.1265984
  95.3471565  51.9939423  93.0790138  94.6210957  51.6145182  91.8062687
   7.4808627  64.4694757  86.8137741   8.1854600  64.5802450  86.1754131
   6.7169213  64.8705149  86.3992977  90.2180576  26.8204951  80.5774212
  90.6079769  26.8478417  81.4511681  90.8701992  26.3733053  80.0380039
  77.5441980   1.6943391  11.1783695  77.9273176   0.9082358  11.5675902
  76.7723846   1.3775097  10.7091653   6.5010744  87.3111629  91.0597801
   7.0432514  86.7180824  90.5396557   6.4400011  88.1062412  90.5302906
 115.4774094  55.8551407  93.7987137 115.7551003  55.5363226  92.9399490
 114.8611450  56.5612745  93.6042500  26.9421744  28.7176156  91.1111069
  26.3802600  27.9455638  91.0446358  27.0585370  29.0077734  90.2063942
  37.3427558  94.1059113   6.0036892  36.6104507  94.0838432   6.6197038
  37.0342827  93.6074829   5.2469563  81.5684986   6.2728214  61.8035221
  81.1357880   5.5059969  61.4280605  81.0156822   7.0102781  61.5450954
  52.6726437 106.8134975  39.0738988  53.1694698 107.0371532  39.8609018
  52.0299387 106.1695290  39.3713284   5.8052331  28.5196376  82.6730824
   5.9373313  29.4012594  82.3244762   4.9135274  28.5307288  83.0208874
  25.7554674  47.4677038  93.1984806  24.9219251  47.1775866  92.8279781
  26.1386943  46.6756439  93.5753155  46.6949463  95.9208393  34.3181658
  46.2938452  96.1686420  35.1511979  47.5134468  96.4163017  34.2896748
  11.7577767  62.1559715  93.3647251  11.5286303  63.0600166  93.1492615
  10.9155011  61.7184019  93.4885597  38.9343548  75.6110191  11.9944000
  39.7598672  75.8857965  11.5953290  38.6454988  74.8703051  11.4613509
  40.6023026  72.2009373  92.8434467  40.4993439  73.1404400  92.9949856
  39.7281003  71.8380976  92.9861164 109.6967506  57.9383230  90.1082611
 109.0151119  58.0107689  89.4401646 110.3573990  57.3677635  89.7155190
  25.6779480 106.2584782   2.0309585  25.8605218 105.3526688   1.7811440
  24.9096823 106.2000942   2.5989273  63.4034348  90.7287312  18.2132828
  62.5588799  90.3028774  18.3602846  63.9234257  90.5019760  18.9842701
  63.2749462  15.3077483  45.6657791  63.5458279  16.2143159  45.5209064
  63.7627602  15.0331795  46.4422321  30.7260633  98.5799694  89.3906689
  30.3806233  98.0213642  90.0869942  30.2848101  99.4200325  89.5164394
  67.0356417  16.7340863  15.8094430  66.6730499  16.5240145  14.9488437
  67.7928448  17.2886431  15.6214452  18.1991613 107.3769855   2.1746230
  17.4438834 107.9497528   2.0414551  17.9286861 106.7828083   2.8746390
  45.4533148  95.3340530  22.8156948  45.1643038  94.4674683  23.1016088
  45.7660103  95.1991749  21.9211221  88.3995628  20.1997876  13.6191499
  88.6054802  20.6190085  14.4546640  87.7604485  19.5229173  13.8418889
  97.7209568  71.3144398  79.4864464  96.8921661  71.4598179  79.9427462
  98.3919907  71.5285730  80.1345921 112.3289108   9.4448626   7.4035859
 111.6369247   8.8027680   7.2451866 113.1096363   9.0583742   7.0069313
  18.4723854  47.3006487  77.9282618  18.0957925  46.9999075  78.7552834
  17.7967477  47.8616047  77.5473785  48.2991362 107.2474384  12.0191097
  49.1370726 106.9597149  11.6567397  48.2702446 108.1870747  11.8388939
  60.7997847 101.0360241   0.4717542  61.4532375 101.7093563   0.6611035
  60.0455046 101.5214920   0.1376723 105.2033234  36.1174703  75.9237719
 105.9308910  35.6472921  75.5165863 104.4191933  35.6900311  75.5792761
 106.9773102  35.3947902  86.6182804 106.5347576  35.0554514  85.8403206
 107.8931141  35.4822040  86.3538742  61.8328238 107.1803951  37.4058580
  61.3546896 106.7021656  36.7284274  62.3447418 107.8301811  36.9242477
  51.1006260   2.5653973   0.0968189  51.2653446   2.5697723   1.0397298
  51.1946964   1.6476849  -0.1584975  66.4473009   0.1036038  43.3233452
  66.4901972   0.3463418  44.2482615  65.7575035   0.6598935  42.9614687
 100.0095081  20.7376480  54.5365953 100.1264286  20.0168538  55.1554823
  99.0935707  20.6746507  54.2658186  29.7225523  92.7833366  10.9133351
  29.0088487  93.1840897  10.4170883  29.7138143  93.2384205  11.7553926
 112.4585724  27.0976329   2.4609256 112.9869175  26.6763949   3.1388953
 112.2167015  26.3855124   1.8687981   0.9921344  15.9302521  16.7920578
   0.1603222  16.4033425  16.7695820   0.7632121  15.0318372  16.5539849
  44.2762947  86.0631752   5.7163501  43.7152910  86.5856552   5.1431853
  44.7913027  86.7085552   6.2005800  42.5948095  14.8170614  42.4747992
  41.6760063  14.8025060  42.2068071  42.8838634  13.9086294  42.3885965
  80.7450581   6.7466730  15.6382287  81.2318516   7.2512639  16.2898850
  81.3885784   6.5510947  14.9571502  97.3474693   8.9907789  24.8491502
  96.4933395   8.8612068  25.2613354  97.9777241   8.8581419  25.5572653
 106.7299938  18.0622745  13.2462263 106.7401505  17.1747851  12.8877687
 107.4005890  18.0524242  13.9291835  71.3632822  94.6896839   1.1579908
  70.9900475  94.1553020   0.4570107  71.5803576  95.5208778   0.7358255
  14.0953922  29.7599649  76.4552355  13.3818626  29.2240572  76.8015146
  14.4517708  30.2086926  77.2219658  25.9418964  75.5455256   7.1668410
  25.7886052  75.0333500   6.3728577  26.8888235  75.5031300   7.3001170
   7.4950999  18.5341811  74.6632004   7.6171041  18.3806181  73.7263107
   6.8821806  19.2680562  74.7077990  79.8724079  27.4706078  32.8801727
  79.1425800  27.1914387  33.4330225  79.5913506  28.3113074  32.5189757
  31.1097312  87.8363705  85.9731293  30.9032750  88.0668449  85.0673199
  31.3430285  88.6684513  86.3847733 115.7440853  74.5646620  78.0860901
 115.3216076  75.3651428  77.7746725 115.6447601  74.5960140  79.0376091
  88.4828663  52.7896452  41.5834093  87.6373386  52.3595047  41.7110300
  88.3088875  53.7152910  41.7541361  96.0830975   2.3398736  12.1356761
  96.6569138   1.7604393  11.6344547  96.0465527   1.9455372  13.0071092
  40.7655573 101.4423561  13.9392972  40.6070948 100.8725166  13.1867027
  41.5198994 101.0519886  14.3806720  32.8771663 103.9343357  48.6197042
  32.1332908 103.7518978  49.1938114  33.2417989 103.0723763  48.4189272
  96.7232418  41.6557074  78.4755421  97.2444916  42.0072985  79.1972828
  96.8008804  42.3113155  77.7824450  53.9490843  15.2039552  12.6285708
  53.7604856  14.9317539  11.7304790  54.8268127  15.5832839  12.5845540
 113.9210510  50.2342701  53.4179211 113.1634235  50.4971409  53.9405441
 113.9776516  50.8958912  52.7285147  54.3917513  34.2167592  12.3082697
  54.8046637  34.9957585  12.6809585  54.6537256  33.5045099  12.8916216
   2.5229067   5.1630950  74.6094751   2.8150830   5.9999359  74.9708080
   2.8935847   4.5055586  75.1980972  88.7301350 100.8415318   3.3553138
  89.1685581 101.3649082   4.0262073  88.1515884 100.2583313   3.8466281
 110.5372047  17.9954386  29.6040344 110.0143051  18.4374201  30.2729630
 109.8940372  17.6653159  28.9766693  78.5077190   4.2305848   1.0019244
  77.8254175   3.5662365   1.0985313  78.2139492   4.9572799   1.5513282
 104.1395855   4.1385213  32.6253605 103.3787727   4.6688864  32.3884988
 104.7885704   4.7730243  32.9294324  62.0015812   3.3057678   3.1448895
  62.5002050   2.7900442   2.5111410  62.6495028   3.8865429   3.5438007
  27.7976823  48.5608292  86.1666775  28.5700893  49.0510416  85.8850479
  27.3213553  49.1686296  86.7322922  19.4090617  13.3216321  69.4941902
  18.5189819  13.5397494  69.7706223  19.8504150  14.1676211  69.4184208
   2.2647667  65.0862932  89.4336319   2.9905131  65.5028820  89.8983669
   2.1237019  65.6391191  88.6650562  18.5875249   8.6011887  89.5829391
  19.0767133   8.6428654  88.7612438  19.2338693   8.8101351  90.2573395
  53.0085230 103.3037376  11.8066788  53.8026810 102.7732372  11.8708122
  53.1094694 103.7879467  10.9871781 110.9359646  28.3854985  72.3287344
 111.8074417  28.5265803  72.6986742 110.7910347  29.1428471  71.7615891
  98.9754581 106.5608501  16.9948220  99.6721649 107.2138691  16.9285882
  98.1657124 107.0699596  16.9580472  67.6887465  33.3151078  21.1607051
  68.5924816  33.4043336  21.4632511  67.1808100  33.8637805  21.7583632
  77.5447798   5.2847522  26.5689373  76.8809748   5.0302541  27.2098923
  78.1904364   5.7774085  27.0755410 108.0644035  39.9379134  70.6635618
 107.5876808  40.2982473  71.4113092 108.9860249  40.0952768  70.8687019
 112.0323658  76.0488796  64.5000601 111.2776852  76.6106939  64.6762753
 112.4220657  76.4135265  63.7054586  15.7904494  37.8007674  75.2795649
  16.4367592  38.3260870  74.8078060  15.2428508  37.4210000  74.5924377
  34.0605307 105.3905201   1.5718535  33.3590126 104.9455547   2.0473628
  34.5424819 104.6849251   1.1404654  33.1945515 105.7005692  10.7070744
  33.0939221 105.3430653  11.5892851  33.9875913 105.2845478  10.3690743
  72.7025080  16.2435210  11.6505444  73.6322641  16.4659226  11.6023540
  72.6002216  15.8255517  12.5055707 114.6532154  51.6165829  91.9290066
 114.3810654  50.7842112  91.5425873 113.9481831  51.8405247  92.5364685
  77.2986364   4.8881975  19.1343939  76.8788099   4.7686666  19.9862671
  77.7809811   4.0743327  18.9887834  62.3169565 103.3146954   0.5012644
  63.2705021 103.3900928   0.5373364  62.0012522 103.9680767   1.1254877
  52.5331306  94.9534225   4.3322968  52.4357653  95.9055614   4.3183252
  53.4259462  94.8085308   4.6455416  25.9441900  89.6759033  11.2096417
  25.3796387  90.1966476  10.6383777  25.3482509  89.3009377  11.8580937
 107.9156494  23.9154935  29.7596884 108.7013817  23.9689374  30.3037500
 107.1904945  24.0252662  30.3747773  28.8609862   9.4497842  33.2092190
  29.1600657   8.5451210  33.3006954  28.1331062   9.5249647  33.8262844
  18.0762458  76.9107199  92.1649265  18.5025263  77.7202654  92.4462700
  17.6545358  76.5747166  92.9558086  65.3031445 106.1138248  10.9526849
  65.3264666 106.6987514  11.7100155  65.1555014 105.2447605  11.3257325
  79.5871878  63.3815193  25.7192039  80.3526402  63.9544630  25.6739068
  78.9678860  63.7593985  25.0947785  98.4947777  14.2008066   0.4276051
  98.2227230  14.3862724  -0.4711828  99.0196514  14.9602652   0.6805232
  16.3786769  58.9308548  60.8389664  15.6091428  58.6686707  61.3442469
  17.0509684  58.2928181  61.0780525  82.3149204  14.1637516   3.1511071
  82.7782536  13.3585477   3.3817655  81.4701653  14.0895665   3.5950875
  95.8392239   0.3329482  33.7992311  95.0041485   0.3609158  33.3322263
  96.4881134   0.5931148  33.1454086  30.5112267  64.0695810  88.3593845
  30.0233293  64.2529535  87.5565434  29.9526501  63.4633636  88.8459301
  17.2813582  64.2384100  92.3832703  17.3199928  63.5616302  91.7074776
  16.4586675  64.0710735  92.8430653  71.1871243   9.1703409  34.1419840
  71.7437696   8.3931434  34.0935659  71.7854834   9.8791665  34.3781352
  12.8524303  34.8984909  84.7054863  12.8988504  34.8653817  85.6609917
  12.6070976  35.8025670  84.5087910  85.4744244  35.8929801   3.0074140
  84.9348354  36.6814423   2.9490560  86.3737011  36.2197089   3.0353931
  31.5051460  53.6077785  41.4063454  31.7465091  54.5261574  41.2856865
  31.2296915  53.5507393  42.3212767  99.8532581  12.6643455  46.0382748
 100.3985882  11.8920815  45.8884478 100.2740097  13.3571172  45.5290937
 106.8501186   1.9114396  34.5419574 107.1273518   1.5631075  33.6945844
 107.5483704   1.6573830  35.1453900  91.2993240  13.0181360   1.1125397
  90.9716034  13.5120511   1.8641251  91.9396400  12.4119556   1.4850634
  95.2914906  22.4902248  24.6647620  95.3949738  21.7595673  25.2744007
  95.6806850  22.1776557  23.8480234  24.3357754  81.8526649  76.7607927
  24.4910645  82.7859879  76.9057894  25.0974154  81.5578556  76.2615633
  13.8218081  88.9306831  89.0062714  13.9837420  89.4732189  88.2344818
  14.6946478  88.7111187  89.3321133  42.9882145  67.4869680  76.4717913
  43.2009172  67.2350073  75.5731773  42.0451069  67.6500273  76.4579630
  28.8481665  51.4534378  91.7530537  29.2288256  51.1670065  92.5832844
  28.0438375  50.9413576  91.6690254  63.2013130   1.3784415  88.4408379
  64.0149498   1.4439982  87.9409122  62.5697660   1.0097378  87.8232384
   9.0656316  36.5433645  15.5005240   9.5381123  37.2740102  15.8994615
   8.2405615  36.9260550  15.2021289  30.6087589  54.3826580  75.0249529
  30.2426934  55.2176762  75.3164482  30.2105570  53.7317753  75.6028986
 105.6558609  12.1441078  36.4272404 106.1833954  12.8972948  36.1614490
 106.2154770  11.3869190  36.2548304  46.8982601  50.2421951  66.0036850
  46.0603857  49.9460554  66.3593483  47.0935059  51.0448122  66.4873409
  62.6596022  73.6639500  79.5594978  63.5256052  73.5145140  79.9388981
  62.3672056  72.7961445  79.2808342  49.6381950  63.0814123  91.7539024
  49.0934467  63.8117027  91.4603710  50.4343271  63.1495094  91.2268639
  80.4412365  23.6091614  37.7797484  80.0807190  23.2203531  38.5766673
  81.3873196  23.6191106  37.9249167  32.6115370  56.0889578  80.7128906
  32.9869270  56.9132090  81.0225964  33.1161165  55.4117250  81.1634254
 109.5872974  60.0839567  19.3533528 109.5665264  59.4722366  20.0892854
 108.6679840  60.2027702  19.1146481  82.0778275  10.1541483  40.5751324
  81.3916111   9.5669943  40.8922768  82.8641033   9.6091098  40.5444670
  62.4887848  87.8498077  32.0390844  62.0950317  87.0041656  31.8244028
  62.9782104  87.6882553  32.8456783  75.4323244  18.5716319  59.0511227
  74.6617317  18.0070913  59.1120386  75.5509472  18.9115226  59.9380445
   2.5736177  66.9781542  93.0715466   3.0681750  67.6832199  92.6537800
   2.6093692  67.1817017  94.0061760  90.1832104  49.4538736  12.3249114
  90.8463955  49.8280287  12.9049361  89.4428921  49.2613363  12.9003119
   1.6877259  15.2271700  19.3447316   1.2366551  15.6116581  18.5931098
   2.4236640  14.7485292  18.9632475  29.9151468  34.8995233  88.0951405
  29.8189139  34.1883779  88.7285709  30.8501673  34.9133182  87.8907394
 105.8472252  12.6848507  27.3460412 106.2477779  12.4323928  28.1779361
 105.9829903  13.6308408  27.2921610  31.5878844  39.6023750  90.1086426
  32.4856019  39.4001126  89.8451614  31.2671828  40.1964378  89.4300652
 115.6610395  18.4426141  39.0093803 115.8488413  17.6212263  39.4635653
 116.1041282  19.1116059  39.5312548  80.8947182  13.3044672   0.9501947
  81.3156223  13.7610090   1.6786480  80.2012730  13.8988209   0.6636471
  28.8591456  81.0454082  12.3709154  28.4139442  81.7908287  12.7738667
  28.1502652  80.4876423  12.0505702 106.1376286  33.8856030   5.7908195
 107.0741177  33.8705611   5.9882921 106.0575390  34.4937372   5.0559783
 105.3359318   7.8069627  19.9791753 104.5156193   7.9520917  20.4506135
 106.0153961   7.8975791  20.6472683  12.7220225  52.8701496  86.2542057
  12.4595654  52.1292114  86.8004322  12.8913784  52.4855566  85.3941822
  16.1757827  65.7745314  88.2695866  16.1464310  64.8189020  88.2232094
  16.6789389  65.9605074  89.0623474  64.8242426   1.5921964  41.7907047
  64.7087860   1.2018496  40.9243727  65.4651642   2.2901586  41.6554403
  80.1178932  80.2668476  20.1072502  80.1226425  80.0296497  21.0345840
  79.1901875  80.3051949  19.8745906  75.4365778  17.3875427  50.4110813
  75.7543182  17.5337827  51.3020849  76.1645079  17.6554513  49.8502159
  61.3362598 102.7317238   5.5693567  61.9744539 103.4093380   5.3462404
  60.7383633 102.7104664   4.8221606   8.6030322   1.7815940  34.0356994
   8.3529776   1.6606259  33.1196928   9.4337833   1.3138197  34.1209745
  33.5689807  78.7499666  88.6431694  33.9898252  78.1441927  88.0331230
  32.9089594  79.2005062  88.1162739  99.7568798  26.3235426  32.5836134
  98.8585663  26.6539502  32.5933576  99.7096157  25.5162835  32.0714307
  67.5641108  96.1795139  28.1869483  67.9169655  96.2268162  29.0754819
  66.6543198  95.9063148  28.3047628 112.2008419   8.2554454  22.8997588
 112.2508526   9.0053296  22.3069644 111.5770912   7.6613575  22.4823618
 102.0133305  18.9097023  43.3372498 102.7950573  19.4275773  43.1450319
 101.3164139  19.5575690  43.4411860  78.5037708  29.8672962  32.4004459
  78.5236168  30.4917812  31.6752863  78.8710785  30.3490663  33.1415367
  91.3379574  27.7754879  18.6704218  91.9561100  27.2450876  19.1732168
  91.5459061  27.5833011  17.7560616  94.4569588  35.6196451  43.5547209
  94.7617149  36.0347843  44.3615770  95.1084232  35.8656240  42.8979635
 106.1390209  79.9627972  80.1620388 106.2077332  79.4591761  79.3509436
 107.0136452  79.9155998  80.5480957 101.0210228  47.4789238  42.9289722
 101.8163586  47.9862928  43.0909967 101.2734699  46.5735292  43.1099796
 108.8035965  15.9618616   8.4855616 108.1891060  15.2368605   8.5996014
 108.4189510  16.6825724   8.9844108  95.4674530  38.9835453   8.9917380
  95.0764751  38.1526017   8.7217396  94.8168468  39.3765235   9.5735586
 115.2046299  48.9713955   5.7453912 115.6508350  48.5550117   6.4827925
 115.9122562  49.3191862   5.2026838  96.7335129  38.3408046  28.4273481
  96.7269421  38.7051964  29.3124509  95.8216095  38.3912802  28.1407762
   1.9781533  76.5633917  78.4610844   1.9751249  75.6657314  78.7933922
   2.0154773  76.4664078  77.5095415  93.9478874  96.9105721  34.8510718
  94.3444538  97.7816200  34.8669434  93.6153698  96.8150234  33.9585853
  17.6191235  82.2321415  94.5687199  17.1722865  82.2345829  93.7222195
  17.7662170  83.1574726  94.7645760  15.3336740  79.0538216  92.2955990
  16.1500728  79.5529032  92.3209858  14.7469866  79.5817137  91.7539692
  85.9414577  23.0527306   7.2570735  86.5784740  22.6456165   7.8441828
  86.4486599  23.6966681   6.7627853  22.3025250  16.5448093  24.7794747
  21.6697073  17.2416031  24.9534059  22.4566889  16.1424434  25.6342077
  21.7016768  90.0519085  77.7085638  20.9240007  90.5725765  77.9094553
  22.4335456  90.5847454  78.0195141 114.2556000  42.0550346  23.2608247
 114.9124050  42.7385187  23.3938265 114.6356106  41.4844131  22.5928354
  79.8949385  13.7898493   4.6185964  79.1987896  13.1577814   4.4394314
  79.5881701  14.2729294   5.3859043 100.9985065  14.0953314   7.8174776
 100.4834080  14.5476830   7.1494323 100.7423878  14.5120049   8.6402863
  87.4767303  29.7463608  34.1797352  88.3447552  30.0613189  34.4318414
  86.9489956  29.8378897  34.9730492  99.4796658  39.9924803  16.9725633
 100.0755501  39.3725014  17.3930240  99.4986916  40.7642937  17.5383985
 100.1229572  29.1355515   4.6141404 100.8869839  29.1810393   5.1889640
 100.1877308  28.2763696   4.1971970  97.8377628  79.5887232  77.6268148
  98.1812954  80.4110622  77.2775602  98.3503628  78.9095783  77.1883678
 112.3630333  22.7452803  30.6118464 111.9519520  23.0053020  29.7874475
 112.8976440  21.9848299  30.3835106 100.8260918  39.0367079   2.1810821
 100.2420712  38.9515519   2.9346764 100.3560829  38.6103821   1.4644417
 100.9994411  17.8254557   7.9539227 100.3163052  17.1604645   7.8683037
 101.1575603  18.1231344   7.0580322 110.3468609   7.4886858   7.2272640
 109.5526791   7.3143923   6.7221570 110.9692669   6.8241805   6.9318390
  55.4934311  40.7882309  90.1000595  56.0214186  40.0044632  89.9478340
  56.0713673  41.3754416  90.5873013 112.0282745  15.1050746  26.1187744
 112.7436829  15.2909732  25.5106068 111.9486618  14.1512275  26.1105227
  92.5045204  29.5129466   9.3863648  91.8180370  29.9146676   8.8538277
  93.2797813  30.0499439   9.2225784 103.9192772 105.2380180  51.5026140
 104.4629192 104.7350979  52.1090412 103.6558723 104.6044064  50.8352327
  70.9124851  14.7984588  15.1864457  71.5279531  14.4320631  15.8214164
  70.4625845  15.4956019  15.6637430  71.3655758  24.0845513  13.7647545
  71.8582821  24.1414928  14.5834315  71.8036413  23.3926249  13.2692027
 102.2033596  43.4739733   8.1356627 102.4607849  44.2839289   7.6952910
 102.0851326  43.7263727   9.0513867 103.8740253  28.0107427  30.1501846
 104.2922401  27.4880481  29.4659972 102.9776764  27.6774931  30.1919556
 101.2375546  13.1855428  25.8510828 102.1678734  12.9890525  25.7408690
 101.0234737  12.8503263  26.7217302  71.4537239  12.5657964  25.4040599
  70.8979702  13.3092093  25.6379509  72.3464155  12.8787112  25.5504131
 101.0126114   7.5142914   1.3351957 101.0219955   6.9324738   2.0952168
 101.7987537   7.2779417   0.8429010  97.2372723  16.4067948   9.5758224
  96.3609791  16.0829806   9.3672836  97.1467590  17.3597062   9.5758623
  73.9644623  99.8376656  18.8497114  74.6592665  99.9780941  19.4929576
  73.9177608 100.6611443  18.3639741 115.3563976  11.1827266  12.0755506
 115.1874638  10.9682500  12.9929876 115.8061504  10.4123831  11.7283869
  34.2358899 107.7939510  60.8324528  34.3113565 108.2978630  60.0221395
  33.3386827 107.9485893  61.1279869  14.4233501  38.5524940   2.1212229
  13.8320982  38.0847979   2.7110630  13.8443220  39.0759158   1.5671566
  99.0616989  26.1446214  20.0737691  99.0279198  25.1939774  19.9671662
  99.8786259  26.4045024  19.6479440  99.4618320  31.7726135  29.5293140
  99.7779751  31.4199138  28.6975169  98.5211372  31.5957689  29.5223832
 107.7593422  53.1352234  20.3526068 108.4289551  53.4787226  19.7611284
 108.0827332  53.3457327  21.2285829  68.0871773 108.3284187  28.8365293
  68.0993700 109.2060566  29.2184210  67.2682619 108.2936859  28.3421659
   1.4734206  82.9724121  91.9002056   0.9786449  82.1633625  91.7703438
   2.3558545  82.6795959  92.1278000   6.1947936  16.8277860  92.0680618
   5.5156791  17.4592996  92.3051834   6.5879750  17.1863270  91.2723923
   7.4564624  69.4926786  93.5035133   7.5588679  68.8595104  94.2140293
   8.2536530  69.3985844  92.9821014 104.5751190  18.4601820  35.6268263
 105.2666759  18.8768768  36.1409712 103.7615108  18.7944782  36.0043430
   7.8463554  30.5103540   8.6917460   7.5114495  30.2400327   7.8367627
   7.6251042  29.7850490   9.2758805  47.8410053  77.9323626  89.3103886
  47.6309252  78.7227869  89.8077106  48.4895563  77.4769211  89.8472214
  65.4286432 102.3886204  17.8308654  65.8202648 101.7111111  18.3820796
  65.8528662 103.1998062  18.1105947  20.7158899  43.2177973   6.7834514
  21.4670229  42.6936626   7.0615059  19.9668646  42.8146315   7.2223723
  30.6695437  93.9584064  81.4691734  31.0851431  94.6068001  82.0375824
  31.1743236  93.1574821  81.6103935 111.2685204  36.8739796  40.6549311
 111.6970539  36.6274476  39.8352909 110.4356861  36.4023685  40.6410646
  85.9231853  52.3141384  15.2552128  86.4431095  52.8643894  14.6694350
  85.7846355  51.5047646  14.7633314   5.9126759  23.5550165   6.5786672
   4.9608815  23.6174202   6.6588265   6.0573471  22.7741694   6.0442722
  49.6103954 106.5988636   3.0345151  49.4037437 107.5125408   2.8377491
  48.7589216 106.1870003   3.1814387  78.2820368  70.2189684   2.6361203
  78.8634014  70.6098890   3.2883701  78.6278915  70.5200624   1.7959057
 104.3041801   2.0183064  10.7456696 105.1560879   2.2605984  10.3826749
 103.6758423   2.5510219  10.2581835  24.2966557  73.4691191  90.5085468
  24.9487638  73.0075788  91.0357761  24.2189384  74.3287420  90.9223557
  83.4719086  11.7622495   3.6711296  83.5978508  10.8588791   3.9614612
  83.6850739  12.2925282   4.4389808  41.3360786 105.4540157  33.0286479
  41.5287066 104.9065590  32.2674489  42.0661116 106.0717106  33.0703282
  60.2425146  26.3876629   5.6169748  59.3073416  26.1841369   5.6330776
  60.4104233  26.8092608   6.4597636  45.7296801 101.3977337  12.3796654
  45.1904011 101.7078781  11.6521907  45.6115580 102.0570564  13.0634618
 109.0439796  67.6050329  93.8184261 109.8246670  67.9678106  94.2369461
 108.9196968  66.7545509  94.2396927 103.0963230  69.0628052   6.0236877
 102.4927330  68.4755993   6.4787710 103.5096169  69.5699310   6.7224312
  23.6413240  93.2054996  24.4373012  24.5238352  93.1680870  24.8060894
  23.1020832  93.5636997  25.1423883  84.5216846 109.1666222  17.6914608
  84.5799828 109.0748787  16.7404532  83.9398575 108.4575844  17.9652667
 111.8309975  55.9125090  90.2320862 111.5997887  55.0149393  90.4711246
 112.3262215  55.8235073  89.4177914  97.1945763   5.4335821  26.9675517
  97.4862862   5.1700509  26.0948038  96.3710213   5.8969760  26.8150496
  99.5091152   2.0408651  10.9294796  99.5370388   2.2290690   9.9913794
  98.7510681   1.4661857  11.0360098  81.9634342  54.4599199  15.7834756
  81.2689018  54.0936232  16.3309062  82.0569801  53.8345146  15.0648975
  91.3158417  32.1182632   2.1919714  91.4278603  31.4022803   2.8173143
  91.6339779  31.7632651   1.3619138  28.5544682  69.9841547  88.1824112
  29.4044137  69.6368170  87.9118919  28.4670234  70.8061314  87.6997757
 102.1764946   6.7674869  10.0673330 101.7511368   7.6019502  10.2647722
 101.4636230   6.1287016  10.0702000  24.8546362  65.4795313  83.1033516
  24.6165061  66.2841558  83.5639000  24.7912240  65.7068062  82.1756840
 114.5347214  18.4199083  29.2912745 114.0434933  17.6162863  29.4618964
 114.0135765  19.1106522  29.7005534 107.8159332  48.5646343  26.0836577
 108.2526875  49.3369913  25.7245731 108.4271812  48.2263708  26.7380190
 105.6161880  45.2544832  21.7711473 105.5759811  45.4901648  22.6980066
 106.0544968  45.9962749  21.3541842  45.5266809  90.7440281  90.0309944
  45.7021713  91.2566662  89.2419147  45.6309652  89.8339081  89.7534466
  86.7327785 107.8465843   7.2016078  87.3129272 107.9325867   6.4451253
  87.3244858 107.7368832   7.9459757  37.3434305  67.2796059  68.6713314
  37.8255725  66.5740633  69.1025877  37.0171428  66.8867302  67.8617525
  84.4548035  41.1400557  34.9133778  83.5252380  41.1113644  34.6868443
  84.4689369  41.4000034  35.8344960 115.2284050  49.0529299  13.8057971
 116.1744022  49.0044832  13.6680222 115.0867748  49.9164629  14.1937113
   8.7291455  20.4806399  34.0236855   7.8152013  20.7286668  34.1630435
   9.1197950  21.2393761  33.5901594  71.0137129 108.3406544   9.7483695
  70.7186270 108.0948639  10.6251490  70.3814363 108.9982319   9.4584358
  76.5249729  46.7049026   6.2455958  75.7940435  47.0925283   6.7269653
  76.1180830  46.2922812   5.4837465  89.2293644  30.9509540  24.6299839
  88.8237190  30.8609557  23.7676740  89.2074108  31.8911886  24.8080468
   4.1551477  46.4019299  80.2077103   4.0716368  47.1950626  79.6783686
   3.7094054  46.6133928  81.0279751  46.4398241  66.7676830  26.3183832
  45.9047079  67.5612164  26.3047719  46.9602728  66.8434525  27.1181488
  58.8036871 108.1434155  35.7511783  58.2081556 108.8103676  35.4094911
  58.3273792 107.7485561  36.4815569  91.5886593  24.2734861   3.8521230
  91.0818958  25.0107241   4.1925657  92.1011257  24.6460915   3.1346413
  55.8257389 102.5562382  11.7708421  55.7269478 102.7684212  10.8426988
  56.2348318 101.6908836  11.7764795  80.4224586  23.0152631  43.0285263
  79.7717524  22.3135567  43.0081177  81.1807728  22.6520896  42.5710249
 108.9151669  59.8950815  13.0362713 109.2892361  59.1273499  12.6039517
 109.4032478  59.9697447  13.8562930 102.5113392  19.9459743   0.3795104
 103.0724525  20.4613948  -0.1999085 102.9142570  19.0778124   0.3931000
  19.7524929  69.2586327  92.6560402  18.8872945  68.8665247  92.7740002
  19.6501517  70.1605415  92.9598713  79.0049076  27.4817204  61.5141726
  79.8220539  27.9802132  61.5111113  78.8181829  27.3335958  62.4412251
   7.9820281  38.4678364  30.3717566   7.7691221  38.2977486  29.4541645
   8.8239199  38.0328751  30.5068898 103.6829090  52.7414608  17.3565936
 103.9271545  52.7814531  18.2812428 102.7454281  52.9345417  17.3479342
  25.5267334  35.1361227  39.5752716  24.9352884  35.8874297  39.5310020
  24.9590063  34.3764162  39.4458008 114.2397976  46.2691736  17.5302529
 113.2864380  46.3391876  17.5795698 114.5427513  47.1739292  17.4536252
 110.3694248  74.0441418   3.2868370 109.6778584  74.6231699   2.9663751
 110.1994991  73.9647436   4.2254820 106.2777901  18.1185079  31.3672400
 107.1422672  17.7328849  31.5093470 106.4591026  18.9879644  31.0103059
  43.7224674  79.4434738  76.0325336  44.3025255  79.2418480  76.7667770
  44.3028212  79.7989082  75.3594160   0.7732414  15.2748418   9.5477074
   0.7218375  14.3319702   9.7044909  -0.0477991  15.4890978   9.1047412
  33.5585594  13.1528378  30.7786965  34.3762922  12.6835728  30.6133580
  33.8284206  14.0589452  30.9282804  81.6723061  30.2060199   5.8128732
  81.1080933  30.4559445   6.5446073  82.5606251  30.3751063   6.1267596
  18.7033033  51.0398102   1.2222266  19.2887998  50.6929827   1.8953826
  18.1601059  50.2932882   0.9694886  76.8235302  13.7495232  38.5163164
  76.1707592  13.9948940  37.8606391  76.5378475  12.8911912  38.8291788
  12.2872889  35.6313014  34.6590662  12.0247924  35.5353737  33.7435746
  11.4769495  35.8508492  35.1188302 115.1951122  69.0442085  37.7382445
 114.7193718  69.7238255  37.2607303 115.1285744  69.3055916  38.6566567
  19.7730625  36.3682389  43.0627918  20.0196290  35.8919477  42.2699594
  20.0420213  35.7945323  43.7802553  29.3091726  59.0604925  89.4266415
  29.8631573  58.2829952  89.3571281  29.0965176  59.1205788  90.3579807
  51.5239811  40.1458025  90.6025791  50.9683561  40.2623415  91.3732433
  51.9305038  41.0019875  90.4687119  36.8351817 108.3918285  40.5419397
  36.4469719 108.2609653  41.4070415  36.3731027 109.1499615  40.1842499
  86.3507557  56.6382170   2.1805030  86.5008259  55.9836674   2.8626162
  85.4584217  56.4689589   1.8782958 109.7485352  23.4394693  16.3498330
 110.2267075  23.2228947  17.1502566 110.4019356  23.8514781  15.7845461
  92.8667545  31.5927005  42.8718424  93.2495499  30.8723831  42.3709965
  92.8941917  32.3405409  42.2750044  56.9877863 108.8774490  24.2472935
  56.5399504 109.5230484  24.7939968  56.3808441 108.7123013  23.5257840
  91.1285210  37.0958662  18.9911234  91.3356972  36.1623263  19.0336800
  90.2475548  37.1289468  18.6182439 106.6457367  35.8478045  17.6409590
 107.4266529  36.2858391  17.9793668 106.8098640  35.7569671  16.7023206
 107.6369095  12.2202611  73.2275105 108.0422306  11.3568389  73.1471968
 107.4285412  12.4716675  72.3277283  90.5717659  25.4270029  34.5284152
  90.2608776  24.5249844  34.6055031  89.9331188  25.9433055  35.0201416
  83.1697464  38.9508939  26.8475270  82.5580597  38.4408641  26.3165545
  83.0008316  38.6675286  27.7460837  80.0135040  38.4845901  17.4397385
  79.4032860  38.3941340  18.1716442  80.8699989  38.2808518  17.8154147
  82.6152039  21.0963511  17.0057225  81.9573975  20.9730315  16.3213909
  83.4296513  21.2565184  16.5289974  88.5444164  26.3635063  13.2647514
  89.2500305  25.7177281  13.2285953  88.5104084  26.7308211  12.3814869
  22.9234362  49.9292946  17.9353082  22.2598433  50.1129103  18.6002600
  22.9975486  48.9749956  17.9280126  82.6062584  86.0515404  24.8443127
  82.6224422  86.9823265  24.6215773  83.0053234  85.6178093  24.0900874
 110.5618000  26.0392547  12.8058743 111.2643147  26.4420915  12.2955465
 111.0138607  25.5706334  13.5074937  87.4684906  25.5171967  20.1655960
  87.3911572  26.4526153  19.9778712  86.5667534  25.1961756  20.1587033
  98.7832165  16.3466394  91.0835075  98.9945793  16.3892424  90.1509094
  98.8142967  17.2568929  91.3779640 101.4074612  11.9891310  21.8970442
 101.8948650  12.6374269  22.4053550 101.7073917  12.1157706  20.9969115
 107.4222469  25.9975529  33.8002777 106.8759441  25.6883621  33.0776548
 106.8124199  26.1136961  34.5288754 112.5826836   6.2643373  17.9023898
 112.6910210   5.6332284  17.1909142 111.6777229   6.5651339  17.8200102
 107.8399754  63.8564777  23.0229878 107.0153904  64.1356087  22.6250243
 108.0019474  62.9880762  22.6543736 113.5748959  27.1506786  19.2180097
 114.1995239  26.6274190  19.7202837 112.7179432  26.8033266  19.4654024
  49.0171242  69.8507309  80.8040905  49.2943335  70.2399540  79.9746990
  48.8290882  70.6000137  81.3692951 113.7816143  16.7578447  18.6613381
 113.4211922  16.6140044  17.7863288 113.8706493  15.8794367  19.0310717
  14.0410984  74.3483543  56.8483734  13.2544339  73.8030434  56.8531704
  14.3385780  74.3476391  57.7581739   5.5058777  38.4364343  57.7247477
   5.4937565  39.1740537  57.1148300   5.0105208  38.7448788  58.4835052
  48.3068895 107.4620819  87.4098492  47.4030304 107.5113392  87.0986557
  48.6170197 106.6074181  87.1105385 108.6572456  83.6602783  87.5680828
 109.5209599  83.5890484  87.1616936 108.3331680  84.5179462  87.2931194
  55.4364538  95.5496120  75.0512886  55.0630283  95.2198505  74.2339563
  55.5670834  96.4848518  74.8947668  55.9537029  24.0603662  94.1854858
  55.8651972  24.7887492  93.5707855  56.8928576  24.0099311  94.3634701
  99.8464203  18.2459545  26.1197710  99.9724579  17.3079908  25.9763455
  99.2835045  18.2966065  26.8922925  99.5374584  13.7808335  31.3668346
 100.1718521  13.1386065  31.0485339  99.0278912  13.3082366  32.0250297
   1.9944440  67.0199776  11.8742621   2.4197668  66.2764025  12.3013771
   1.9663689  66.7801952  10.9480071 113.8214493  33.6589789  17.7587235
 114.7586346  33.7542820  17.9285192 113.7034798  32.7253413  17.5836861
 107.0311260  38.9829135   9.6383750 106.5631104  38.1857324   9.3899894
 107.6527119  39.1278410   8.9250332   8.8808346  19.0561008  30.4024935
   9.6760100  19.2021823  30.9149289   9.1946560  18.9074314  29.5105052
 113.0544186 102.1595192  86.8575001 112.7224731 102.8476620  87.4341202
 112.2714615 101.7930031  86.4465618  90.4682159  29.8308158  64.4489527
  90.0606823  30.5970287  64.8527718  91.1341286  30.1936197  63.8648605
  95.9746933  13.1471908  39.2693901  95.8085823  13.6867142  40.0424051
  95.9283066  12.2469020  39.5911956   5.0206035  52.7854109  11.7063808
   4.1377121  52.9323387  12.0457137   5.4256821  52.1940517  12.3407602
  10.2550089  56.5184450  19.8435044  10.7010126  57.1459675  20.4122972
  10.8683527  55.7876968  19.7657025  82.9300690  24.4959450   5.9059542
  82.5152683  23.6462975   6.0552001  83.1794834  24.4817019   4.9819294
  75.9785748  53.5029793   4.5650664  76.3910532  53.9648199   5.2949923
  76.6739273  52.9509544   4.2073154  18.6771572  63.0147839  21.1207867
  17.8679955  63.5121250  21.2396908  18.5790849  62.5990486  20.2641773
  83.2007217  48.0367184  28.8287735  83.1765652  48.4090853  29.7102451
  84.1124821  48.1320667  28.5533953 100.9967422  60.9756660  30.9105849
 101.1243343  60.9887791  31.8591523 101.6773415  60.3863096  30.5854917
   9.8265922  15.2555883   3.7342870   9.1674477  15.9484565   3.6931249
  10.2053738  15.3370464   4.6095702   5.9755784  33.8137460  17.8902185
   5.3337926  33.6760950  18.5869217   5.9533381  33.0037713  17.3806345
 115.0000095  22.5116825   5.3659302 114.7330379  23.4260654   5.2717757
 115.1054573  22.3888898   6.3093460  84.3841648  12.2339153  36.5925670
  83.7340736  12.5294697  35.9551835  84.2399883  12.7908790  37.3575735
  41.9297838  46.1731100  80.3997326  41.5393209  46.6362810  79.6586275
  41.5280581  46.5733528  81.1708736 107.4241924  41.7118216  18.5602427
 107.3240280  41.5044546  19.4893289 107.1102619  40.9303856  18.1052291
 111.7768478  36.3200307  13.7525046 111.0116100  36.4647627  14.3090141
 112.5250530  36.4683318  14.3308020 104.3143940  27.9778290  37.5328684
 103.3728600  28.1133485  37.4261737 104.4330692  27.8517771  38.4742808
  87.5739288  34.9500942  54.7904825  87.9243469  35.1504564  55.6584072
  87.6596069  34.0000510  54.7110605  99.8262787   6.9532531  27.5517201
  99.4803238   6.3817424  26.8662095  99.0636253   7.1754766  28.0857754
  36.0904145  94.9306202  78.1090021  35.7886863  94.3480492  77.4120045
  35.3350115  95.4864883  78.3003283  53.5887384 102.1623421  45.3144646
  53.9786243 101.8679047  44.4913435  52.6465845 102.1659279  45.1454401
  36.5988183   0.7500490  11.0219300  36.4458108   1.6910318  11.1077881
  37.5479484   0.6693375  10.9277332 106.3544655  14.2979372   8.7452585
 106.2787533  13.3643627   8.9425868 106.2336349  14.3529427   7.7973092
  40.8331537  58.5542202  92.1970558  41.3830233  59.2427921  91.8232346
  40.6877804  58.8288736  93.1024075   0.8483556  39.8367667  28.0850959
   1.1591668  40.6864357  28.3976507   0.0052942  40.0267363  27.6735234
  12.4394703  19.5364833  30.4656148  12.0663714  19.5532990  31.3469458
  12.5885260  18.6081195  30.2862978  94.9371433  77.5956011  47.0362616
  95.1432228  76.7814445  47.4955130  94.1102982  77.8853559  47.4217606
  94.6321392  33.8268042   7.3709643  94.3426514  32.9201603   7.2688556
  95.3167152  33.9354372   6.7108202  12.5095165  44.1810274   7.3279345
  12.6039720  45.0665808   7.6787955  12.2604930  44.3112373   6.4129126
 105.7277584  19.2642856  55.9595203 105.7254982  18.3112693  55.8701563
 106.1120892  19.4230902  56.8216705  70.3058052  98.7984848  14.9123800
  71.0927725  98.9738750  15.4282737  70.1606846  97.8573322  15.0093234
  78.9102411  47.0389652   7.5815016  79.5142221  47.3351383   6.9005293
  78.1028128  46.8307447   7.1114683  61.9057798   6.8806380  87.3079491
  61.9978476   6.2774932  86.5704060  62.8032541   7.0413655  87.5993919
 105.0017071  36.2760401  13.2150280 104.7849751  36.4037585  12.2914767
 104.1743660  36.0186315  13.6218214   4.9339414   9.0455031  58.2678509
   4.1521552   8.4932512  58.2601309   4.6472013   9.8608065  58.6793041
  57.6909876  79.2421865  92.3216152  56.9271469  78.7553358  92.0121574
  57.6268864  80.0914097  91.8846416   2.7977061  70.7409859  24.5762014
   3.1429890  70.7901001  25.4676032   3.5634595  70.5556107  24.0326118
  85.4462910   9.5153385  14.7686398  86.0131264   9.4865888  15.5394232
  86.0508728   9.5139712  14.0265417   5.7770205  31.9208121  13.7340474
   6.5035748  32.5420427  13.7832737   5.6786078  31.7409539  12.7990615
   2.5537556  35.3462744  55.6831598   3.0431595  35.0470042  54.9169016
   2.3222740  34.5424390  56.1484528  86.6047382   4.0119267  17.5112247
  85.7570839   3.7721539  17.1367598  86.9040012   4.7466221  16.9755995
 110.6353855  59.1780996  10.5299759 111.4601612  59.1968298  10.0445509
 110.4694271  60.0934076  10.7555914  28.2612824  32.0933771  57.4850368
  28.1802440  31.2240028  57.8772783  27.4226904  32.5174284  57.6671696
 115.4094982  32.6912093  13.0504382 114.7517872  32.2337723  13.5742784
 115.0031757  33.5309148  12.8358912  78.8578939  32.3560357  14.6319580
  79.6801186  31.8917632  14.4750297  78.5090256  31.9617820  15.4313862
  95.5070591  23.0833411  18.9956486  95.6737709  24.0255308  19.0224445
  94.7685337  22.9537678  19.5906365   4.7369394  59.4688129  86.6621304
   4.2673194  58.8604355  87.2327137   4.0469304  59.9580288  86.2140274
 111.0331059   7.2036219  46.7447662 111.0545540   7.5797564  45.8648300
 110.1021671   7.1559626  46.9622564  17.3115981   8.0869091  29.5762682
  17.1836042   8.0176681  28.6301947  16.5315950   8.5440546  29.8906660
  95.9859657  32.9179859  30.9226751  95.3306484  32.2991920  30.6003594
  95.5777073  33.3219767  31.6884136  20.2436447  34.5636797  30.0544190
  20.7328653  35.1175594  30.6627846  20.7436299  33.7482595  30.0178957
  19.1309714  40.3376532  40.0712967  18.8314354  40.7868433  40.8617020
  19.9588513  40.7651615  39.8520231  23.7537885  64.3951702  25.6341052
  23.2342863  64.0078163  26.3385916  23.7595272  63.7291050  24.9466777
   7.4866754  37.5336385  27.7633023   6.8326354  37.6171589  27.0694113
   8.3267742  37.5646996  27.3055911  17.2025311  15.3550470  21.9884562
  17.0286930  15.7831895  21.1501813  16.6570985  14.5685935  21.9733810
  12.2250724  26.6156411  22.8291035  11.5355968  26.0649800  22.4581218
  11.9159889  27.5111723  22.6922607  17.0277917  40.8980894  42.9350948
  17.1104741  41.6674089  43.4986019  17.6793599  40.2831888  43.2721281
  42.4696016  70.2983379  79.5895243  42.2398853  70.5480909  80.4845619
  43.4152317  70.4372263  79.5373249 112.2798252   9.6766245  17.6439452
 113.0034542   9.0641445  17.7761030 112.7028465  10.5297732  17.5468647
  80.7256889  25.3591323  26.9060040  80.7583714  24.4421887  26.6332769
  80.3962040  25.3302503  27.8042459  28.3919287 101.3864708  92.4547672
  27.7163124 101.2681580  93.1224346  27.9086995 101.4262390  91.6294575
  12.9567254  80.0787449  18.5466754  13.1839991  79.1564417  18.6647427
  12.0001805  80.0955963  18.5778165   2.8921491  62.2294855  27.3755217
   3.8063654  61.9797993  27.2409940   2.5360730  62.3201370  26.4916515
 111.4108181  34.4368339   2.7905995 111.0657120  34.8687959   2.0092303
 111.5583324  33.5311532   2.5181705 108.4836864  52.8302813   0.5717833
 109.2535305  52.3354340   0.8523337 108.1341839  52.3312759  -0.1665041
   4.6611509  26.4472127   8.5950100   4.9505475  25.6651974   8.1249762
   4.4840074  27.0884752   7.9067999  -0.0200731  69.7741365  27.5647378
   0.5947285  69.6260500  28.2832932   0.2004814  69.1031551  26.9186902
   6.2059098  78.3068752  15.6318915   6.0953933  77.7711391  14.8463953
   5.9756249  79.1927814  15.3519416  19.6369505  48.9921665  15.1000297
  20.2804875  49.5507431  15.5360115  18.8338649  49.1111851  15.6071007
  32.0253992  58.5121012   7.1836644  32.2485471  58.1389189   6.3309205
  32.7307057  58.2240438   7.7631438 114.0042686  45.4058790   0.8798264
 113.8569450  44.4917488   1.1224984 113.1327820  45.8014584   0.8961657
  26.7633653  43.7716532  15.3601015  27.4853230  43.6354446  15.9736621
  27.1665025  43.6958265  14.4952536  21.5754747  69.7915363  26.0680962
  22.0820117  69.1211033  25.6096530  21.1137342  70.2600956  25.3727698
 115.4054165  14.8703098  67.7933788 115.2478313  13.9959693  68.1496477
 115.7442951  14.7123933  66.9122124 111.2811089  95.4942417   1.6966838
 111.7151356  96.1678696   1.1731532 110.9203529  95.9685326   2.4457796
  48.4603739  83.3141994  83.6179256  48.0469942  83.2204056  84.4761562
  48.4496307  84.2562389  83.4485722  16.5103960  89.4110298  90.2826691
  17.2207379  89.9990749  90.5392647  15.9976041  89.2917728  91.0820770
   5.0594437  69.1091776  23.1065226   5.3132915  68.2150841  22.8776288
   4.9411035  69.5477009  22.2639513  24.7269106  49.3627548  15.7484448
  24.7914004  50.2811480  15.4864717  24.5952702  49.3926811  16.6960776
  57.0169973 107.1060658  91.9112682  57.3700714 107.4225903  92.7427578
  57.7699471 106.7220592  91.4620018  10.6720984  13.3970428  69.9673653
   9.9535453  12.7720022  69.8712492  11.4308548  12.8574109  70.1894426
 108.7799358  70.8770847   5.9682387 107.8576946  70.7890844   5.7275122
 108.9644432  70.1010990   6.4974260  10.2287936  34.1796255  39.8344517
  10.6597006  34.9643898  39.4957876  10.3510761  33.5240269  39.1478157
  44.0742254 103.9241695  91.0075378  43.4170485 103.3599758  90.6000614
  44.1130352 104.6946049  90.4408264  16.8985224  40.3746080  32.3480606
  16.2561178  40.8892727  32.8365970  16.3911057  39.9556637  31.6529036
  56.9249821 102.6953030  82.4588108  57.7906752 102.6183510  82.0577049
  56.6479588 101.7909622  82.6059914 108.5746956  87.0368958  16.0813165
 108.1259727  86.1931038  16.1352170 109.4329166  86.8286228  15.7121158
  15.0872803  80.1928616  84.7723770  15.6475365  79.4190264  84.8317337
  15.1988018  80.6344509  85.6142712 109.5365047  30.5302954  37.8802848
 108.6047554  30.3188443  37.8223395 109.8896885  30.2932119  37.0227981
  23.4979463  51.2023926  10.6547058  24.3584919  50.8032656  10.7827199
  23.0685329  51.1241865  11.5065980 104.9036980  14.2827249  20.9645462
 105.3267384  13.5831976  20.4666185 104.1615772  14.5482635  20.4214287
  13.5787797  89.9574280   0.3722907  12.6353860  89.8322868   0.2694255
  13.9666212  89.4540310  -0.3435346   8.0805618  74.6590757  78.8038349
   8.1663299  74.3326426  77.9081154   7.2097236  75.0554132  78.8319588
   8.8829178  68.8724899   9.1708517   9.7531712  68.6401558   8.8469523
   8.9679402  68.8489676  10.1239777  26.9809008  11.1138582   7.0996338
  27.6318765  10.5151105   7.4656469  27.3254085  11.9867277   7.2884309
  14.2621553 104.7915936  71.2433577  13.5602653 104.9204445  70.6054115
  13.8087046 104.6774387  72.0785761 107.5660324  71.1510277  36.3075495
 106.8649673  71.1058474  36.9576955 107.7764893  70.2366257  36.1183167
  52.0209217  64.6092224  83.7968254  52.3261595  64.2376232  82.9691887
  51.3044453  64.0350389  84.0673923   5.7030159   8.2166433  14.1700351
   6.6342288   8.0084705  14.0942836   5.5918586   8.4892803  15.0808287
 111.9187927   7.5774866   3.6229336 111.9255733   6.8120146   4.1975972
 111.0410118   7.5826365   3.2412028 113.7935543  65.0718164  18.1440914
 113.4164333  65.7922983  17.6392019 114.4692421  65.4843378  18.6821520
  18.3201993  45.8314800  12.5302267  17.4777949  45.7302141  12.0871317
  18.5268855  46.7619276  12.4420440  71.9580555   3.6811018  83.9144421
  71.2237406   3.9372146  84.4724846  71.9629908   2.7245429  83.9491081
  12.7225435  64.6000624   0.8701732  13.4722352  64.0245247   0.7186820
  12.4276102  64.3815374   1.7541945 110.1980782  52.3818398  43.9484501
 109.9463177  52.1064186  43.0669785 110.6582928  51.6259718  44.3132687
   6.1555296  71.2153149  30.2435827   6.5530914  71.9061089  29.7135115
   6.8957454  70.7884693  30.6749940  13.1358194  53.0575371   9.8907757
  12.9718935  52.1232319   9.7625798  13.6686373  53.3127689   9.1376531
 103.1615067  41.4953661  34.5715976 103.0903816  41.6090870  33.6238408
 102.2613811  41.3517427  34.8638058  34.1557193  95.3578854  91.7750740
  34.1386199  96.1830044  92.2599697  34.7294736  94.7897911  92.2891903
   0.5877646  27.5304246  26.5755224   0.0992081  27.8343296  27.3404980
   0.9441955  28.3289504  26.1862302  17.8103280  55.7462025  51.3897324
  17.9296255  54.9068975  51.8342113  17.8786743  56.3983583  52.0870495
  80.3711605  16.6691232  89.0550613  79.8036385  16.8562007  89.8028183
  81.2271786  17.0114470  89.3125057  99.6103001   8.0272746  42.0251131
 100.1011944   8.7955987  41.7336750  99.7077370   7.3961610  41.3120651
   7.3134989  55.9683037   6.0400009   7.9165983  55.2563429   6.2535810
   6.5245843  55.7738209   6.5459865 112.5886250   4.0934825  16.3373518
 112.9429817   3.9311275  15.4631054 111.9099331   3.4276566  16.4481449
   4.2059231  52.4579620  18.7451851   4.8512274  52.6277733  18.0589056
   4.0584770  51.5129662  18.7067795  49.8052454  74.8969984  82.2661877
  49.9212027  75.2625751  83.1431961  49.6559286  75.6592321  81.7067909
  34.3569303  53.8333368  21.2264276  33.9109492  54.1590786  22.0082378
  34.9306846  54.5520830  20.9610152  84.9388504   3.5096112  75.9104347
  84.2390633   2.8885680  75.7083607  85.2659130   3.7885174  75.0551701
 115.2831554  64.9229527  27.0388842 115.2537918  64.6056509  27.9414868
 116.2161541  65.0259781  26.8514538  69.9761915  93.0030727  63.8584995
  69.3375397  92.8697205  63.1580830  70.2856493  93.9001083  63.7328672
  36.3727975  23.4869337   2.1817915  36.0289478  22.7298450   2.6559356
  37.0275164  23.1202459   1.5875588  61.0691833  77.4102831  91.1012554
  61.2967777  77.1575689  90.2065182  61.6759348  76.9151783  91.6516685
 114.5954227  25.3484178  21.8695402 114.9819183  24.5745420  22.2793794
 115.0642872  26.0857773  22.2603059   1.8974470  23.9657545  31.7924428
   1.7434844  23.1011415  31.4116931   1.0213643  24.3136954  31.9587183
  38.2419014  31.0478687  25.2727151  39.0351582  30.8108473  24.7922993
  37.7908802  31.6676617  24.6994185  37.6117015  95.3200054  74.8314476
  37.2056484  96.1267185  75.1485729  36.9151711  94.8749828  74.3487120
 102.5206184  65.4965973   9.8276991 103.3786392  65.8528090  10.0582194
 102.4273968  64.7202492  10.3798079 109.9115276  41.4669466  16.8457139
 109.8620796  40.9383249  16.0492551 109.0015697  41.5616369  17.1272123
 105.6843567   9.0375644  15.3789568 106.4467049   9.5500314  15.6480980
 105.2561855   9.5764917  14.7137845  32.6236844  51.3717794  40.2898264
  32.0438838  50.6110668  40.2526331  32.0862412  52.0639563  40.6748962
  48.2572985 105.2927208  83.6337566  48.6850786 105.4943752  84.4659615
  47.5842905 105.9670067  83.5408306  13.2819271  69.7335148  25.4778290
  13.7053049  69.5092726  26.3065028  12.3454142  69.6488380  25.6567311
 110.8793354  22.6001835  37.5180387 110.0630569  22.8890085  37.9260802
 110.7814980  21.6519189  37.4316812 102.6727581  55.1762915  19.7085416
 103.0327320  55.4987574  20.5347800 102.3694515  54.2907810  19.9088049
  17.2108006  37.0515418  26.9546795  17.5946248  36.4612842  27.6031446
  16.3397682  37.2507167  27.2979927  21.9686484  58.8339663  37.6466942
  21.9530034  59.1291332  38.5571146  22.5033522  58.0401707  37.6614189
  29.4622469  61.5762043   1.0487240  28.9761615  60.8201885   0.7194943
  28.9181519  62.3294115   0.8187943   8.3616132  52.5438261   2.6870906
   9.1885632  52.8767824   3.0356926   7.8917015  52.2184610   3.4549153
  81.5630150  62.3826170  41.5521622  81.6797638  62.4819613  40.6073189
  82.4261856  62.5697470  41.9211435  89.2650223  17.0961165  90.3361034
  89.1745567  16.6353869  89.5019722  88.5603523  17.7439010  90.3295803
  20.8702540  12.3037386  21.1519766  21.5264606  12.3378265  21.8480110
  21.1245823  11.5498996  20.6197405  25.3641677  27.8107262  93.5188484
  24.8308444  28.4242678  93.0135155  25.5351567  28.2651329  94.3437767
  72.0062256   6.8195236  86.3498402  72.7441072   6.6633940  85.7604408
  72.3955297   6.8268079  87.2242641   9.3437755  23.2165456  17.2294533
  10.0359583  22.5675511  17.3556364   9.6957195  23.8174868  16.5727675
  71.7049408  28.6574173  91.2741566  72.3644209  28.9940810  90.6675339
  72.2041273  28.3875799  92.0450211  38.1496143  72.9200125  15.7307458
  37.6202774  72.9879427  16.5253651  38.4523487  73.8132906  15.5675316
  27.3776531   3.9478794  83.8679123  26.9681430   3.7381890  84.7072887
  26.7573452   3.6288062  83.2124424  15.8056164  27.9772067  15.0017035
  15.1039517  27.3452377  14.8451293  16.5689611  27.4399543  15.2135921
  23.3821011  11.3157988  76.5814638  24.2933798  11.0646904  76.4306402
  22.9191375  11.0193384  75.7978773  83.6017227  28.1539440  51.5805101
  84.2132282  28.4534693  50.9077740  84.1610527  27.8741241  52.3051405
  41.4012003  24.6518564  79.1803598  40.9785748  24.7826695  78.3315325
  40.6801558  24.6547484  79.8098993 107.2120285  28.5417175  75.8318663
 106.3899040  28.1323814  75.5620861 107.7456665  28.5536909  75.0373077
  63.6544132  64.4362307  16.1256158  63.1586790  63.7893391  16.6276169
  64.5489550  64.3633270  16.4583516   2.7513039  39.3325353  82.0793438
   2.7638558  38.5350418  81.5501213   1.8267137  39.5763373  82.1232319
  86.9499207  31.6359425  52.3118687  86.3232327  31.9222236  52.9763508
  87.2742844  30.7953167  52.6349354  46.2367821 106.8266964   2.5975090
  45.8515596 106.0062504   2.2897726  45.9890556 106.8761444   3.5207739
  26.2715578  96.0173988  27.9623795  25.8598232  95.9246063  27.1032548
  25.6510711  96.5402985  28.4701252 110.5334759  44.3888950  83.1719112
 109.9800587  43.6514759  82.9146671 110.1635647  44.6876001  84.0026760
  41.7381430  38.7920952  74.9371195  41.4654732  38.0169201  74.4462156
  40.9192181  39.1829634  75.2417898 112.6172543  36.0014296  64.0511131
 113.5427952  36.1794448  64.2181730 112.5808907  35.0596762  63.8837481
  62.9590654  80.7845688   4.7769195  63.2738400  81.1940098   3.9710021
  62.3790884  80.0838375   4.4788599 106.5361881  47.7330542  39.0425158
 107.3259163  47.3000097  38.7184215 106.8585873  48.5149574  39.4907475
   7.8897750  98.0953598   2.5780767   7.2702014  98.8248444   2.5924116
   7.5031120  97.4412346   3.1601888  30.7535172   7.9861534  58.0712748
  31.1518884   8.8563997  58.0855465  31.2455034   7.4868023  58.7230635
  19.6012843  55.9380150  94.2721081  19.7387111  56.4649343  95.0593185
  18.8121700  55.4294920  94.4590092  11.7868292 105.2382565  86.6760254
  12.1992958 106.0785675  86.8759823  12.4078488 104.7988319  86.0951042
  29.5703387 100.5345249   4.4817889  28.9846897 100.0518990   5.0651562
  29.5074296 101.4428520   4.7771087  13.1487179  26.1294055  72.1225071
  12.9271054  27.0549846  72.2246027  12.4643838  25.6647301  72.6041651
  94.9332619  41.9716454  64.6377850  95.0483799  41.0918713  64.9969149
  94.4651127  41.8347740  63.8141727 114.3483257  15.5294514  94.2906475
 115.0547791  15.3347659  94.9064827 113.6001968  15.0306845  94.6189022
  20.4258490  83.8454342  91.6668224  20.2030683  84.7550297  91.4687252
  19.6358943  83.3518887  91.4463329   5.4092669  19.8660374  71.1540604
   4.8693541  20.0198460  70.3787756   5.3751057  20.6915712  71.6373396
 100.6403351  38.5353518  92.2810841 100.8976841  37.6135921  92.2620296
  99.7472954  38.5276222  92.6255322  11.0577452  20.5156231  67.5675201
  10.2014422  20.4084539  67.1534061  11.6567338  20.0173306  67.0115089
  26.6832685 105.6406879   9.6913719  26.3801599 106.4867878  10.0207388
  26.7003584 105.7461357   8.7401515   4.2073989  15.2954483  61.3441515
   4.2874485  14.4155931  60.9758043   4.8228306  15.3051150  62.0772171
  39.5939922  87.4883938   7.7613056  39.5248055  86.7206001   7.1939093
  39.5991921  87.1304798   8.6490560  18.8412154 106.7312527  81.1693001
  18.5884655 107.4446774  80.5833149  18.5206914 107.0027924  82.0293903
 108.3556080  31.0931730  84.5403481 108.7408161  31.9398999  84.7659397
 108.2655239  30.6400347  85.3786659  72.0875406  57.0852566  15.0489926
  71.5009928  56.4366245  14.6597946  71.8545818  57.9077625  14.6183586
  50.6697273  22.9444003  60.2233315  49.9118662  22.4016476  60.0058460
  50.3053808  23.6757684  60.7219124  32.3039603  34.8959708  87.0201492
  33.1207085  34.4142270  87.1508312  32.5592065  35.6673408  86.5141106
  89.7568989  -0.2346044  20.9770465  88.9694309   0.2573283  20.7443953
  90.2851486   0.3837135  21.4818907 100.4619026  27.2475958  86.2477207
 101.1108875  27.6315665  85.6581306 100.0415897  26.5625739  85.7277966
  28.4717965  14.2659509  81.1415482  28.7607002  13.9177680  81.9850731
  28.5994482  13.5428059  80.5275536  98.6477375  96.3201237  14.9635625
  99.4685555  96.1666965  14.4956446  98.3830166  95.4539394  15.2731884
  23.3904195  81.7059803  24.9611306  23.3339715  80.7752132  24.7449923
  24.1825914  82.0075226  24.5164156  77.0963430   8.9315820  10.5084372
  77.2139978   9.0190721  11.4543414  77.5379705   8.1117356  10.2869666
  82.6846123   5.9903187  25.8101821  83.6067104   5.9355134  25.5592656
  82.3031425   6.6086107  25.1869440  22.6025319  32.7139163  85.6533432
  23.2852077  32.5250673  85.0095081  21.8318105  32.9305601  85.1286697
  36.0735393  45.7839680  88.0002689  36.5738034  45.8316517  88.8149452
  36.4418268  46.4768982  87.4521446  41.1313963  29.1173267  84.2141533
  41.7664433  29.5114875  84.8121452  41.6554117  28.5512924  83.6473751
   1.2925947   5.4924190  85.6426334   0.9520330   4.8477638  85.0224113
   0.7851275   6.2848556  85.4672623  34.7699285  23.6427665  68.2230663
  33.9120913  23.4622741  68.6074781  35.1284242  22.7785635  68.0209064
  14.0051544  39.7659397  60.8149672  14.4619226  38.9326143  60.7002449
  13.4899986  39.6488023  61.6131687   9.5005620  23.8625956  72.4196339
  10.0277507  24.2449975  71.7181540  10.0969136  23.8111496  73.1665945
  83.5075092   2.4646488  44.0412426  83.7561035   1.6836677  43.5467720
  83.8773727   2.3240905  44.9128389  30.0485873  24.3141127  77.4104881
  29.6060348  24.5965767  76.6101170  29.4023156  23.7720680  77.8629827
  17.6482558   2.8122246  12.2465360  18.2548487   2.9929247  12.9646051
  18.0131388   2.0406672  11.8131864 102.6202679  38.2286096  76.8870640
 102.0393181  37.5320435  77.1928930 102.5120163  38.9300179  77.5293589
 100.5533409  49.8877430  66.9076395  99.9696541  49.3282413  66.3952971
 100.4233646  49.6043730  67.8126478  97.0979500   8.5479915  10.9505618
  96.7163372   7.6744288  11.0371149  97.6823044   8.6298412  11.7042637
  76.5529490  97.8959656  25.5282402  76.3766909  96.9627094  25.6474280
  76.2079716  98.3079433  26.3203859  44.4588041  52.1774197  54.7011185
  44.4979668  51.2272024  54.8096752  43.5458326  52.4016380  54.8812246
 111.4979649  27.7999711  86.8699646 112.1981621  27.9086709  86.2264252
 111.9132423  27.3419070  87.6006889  87.7459908   7.3732764   1.9214079
  88.2841969   6.6152960   1.6933109  87.0171547   7.0074087   2.4225801
  33.0577898  41.3573265  75.3923750  32.9184341  40.6606150  74.7509670
  32.5778484  41.0679865  76.1683702  94.7518921  55.7342529  93.0623245
  93.9701176  55.1857281  92.9975986  95.2693176  55.3324127  93.7601948
  22.1447372  48.7469196  85.7669163  21.4211416  48.3163166  85.3116989
  21.8008757  48.9336586  86.6404819  66.8259096  91.4192486  41.7767096
  67.6545906  91.8523026  41.5718126  66.4191484  91.9805241  42.4368191
  46.9176769  41.7819452  75.7049656  47.3445320  41.9220781  74.8597527
  47.0261049  40.8463860  75.8758593  90.6402397   9.3639654  15.7533574
  90.6113529   9.1121489  14.8303270  91.4104462   8.9138877  16.1004186
   8.0275822  55.7175064  79.9415302   8.8543862  55.5486631  79.4897366
   7.5016636  56.2022209  79.3053770  35.8350205  53.1751156  15.6000626
  36.4344835  53.0946493  14.8581719  34.9625850  53.1449175  15.2074134
  69.2118931 100.6151485   6.8042082  68.3183622 100.2718735   6.8029463
  69.1262579 101.5071583   6.4677334   9.6390456  58.4637451  91.0243797
   9.3821633  57.5464630  91.1183929   8.8105965  58.9399385  90.9683037
   0.1370481  52.9092264  89.9606514   0.4162077  52.2503424  89.3249035
  -0.4691931  52.4440765  90.5371380  20.6952715 101.5648365   8.9851898
  21.4572692 101.2616444   9.4788158  20.1759624 102.0543766   9.6230751
  23.5925269  25.0875044  81.5326977  23.5078359  24.2155027  81.9182777
  22.9019046  25.6021547  81.9503212  55.8566666 107.3760319   6.1767119
  56.6410065 107.5508213   6.6967976  56.0523415 106.5608215   5.7147831
  32.6546025  35.6185937  52.1816635  33.5290384  35.2387166  52.0963097
  32.3017836  35.2300906  52.9821777 104.3494320  92.5273418  33.4282231
 103.8660908  93.0061150  34.1015673 104.9421978  91.9575787  33.9183617
 103.0438614  82.7775669  78.3806419 103.4896088  83.3058834  79.0427732
 102.2667789  82.4405003  78.8264704  85.4797459   4.1171765   5.4384208
  85.0132275   4.3196300   4.6274912  86.3843250   4.3783775   5.2659529
  87.2279167  60.1552963  93.2274246  87.7671814  59.4092369  93.4897614
  86.6201401  60.2796030  93.9563847  87.7661228  14.2432439  16.8371069
  88.1388855  13.7935722  16.0787725  88.2447433  15.0708640  16.8839443
  63.9923763  95.2484226  23.8610768  64.2066240  95.4386520  22.9477620
  64.5640421  94.5168114  24.0938163  19.9532259  38.0835152  80.0358009
  20.2004313  37.3838592  80.6404495  20.7685733  38.3147526  79.5908642
   5.8746964  27.9951024  68.9713049   5.8776200  27.8745317  68.0217314
   6.4094663  28.7758279  69.1152573  31.5002251  81.6456795   1.6371721
  31.7867374  81.3535976   2.5025192  32.3093772  81.7300320   1.1328028
  37.6944828 106.2745190  14.8240077  36.8380737 106.6417789  14.6051073
  37.5731206 105.8827782  15.6889009  34.4018912  69.5973301  17.7449405
  34.0556788  70.2811527  17.1715701  34.8772478  69.0100098  17.1572971
  37.1933222  12.2315264  82.1220684  36.4697790  12.4612176  81.5390110
  36.7811370  12.1039248  82.9765034  82.6241016  80.6920910  10.3002298
  81.8199444  80.4757595  10.7722032  82.5983238  81.6443920  10.2070582
  38.5961938  83.3632851   4.8957184  37.6586676  83.4890079   5.0422454
  38.6460757  82.6397514   4.2710292  54.3792772  34.2650938  73.2620382
  55.3350019  34.2992902  73.3027267  54.1809034  33.3519483  73.0545568
  60.9580708 102.9537582  14.5872951  60.2587080 102.6266384  15.1530814
  61.7399311 102.9377365  15.1392686  12.9555690  19.7477555  93.2356453
  13.1092858  18.8189709  93.0625534  13.8317347  20.1240277  93.3192158
 114.6411610  53.5297060  82.2863770 115.0614548  53.6279154  83.1407452
 114.2145824  52.6737499  82.3262882  63.5710955  86.6867733  18.3488214
  63.8464260  85.7753086  18.4470773  62.7123022  86.7242718  18.7698948
  16.3162971  37.6058602  91.7005730  16.2994456  37.0361161  92.4695587
  15.6180394  38.2413816  91.8579960  44.1627789  90.6771851   3.5716292
  43.7524509  91.3592052   4.1033337  43.4285021  90.2093697   3.1738675
   7.1059102  50.2346182  75.3579950   6.9570404  49.8974562  76.2413883
   6.5103483  50.9801817  75.2826643  12.9642391  20.3394103  27.8374195
  13.0525517  19.9751115  28.7181664  12.8977978  19.5736027  27.2670197
  43.2243633  73.1678772   0.3541002  42.4110126  73.6661768   0.4340229
  43.9051533  73.8341188   0.2598752   0.3463928  86.1945438  63.2691622
   0.5334131  87.1006203  63.0236483   0.9830368  85.9961796  63.9558697
  35.0671363  11.5218329  88.8932991  34.2312407  11.9514191  89.0748596
  34.8399496  10.6011569  88.7630081  59.6586943  34.8112416  57.8526878
  58.7681484  35.0966549  57.6484966  59.9935532  35.4801083  58.4499454
  93.1671238  33.1757307  87.8689003  93.5080051  32.3139977  87.6292133
  92.2468376  33.1506276  87.6068497  18.9793277  33.6676455  90.9082699
  19.0393424  34.5675206  90.5875587  19.8049498  33.2629728  90.6421471
 110.5868435  38.7821126  68.3050346 111.4380169  38.6031675  68.7046719
 110.5918217  38.2745719  67.4934864  44.3781710  52.0246840  69.7005796
  45.0049734  52.7477455  69.7237492  43.7119055  52.3052883  69.0732145
  16.6117465  98.0766678  75.1678085  16.9969237  97.5120258  75.8379173
  17.0973361  98.8984776  75.2390432  19.5101547  54.6467686  82.8736591
  19.0479708  54.7737265  82.0451069  19.9110997  53.7812376  82.7940750
  37.8827071  46.0809660  77.9485083  38.3484697  46.7597771  77.4601316
  37.1674275  45.8174801  77.3695612 103.8247776  31.5438557  93.4485435
 104.5496368  30.9187174  93.4444046 103.9820671  32.0878696  94.2202568
  16.5951860  31.9006491  93.7481117  16.3698280  31.7668605  92.8274918
  17.5491798  31.8268967  93.7743282  21.9553971  42.1787214  61.3537979
  22.6446104  42.5247669  60.7868147  21.2100697  42.7612782  61.2076998
  97.6336670  35.0220180  17.0289457  98.1174946  35.4577255  17.7305841
  97.1590805  34.3160653  17.4678421  86.5506268  83.3088303   5.6039363
  86.1181831  83.5067368   4.7732416  86.7534828  84.1660118   5.9785396
  10.9914339   9.3150669   6.4469528  11.3305581   9.7398198   5.6590372
  10.4850745   8.5717845   6.1192912 103.0404949  25.6960607  20.7942510
 103.8639355  25.3851676  21.1704397 102.5616741  26.0639739  21.5369558
   5.5902612  72.5966358  55.1853323   4.8525715  73.2041836  55.1312399
   6.3541293  73.1264639  54.9572563  80.6961918   5.2026480  40.4460478
  81.1638165   5.7839161  39.8463130  81.3875961   4.7268057  40.9062290
  69.8117018  80.5185032  19.5765257  70.3005886  81.0163116  18.9212275
  70.0174046  79.6035433  19.3847954  89.1462326  79.3962193  36.2949753
  88.4309292  78.9673758  35.8252192  88.8781071  79.3718481  37.2135329
 108.0734444  56.7569828  91.9696999 108.4687519  57.3419571  92.6160526
 108.6391354  56.8319321  91.2011909  75.1007605  14.4956529   9.2355436
  75.8526373  14.0164518   8.8872957  74.7346020  13.9148641   9.9025100
  69.6014690  96.9410896  16.8328333  69.7308540  97.0634174  17.7733266
  68.6555004  96.8341541  16.7331123   8.2315779  28.4645891  84.2509842
   7.4605763  28.8110209  83.8017941   7.9933649  27.5654173  84.4767666
  78.7256098  26.9062138  48.1451225  78.7133837  26.9268918  49.1020203
  79.6333885  27.1018052  47.9129124  92.7258492  26.0462046  28.2141709
  93.6066151  25.7051444  28.0587649  92.5572300  25.8619261  29.1382051
  43.0317783 102.7985096   2.5915062  42.3457909 102.9618263   3.2387960
  42.6842451 102.0919132   2.0472881  24.4703794  39.7933531  68.9618587
  23.6528802  39.4204950  68.6318541  24.3683195  39.7896409  69.9135971
  17.2688675  58.5741901  52.6412106  17.4337494  58.2386446  53.5223770
  16.3462198  58.3777237  52.4788618  55.4741526  93.6778736  23.9290500
  56.3233709  94.1025639  24.0502930  55.4448128  93.0030727  24.6072936
  36.3767338  55.4679298  81.3458633  37.1525192  54.9197483  81.2280369
  35.6726241  54.8484898  81.5375805  13.3105063  74.4398975  62.7919960
  13.0831563  73.5103321  62.8131342  14.2402792  74.4642735  63.0181837
  30.6621981  80.1189327  14.6895373  30.1007438  80.2263355  15.4573035
  30.0576186  80.1283550  13.9474940  21.7107320  24.6363831   0.4503493
  20.7927203  24.7326493   0.7037687  21.7474461  23.7930560  -0.0009644
  22.8369570  51.9957876  65.0940847  22.2886133  52.3018742  65.8164883
  22.2607183  51.4317131  64.5783329  41.2907171 100.6561089  42.4502611
  41.2751818  99.8526382  42.9702806  41.2250614 100.3559780  41.5437031
  88.3993626   1.8591103  14.7844410  87.4480438   1.8495402  14.6789443
  88.7222099   1.2736994  14.0993905   5.8876175  52.5141621  77.7558279
   6.7705053  52.6440763  78.1020403   5.4092354  52.0946932  78.4709692
  30.2725124  78.0170059  22.8522515  29.6318293  78.1230593  23.5554671
  29.7445536  77.8722000  22.0670629  22.4230361  72.2828960  87.2714329
  23.1571412  72.4742460  87.8551292  22.3200846  71.3324738  87.3197079
  41.7615891 107.2098064  29.3024039  41.0990763 107.2531796  29.9919152
  41.3374233 107.5993729  28.5378432  38.1305909  70.6540108   5.1812756
  37.8422022  71.2102747   5.9049010  37.6638746  69.8287249   5.3128630
  72.1485996  14.6757925  21.3719296  71.3740492  14.5652640  21.9233680
  72.3123360  13.8042974  21.0114861  16.8961394  23.1803226  32.6657844
  17.6116598  22.8582573  33.2139993  17.2794890  23.9064479  32.1738338
  60.7212448 105.6097126  15.8731282  61.0359049 104.7460270  16.1400855
  60.5504942 105.5230713  14.9352753  59.7945166 108.4621525  38.9801216
  58.9070511 108.2763958  38.6733198  60.3411722 107.8109932  38.5403514
  30.5661368  29.7279596  61.5250540  30.3206134  30.6488085  61.6144085
  31.2308097  29.7230482  60.8362722 114.5654011  59.7717714  61.1605740
 115.2973747  59.2889547  61.5444183 113.8277245  59.1634035  61.2047768
  17.7320218  45.0485134  69.4368982  16.8761528  44.8091459  69.7924566
  17.6003551  45.9189939  69.0611935   8.6270469  63.2417727  73.9213037
   8.3002359  62.8861618  74.7477198   8.2167387  62.6989746  73.2480621
  41.2750101 102.5615692  24.4903398  40.9062672 103.4228039  24.6866441
  40.5889654 101.9439316  24.7435164  14.1378331  57.2516918  80.5447769
  14.6062362  56.9359255  79.7720385  14.7050810  57.9322004  80.9072208
  68.3055687 108.9227867   8.9356667  68.1991911 109.8589039   9.1047961
  67.5016499 108.6683750   8.4826559 111.9560337  62.5408363  87.7012062
 111.7702675  63.2258272  88.3434772 112.9094791  62.4565792  87.7098751
  81.2094975  28.4684348  89.0819550  81.7438412  27.9161167  88.5112953
  80.4818344  28.7515926  88.5282898   1.6758665   5.0867027  68.3722973
   0.8943845   4.7712675  68.8261890   2.2443628   5.4104894  69.0710163
  19.5743704  59.7715187  68.8235569  18.7146938  60.1908255  68.7865400
  19.6963930  59.5565653  69.7482920  46.4557695 106.6169739   9.9822456
  46.1855602 107.2651672   9.3318164  46.4306831 107.0883846  10.8149362
  37.3748088  41.5531063  92.9677486  37.9676366  41.3052559  92.2582722
  37.9355454  41.6033316  93.7418842  56.4058638  91.2311363  17.4133945
  57.2953320  91.0196018  17.1299589  56.1388302  90.4807472  17.9442871
  46.0968828  69.3201160   7.7524728  45.4764700  69.0843534   8.4422088
  46.5285158  70.1099014   8.0782968  97.1293068  33.8643217   5.9021932
  97.9947090  34.2719388   5.9361774  97.2395515  33.0298162   6.3579094
  19.7884929  14.4614410  16.9627738  20.7122588  14.2365229  16.8518591
  19.7801876  15.4166758  17.0235229   0.3547666   5.1576513  76.4008474
   0.8936558   5.4344827  75.6597710  -0.5453242   5.2342367  76.0842943
  24.1251159  38.3049464  36.4414263  24.3733168  37.9631639  35.5824661
  23.4131289  37.7338696  36.7298293   8.4415537  31.3893867  50.1273775
   8.2684648  30.6670737  49.5236063   8.8811958  32.0494437  49.5913982
  36.6876411  42.7522755  87.9591942  36.2916279  43.6070156  87.7894115
  37.5183654  42.9544401  88.3896160  89.9298668  51.8709803  22.9811168
  90.3699207  51.3411951  23.6458778  89.5662117  52.6112366  23.4669256
  56.1261845   0.3609995  12.5229537  56.2992382   0.1994788  13.4504211
  55.2964354  -0.0849153  12.3529279  44.2476177  18.0204213  11.1810291
  44.6401453  17.8471518  10.3253818  44.9893284  18.0370522  11.7858589
  13.2578778  77.4120903  86.1756802  14.0684283  76.9050026  86.1298084
  13.4554493  78.1250715  86.7830086  11.1025000  63.9234686  74.8340654
  11.8042493  63.5299778  74.3154716  10.3310657  63.3929968  74.6347666
  92.8133774  25.0098920  11.0155702  93.3558846  25.5572844  11.5832615
  92.9501629  25.3659701  10.1376581  50.7231188  76.7237234  58.8879013
  50.1419353  76.1177588  59.3475342  50.2339077  76.9776869  58.1053352
  71.9838428  35.5308700   3.8183621  72.6860332  36.1002970   3.5038555
  72.1684456  34.6804333   3.4197265  33.2893801  37.3698568  91.1262798
  32.3429060  37.5121880  91.1390495  33.4015679  36.5479541  90.6486607
  41.0762691  93.9440250   8.6943132  40.2365017  94.3719959   8.5273731
  40.8844185  93.0082130   8.6336458  53.1429863  77.4018812  77.8400517
  52.9930639  76.5339518  78.2148218  53.8545275  77.7694798  78.3642817
  88.9654636  16.1567998   4.2197812  89.6671963  15.8230114   3.6608696
  88.2275009  16.2887979   3.6246082  10.8916581  39.4392586  85.4771137
  11.3508356  40.2261829  85.7706070  11.3843012  38.7158871  85.8647537
 111.0256290  69.8799181  37.0226789 110.1145172  70.1636648  37.0975018
 111.2452602  70.0200462  36.1016130  55.7520485 106.2343407  28.8490915
  56.6727257 106.4222622  28.6666918  55.3484154 107.0956612  28.9560556
  94.7686291   5.2494121   1.9271684  94.7074795   4.3880415   2.3401259
  93.8911533   5.6210822   2.0173168  64.9138212 101.8730545  15.0198114
  64.4010401 101.3565540  15.6415164  65.7198429 102.0839500  15.4910660
  75.2031898 109.1155624   1.4833060  75.6649637 109.4795513   0.7279890
  75.6938076 108.3242416   1.7054413  43.6089802  22.6168489  78.3118773
  43.7452936  22.3479056  79.2203474  42.9173565  23.2769203  78.3587027
  26.2127066  72.0514393  94.3989468  27.1692681  72.0586205  94.4331360
  25.9969473  71.2670279  93.8945866  10.9480321  23.3512330   9.7725672
  10.4854977  22.5685978   9.4729406  11.0033143  23.9086509   8.9963853
  31.2411213  36.2589788  83.8457203  31.1529541  36.9265461  83.1654167
  30.6508136  36.5471101  84.5419598  88.8108253  51.3877583  93.1959438
  88.8017654  51.5632200  94.1368771  88.6317730  52.2369766  92.7922058
  27.7629733  58.6821508  65.4746056  27.0332336  59.0949392  65.9364653
  28.4976149  58.7421989  66.0852861  93.6672974  28.2325554  71.9623089
  93.8683224  29.1574240  72.1052599  93.2987976  27.9361367  72.7945232
  29.8948479  17.6433146   6.0710120  29.1977286  18.2351089   5.7881081
  30.6992602  18.0487645   5.7473373 102.5985622  40.0281286  91.1868858
 102.4375725  40.0995874  90.2460289 101.9421291  39.4035220  91.4954376
  40.6312132  48.7309456  94.2950821  39.6960092  48.8692141  94.4451046
  40.9854937  49.6105576  94.1647148  31.5256405  47.3712301  86.2525082
  31.2513328  48.0061674  86.9142056  31.8357396  46.6188717  86.7565250
  11.4259708  14.9186552   5.9398586  12.1627069  15.2182043   5.4072028
  11.2523544  15.6450045   6.5386111  31.1639428  71.7351866  80.8329487
  31.7609501  71.1955690  80.3146553  30.6573248  72.2231150  80.1837254
  99.9812889  12.5029171  16.0451436  99.9318886  12.6169407  16.9942427
 100.8053493  12.9214573  15.7961905  39.5201063  99.2841148  30.8475137
  40.4769802  99.2607117  30.8562756  39.2994237 100.1677132  31.1420798
 113.6040974  39.4329643  73.3766174 113.5438251  38.4973598  73.1836271
 113.6241722  39.8539829  72.5172138  20.1474881 106.4961433  92.7803707
  20.5610061 106.1905289  91.9730091  20.8274984 106.4036179  93.4476471
  64.4179153   7.6738417   2.8503519  63.9319897   8.3108276   3.3741409
  65.3170681   7.7345723   3.1729555  19.4822419 103.2876015  10.8881283
  18.8196921 102.6861191  11.2279618  19.0058672 104.1018295  10.7258630
  64.1485310 104.4998074   4.3804660  65.0903416 104.6599102   4.4403768
  64.0722990 103.7242985   3.8245919 111.8144131  22.0505619  62.9149055
 111.1558342  21.9742250  62.2244883 111.3992023  21.6638017  63.6857843
  12.2873569  50.2630806  78.8135624  11.4520037  49.9822235  78.4400129
  12.8191471  50.5057859  78.0555868  56.4463234 106.1151981  25.0424933
  55.9194946 106.4497185  24.3166947  56.9720936 106.8645954  25.3221226
  16.6319716  45.3427458  83.1667519  16.9931722  45.6920338  82.3520374
  15.6941104  45.5258369  83.1108570  93.1863976  27.4741554  40.2461147
  93.4137154  28.0339575  40.9885311  92.3807049  27.0335460  40.5162334
   9.1383791  51.5011597  52.8166723   9.8428077  51.8356514  52.2615767
   8.3930820  52.0711851  52.6273680 101.0994148  31.2480831   7.8768629
 100.9376621  32.1502233   8.1529301 100.3883743  30.7449985   8.2738000
  28.5354924  56.6902637  76.8358088  29.0304947  57.2268867  77.4548721
  27.9084969  56.2137318  77.3798943  56.6141129  93.7113094  18.5803092
  56.5495729  92.9136944  18.0550814  57.4946880  94.0430260  18.4048450
  18.4537518  42.0733261  82.2152233  19.1907322  42.2061205  81.6190243
  17.6902354  42.3753405  81.7232323  26.7287326  54.5253134  71.9898224
  26.4260674  54.9914646  72.7691364  26.9638658  55.2180910  71.3725662
  48.8136578 100.5159378  23.3570123  48.5808897 100.3606510  22.4416208
  48.9114571  99.6403217  23.7311363 110.6954288  57.0410633  93.8084316
 110.6886387  56.2815046  94.3908978 111.4053249  56.8633842  93.1914139
   4.5332661  44.8284101  56.3044071   4.2789805  44.9025869  57.2242308
   5.4683071  44.6252489  56.3300419  26.8025064  36.0888267  83.8541889
  26.7471790  35.2890182  83.3312416  27.5250196  35.9285641  84.4612503
  19.7268307  64.8320055  88.5074425  19.2689586  64.0625286  88.1690788
  19.1978896  65.1170349  89.2525673 104.8746967  61.7496777  84.8318005
 105.4642296  61.1834335  84.3337631 104.1592884  61.9426870  84.2258453
  11.9816935  99.7928429  89.3839455  11.0435414  99.9457169  89.4967842
  12.1048427  99.7488403  88.4357262 103.1608963  14.1029704  23.3668327
 103.9757729  14.1507602  22.8669095 103.4046364  13.6617124  24.1805363
  54.5391798  99.0436649  41.2368345  54.9134207  99.6066475  41.9144964
  55.0691223  99.2199039  40.4594469   6.9988865  62.8566122   7.2298568
   7.1858132  62.0560884   6.7394996   7.8297997  63.3317327   7.2384930
  10.2442753 105.2155399   7.3262846  10.9967434 105.6193352   6.8938875
  10.3802955 104.2746639   7.2145516  47.1811533 100.9403038  33.5120344
  46.5423012 101.6223717  33.3049464  47.5085831 100.6521606  32.6599813
  92.4600792  82.2170544  27.6095009  91.9810390  81.4684582  27.2540116
  93.3774185  81.9442177  27.5928020  64.5306969  59.3663073  94.3369293
  65.1264620  58.8918114  94.9167061  64.6365595  58.9420033  93.4854603
   7.9986542  65.8363438  73.7254715   7.4521095  65.5994987  72.9761887
   8.5207677  65.0529051  73.8982487  27.6680708  45.5439949  81.0635567
  27.1537971  46.2842894  80.7415104  28.5465384  45.6922817  80.7135105
   7.1436381  56.7623806  94.5924282   6.2981653  57.0110607  94.2188454
   6.9804090  55.9185791  95.0138283  40.2890301  55.3077888  78.0115509
  39.4959998  55.8105946  78.1973505  40.8060503  55.8776665  77.4421930
  81.2750626   8.5713023   2.3730324  80.6902313   8.7204218   3.1159818
  81.1266804   9.3213224   1.7971116  15.6245315  27.7649808  91.3074684
  15.0022483  28.3300757  91.7653561  15.5629385  28.0341005  90.3909397
  35.2379513  47.5914526  90.6450462  34.3408871  47.2663355  90.7212543
  35.7856655  46.8233633  90.8071327   1.2245724  40.0181961  73.6438799
   0.5043250  39.5227313  74.0337372   1.2343478  40.8454847  74.1252661
  45.7949591  49.1118908  73.1250811  45.6713676  49.9627304  73.5458231
  45.7977295  49.3063068  72.1878386  83.9867783  28.3855438  81.4390278
  84.1248894  27.4440670  81.5428543  83.0354977  28.4909701  81.4522648
  25.5630851  85.1657772  10.9514570  24.6879864  85.4961681  11.1546111
  26.0843730  85.9520912  10.7896113  30.5881000  70.4315567  67.8055763
  31.2466860  69.8710728  67.3952675  31.0934258  71.1307335  68.2203436
  68.3074093 103.4346771   2.4422270  68.9949322 103.9635468   2.0374450
  67.5735617 104.0393353   2.5521713  41.6664219  61.2707806  76.9841051
  40.8859873  60.8927584  77.3893929  41.3552189  62.0756483  76.5698957
 104.5708561  11.6950512   4.1943458 104.5872402  11.9816983   3.2812211
 104.6504021  12.5034928   4.7006318  64.0798616  90.4298210   4.3271077
  63.9364624  90.5855274   3.3936071  63.2535887  90.0598049   4.6379077
  63.1710577 100.9831142  51.7479944  63.6952734 100.2190685  51.5078688
  63.7289858 101.7319870  51.5379286 107.1351337  69.9254513  68.7850571
 107.5326633  70.7119656  69.1586876 106.7961693  70.2086926  67.9358721
 110.2526188  95.2983379  17.4135613 109.5400715  95.0699139  16.8166339
 110.9681702  94.7119331  17.1678805  14.2111111  13.0804002  65.2123690
  13.6941195  12.7124178  65.9289885  14.2494118  12.3803985  64.5606327
  41.9494152  34.0521026  57.9926491  42.7919817  33.6456347  58.1953669
  41.5045500  34.1154814  58.8378191  94.8312283 107.5352859  17.5116289
  94.6978092 108.4791660  17.4249196  95.3331566 107.4376774  18.3208072
  64.9518633  47.4533939   4.4956192  64.3021584  46.7563629   4.5864931
  65.7068539  47.0258617   4.0913349  37.9917145  50.8945322  84.4966602
  38.5650086  50.5699539  85.1910782  37.1271086  50.5491066  84.7188568
  53.3667803 108.6420631  10.9237242  53.9924335 109.3114758  11.2006330
  52.9253292 108.3782291  11.7310309  23.5743904  59.5376968  88.2914734
  24.0264797  59.2411947  89.0813637  22.7580738  59.9209929  88.6123180
 113.6308575  80.4157829  70.7139397 112.9354572  80.2339649  71.3460684
 114.1451740  81.1146355  71.1180639 112.6427174  16.2386429  40.3501415
 113.5854244  16.1015666  40.4435968 112.5093555  16.3524389  39.4091296
 108.4560585   1.4203314  19.0405452 108.0403137   0.6702423  19.4656897
 108.2338142   1.3242716  18.1144726  65.1748466 107.6570606  13.2614040
  65.7637072 107.9371166  13.9621472  64.2980623 107.8473186  13.5949969
  99.2522335   1.6042142  17.2800398  99.4604301   2.1563007  18.0337548
  98.3534145   1.3145204  17.4363410  22.0306611  43.7391138  94.3272591
  22.6446939  43.2026911  93.8258171  22.4542904  44.5953703  94.3872166
  49.1805887 103.9711380  46.8308783  49.1159105 103.5284233  47.6770782
  49.0826845 103.2706165  46.1859608  43.6708736  45.7223415  94.4644547
  44.1330862  45.2242517  93.7902927  44.0542459  46.5982962  94.4201851
 104.7521591  12.8066206   1.7807953 104.1038895  12.8011155   1.0765580
 105.5244255  13.2175398   1.3922352  35.3996372  81.3154888  85.7984447
  35.1809859  80.5395222  85.2824020  35.0051355  82.0424843  85.3166962
  82.4624729  93.7469959   7.6401830  82.5740910  93.3866024   6.7604738
  81.5147114  93.8272476   7.7476621  36.5273046 104.3024063   0.6662278
  36.0471940 105.0197887   0.2526052  36.6448355 104.5844936   1.5733355
   1.7260064  38.3659577  93.4697819   1.9882753  38.1722927  92.5698090
   2.5466648  38.3716989  93.9624405  24.4097733  43.2448387  67.5574732
  25.1077652  43.1498575  68.2055569  23.6101699  43.3278608  68.0770636
  40.1839399  57.2100592  87.8249931  39.5274019  57.4240541  87.1621227
  39.7478986  57.3845339  88.6590576  64.2216110 103.2235146  24.4056678
  64.0256023 103.6330414  25.2483439  63.5330629 103.5387897  23.8202310
 111.4063740  15.0789082   4.3268269 111.5202808  14.3537760   4.9411902
 110.5124092  14.9777400   3.9999866 106.3608265  19.7919762  11.2149465
 105.4550552  20.0705624  11.3498163 106.5189838  19.1487300  11.9059265
  13.0846655  84.9555588  72.6122808  12.6526511  84.1269779  72.4047995
  13.9883316  84.7110939  72.8119183  87.2825718 100.1704311   0.9116017
  87.7694225 100.3101254   1.7238158  87.2074795 101.0425663   0.5243407
  17.6994085  18.0121958  53.1215191  17.2279525  17.3434973  53.6183119
  18.5547829  17.6206386  52.9447412  36.2547040  12.4976528  11.8245542
  37.1648622  12.2748303  11.6291189  36.2613773  13.4470594  11.9462681
  45.5389786  45.8827972  92.3687458  46.0369921  45.2337742  92.8657150
  46.1934662  46.3229656  91.8264103  23.6136603   4.2924395  11.4623606
  23.0772972   3.8829404  10.7834959  23.2783771   5.1867718  11.5255034
 112.9965687  60.4364777  74.0874243 112.3596001  59.9366713  74.5980024
 113.4474373  60.9803677  74.7332859  43.8215303  68.8982630  82.7728081
  43.0653238  69.4843149  82.7423382  43.9306736  68.6009359  81.8695259
  42.6597500 103.7904835  47.6976585  42.8751945 104.1173267  48.5711479
  41.7448330 103.5168839  47.7632332  50.2559423  31.9301748  89.9607754
  49.5053768  32.4072027  89.6067524  50.7315350  32.5809860  90.4769993
  36.6707802 100.1076794  31.4208293  37.5190783 100.5435371  31.3392758
  36.4174223 100.2455616  32.3335338  27.9653668  39.4978666  90.8608150
  28.4196472  38.7028193  91.1396694  27.0396423  39.2545485  90.8530235
  31.8792915  16.2000501  86.3436508  32.7916956  16.3337612  86.6002941
  31.6789746  15.3080380  86.6272354  26.9822192  15.0498450  92.0569038
  27.6712561  15.7124949  92.1054268  27.3150897  14.3195462  92.5785351
  23.4499621  58.5451555  46.8536139  23.5501933  58.3136940  45.9302425
  23.7630749  57.7754974  47.3288202  80.2436543  27.7986431  11.1497784
  81.1203098  27.6340938  11.4971077  79.8611927  28.4332991  11.7557192
  16.2464094  33.5016251  48.8857269  15.9396577  34.3071055  48.4693909
  16.3483787  33.7330127  49.8089218  56.5386772  69.2711067   2.5282323
  55.9046364  69.7359037   3.0743000  56.0504723  68.5277414   2.1742640
 111.0228348  53.4560061  90.8059120 110.2218914  52.9378748  90.8849716
 111.4798641  53.3186007  91.6356564  89.3257236  13.0339122  20.2985835
  89.1784000  13.3139789  21.2019610  90.2520466  12.7944362  20.2701187
  12.6712501  56.2607765  91.3433456  12.4681604  56.2255621  92.2780895
  13.5159588  56.7087603  91.2984848  24.1908050  41.4870882  85.0854874
  24.6374917  40.7456875  85.4941845  24.1069770  42.1326494  85.7872486
  81.9534016  91.0237980   2.8913739  82.0560074  90.5373573   2.0733985
  82.7325249  91.5777397   2.9399645  81.3428211  24.7101545   0.5081734
  81.2270069  23.8154912   0.8281715  80.8332825  24.7427773  -0.3014774
  34.0645456  22.7367711  83.4179211  34.7494698  23.2913041  83.7915516
  33.9210200  22.0569825  84.0763378  68.7450361 105.3829193  17.2925627
  69.3655109 105.6753063  17.9602087  69.1862965 104.6525002  16.8589675
   0.4896576  67.3932076  68.0563450  -0.3840840  67.7815151  68.1013680
   0.3456374  66.5213966  67.6883316 108.2997036  16.2387717  22.8139091
 108.5795689  15.3409493  22.6355243 107.3451328  16.2093818  22.7494097
  40.7828522  55.9136772  91.5406799  41.3806772  55.7854605  90.8042049
  40.8942318  56.8331575  91.7823124  30.5282068  31.5493107  93.7311459
  30.1229692  31.2607431  92.9133797  29.9724007  31.1798406  94.4172955
  20.8974552  82.5623608  50.3067398  20.5270386  81.7938423  50.7407904
  20.1613617  83.1685829  50.2237368   7.3235124   7.4987662  10.9898484
   7.4943626   6.8757927  11.6962099   8.0331999   8.1375659  11.0570157
  23.8426852  69.8894644  78.4957075  24.0500665  68.9946795  78.2262993
  23.0384588  69.8050785  79.0078878  35.9713459  92.8188896   0.5642371
  35.4477119  93.0638027  -0.1986920  35.9245610  93.5810089   1.1414938
  30.5532885  94.0904331  16.4675879  31.4014435  94.4966888  16.6459680
  30.7563090  93.1665421  16.3211608  50.7631540  14.6101236  33.8416362
  50.7616568  14.9487495  34.7369361  51.6670322  14.3329716  33.6919022
 113.1208611  42.5497675  10.1253593 112.7959061  43.1279564  10.8155310
 113.5925007  43.1307650   9.5285147  29.1017413   3.5321474  86.7528534
  28.9152360   4.3066826  87.2834587  28.3912659   2.9244357  86.9581318
  41.7074633  70.1421881  70.7975817  41.1735153  70.9254408  70.6647301
  41.1079979  69.5073509  71.1898184  25.9620094  31.5378022  21.0338783
  25.0130177  31.6498327  20.9782171  26.2784338  31.7336059  20.1519680
  71.6868925  96.6612911  14.0269184  71.6065502  97.1389771  13.2013321
  72.6150322  96.4339733  14.0827692  23.3673882  75.0519705  79.9676466
  23.9609385  74.4222403  80.3767490  23.3662343  75.8016157  80.5628490
   2.3045331   8.3343029  20.3831196   1.6945079   8.8749915  20.8848715
   3.1503874   8.7708199  20.4841876  69.1384745 108.4579754  16.5653706
  68.7144756 109.2848015  16.3355720  69.1964197 108.4759045  17.5206459
  31.7121744  83.9095211  65.3843737  31.0669804  83.8602161  66.0897303
  31.1987281  83.8097668  64.5827198  62.7114868  80.6499958  87.7527905
  62.4169016  81.5254307  88.0039215  63.6062670  80.5930519  88.0879879
  91.5243053  20.7225204  13.7459719  92.4699211  20.8116055  13.6271441
  91.2535572  21.5509343  14.1417670   4.6894172  41.4175606  74.2613888
   4.7564992  41.5387964  75.2085066   4.5336092  42.2972584  73.9177561
  50.1830864  78.0492067  77.8883839  50.2614212  77.0957088  77.9189777
  51.0831213  78.3605051  77.7921629  11.8097246  49.6039295  26.7872405
  12.4300504  49.4056416  27.4887466  11.7101347  50.5554581  26.8174553
  81.8246555  90.5560207   7.8430641  82.3737526  90.7780266   7.0911092
  80.9546852  90.4128170   7.4703950  24.6530867  63.4066486  79.7878838
  24.3703246  62.4977779  79.6867132  24.1769552  63.7214947  80.5562592
  17.4264288  50.5649948  12.8624058  16.7950475  50.1373148  13.4409189
  17.6749086  49.8858976  12.2352576 103.6037636  46.6113710  94.5490074
 104.0576839  46.4221478  93.7277985 104.0662384  46.0888386  95.2042198
 106.4962387  59.9517250  93.4593391 106.0462093  60.7965326  93.4573555
 106.8861771  59.8901129  94.3313408   7.1335387  22.4817920  12.6505470
   6.5110040  21.7648983  12.5291169   7.3631752  22.4449039  13.5790610
  34.2249465  43.1581354  67.1674728  34.5899224  43.1795168  66.2828445
  33.3839297  43.6086988  67.0905399  51.8501711  93.3426476  25.7719612
  51.8927097  92.8997612  26.6194725  51.8696976  94.2750168  25.9877014
  93.4770298  15.7947588   2.4969682  93.2709789  16.7187619   2.6383719
  94.3817520  15.7026756   2.7956918   3.3988521  49.2818689  75.6935787
   2.7051672  48.9660501  75.1145363   3.8509810  49.9527359  75.1819658
  63.9000797  55.4160166  26.6977787  63.7367916  55.4330635  27.6407957
  63.1453037  54.9545145  26.3323164   6.7565376  23.5922241  23.9301205
   6.4286667  23.5526490  24.8285460   7.6820737  23.8181710  24.0226579
 115.6676769  11.7558897  23.0725169 115.3003216  12.2117078  23.8298202
 116.6003609  11.6739392  23.2715440  81.5705585  76.9685745  87.4753189
  82.4802971  76.6735649  87.4355316  81.4044189  77.3496628  86.6131210
 114.9572754  33.8805437  30.6016684 114.0595150  33.5696912  30.7183838
 115.2234745  33.5301065  29.7516298  97.9674911  15.7454622  21.8545270
  98.1809902  14.8794234  22.2018433  98.6206055  16.3271773  22.2434855
   1.7468961  32.3538876  10.5398417   0.9834901  31.8611169  10.8408761
   2.3003909  32.4360871  11.3164485  83.8815784  20.9085011   6.0894424
  84.7254276  20.5137491   6.3092440  84.1060543  21.6770792   5.5649173
  69.8710871  89.4654179  92.3850822  70.5039120  89.4817924  93.1030655
  69.2296028  88.8047123  92.6462460 112.1558952  59.8472166  71.7659330
 112.5771332  60.1820278  72.5575781 112.0271206  60.6211185  71.2175512
  79.3939400  97.2644901   7.2046804  78.6063099  97.2736073   6.6608161
  79.3750000  96.4118767   7.6393443  89.9435997  15.2677763  24.4716811
  90.1639843  15.2006888  25.4007459  90.7678890  15.0947523  24.0168834
  55.8010817  84.8080921  84.7450829  56.2582159  84.7427750  83.9066410
  54.9144936  84.4988155  84.5592308 100.0150871  34.2367005   3.6779955
 100.7246113  34.8392844   3.4550482 100.4273129  33.5773897   4.2362154
 112.4462795  18.7109292   3.0051979 113.0796719  19.0748072   3.6237779
 111.5929604  18.9304519   3.3791965 100.2855492   9.4826967  26.2034154
 100.8630657   9.1300678  26.8804312 100.2827072   8.8137484  25.5187750
  27.9211211  97.0708275   4.1026476  27.7868700  97.9525280   4.4502291
  28.8377094  96.8741226   4.2960557  66.1957550  76.5925312   9.8060787
  65.6579924  76.0708761  10.4018283  66.1408758  76.1321974   8.9686334
  91.0645103   2.9244313  43.3442068  91.4062214   3.7493309  42.9992390
  90.4225540   3.1881249  44.0034437  17.4739039  53.7141466  91.2705231
  18.0886126  53.6429119  92.0007896  17.4812782  54.6433926  91.0410118
  29.3854475  61.7770386  89.3766975  29.4043899  60.8342457  89.5410538
  28.4721994  62.0265007  89.5180416  53.1269026  93.7032795  86.5578842
  53.1423283  93.7729740  87.5124168  52.8717899  94.5757961  86.2581158
  24.8405075  80.0269318  84.4305515  25.0186992  79.4966793  85.2072811
  23.9408731  79.8051262  84.1903591  98.7331867  75.6861019   0.3871941
  98.6804676  75.9609890   1.3025573  99.5846176  76.0065603   0.0895386
  80.6810188   9.8027605  14.1316009  80.8948708   9.1475999  13.4673262
  81.5074444   9.9591839  14.5885181   2.6983374  10.2087307  15.5762720
   2.6401782   9.8365158  14.6963263   2.3171960   9.5397508  16.1449802
  15.5995834  93.4587955  93.5048771  16.3066411  93.1854630  94.0893364
  14.8950076  92.8328705  93.6722565   1.0400617  74.6437454  73.8988590
   0.6610621  75.5087185  73.7426138   0.4591832  74.0404510  73.4353447
  35.3799367  64.3903112  75.9753656  34.6938753  63.9605379  76.4860964
  35.0411057  64.4008493  75.0802040  71.8484068  67.0688629  12.5420737
  71.0751867  66.9681215  11.9869065  71.5326452  66.8886089  13.4275293
  93.3646774  29.4336033  27.3930478  93.1318092  29.5026731  28.3189178
  93.8523293  28.6124015  27.3293400  78.8391495  27.6448989   8.7574071
  79.6506405  27.7218175   9.2592019  78.2345438  28.2511592   9.1853476
 110.0098324  18.1248963  12.3806083 110.6560802  17.6116002  12.8654969
 110.4185963  18.2821679  11.5294862  19.6054339  71.1604595  66.9211483
  18.7756133  71.1122942  67.3958158  20.0270200  70.3177834  67.0896721
  34.9083281  45.8210945  68.6475849  34.7498178  44.8773813  68.6703396
  35.0099421  46.0691118  69.5664930  27.2213531  55.4249334  87.2787857
  27.4260306  56.3334227  87.5001144  26.8261576  55.4736805  86.4083385
 111.5624523  23.9437294  67.7812433 111.6715622  24.2147541  66.8697214
 112.4501610  23.7473178  68.0806208  20.9200335  78.9172506  78.4144878
  20.5972481  79.3612146  77.6303053  21.0510564  78.0098963  78.1392097
  24.9684739  46.8022346  81.1860657  24.9227262  45.8537388  81.3064766
  24.7420692  47.1636581  82.0429993  63.1621695  86.8805885  37.9016590
  63.4925747  87.5002670  38.5520935  62.2253752  86.8154144  38.0871463
  30.1214337  86.4916515  79.1225958  30.0219798  85.7503223  79.7199059
  30.7103491  86.1713886  78.4393406   0.2617677   4.8309103  22.7158689
   0.0479366   5.0494826  21.8088222   1.0013088   4.2269200  22.6487374
  45.7784224  88.9783955   5.3623754  45.6030941  89.2606735   4.4647047
  44.9927759  89.2270088   5.8493954 100.6536007 104.4119453   2.2815847
 100.4431152 105.1750851   2.8196740 101.5908051 104.4943523   2.1052581
  25.8816957  53.8287258  80.5370998  26.0244060  53.7461615  81.4799881
  25.2267146  54.5217514  80.4537773  13.9437234   0.8368121  18.0008113
  13.2550395   0.4452936  18.5380805  14.2660272   1.5716381  18.5227156
  22.4579573  36.5898967  93.8728809  21.5562701  36.8836522  94.0028858
  22.4780965  36.2705016  92.9707718  43.1229734  83.1807804  89.3922710
  43.5855341  82.4696064  88.9489746  43.0810642  82.9051113  90.3079605
   6.1875373  15.1038861  10.9338593   6.9715738  14.6308279  10.6550503
   5.4938787  14.4443536  10.9245467   1.7270401  48.7869596  15.7621002
   1.1895583  48.0686569  15.4283559   2.5770679  48.6667967  15.3387272
  97.0554066  41.9951916   8.1124192  97.2749901  41.3063335   8.7397057
  96.8496513  42.7564669   8.6549646   5.4603475  19.7893119  28.7934399
   5.7375878  20.6988287  28.6832237   6.0088313  19.2961276  28.1833839
  41.8719530  97.5553989  29.4044662  41.0385227  97.3488808  28.9814043
  42.4722624  96.8771744  29.0948534  36.0842538  94.7901154  69.5992517
  35.2145433  94.6882439  69.2126513  36.0992193  95.6914616  69.9210835
  95.2320290  18.9326835   0.5979130  95.2845860  19.8684883   0.4036473
  94.7175503  18.8838494   1.4036223  -0.1584246   7.1463794   8.3050078
   0.7933086   7.0602292   8.2501078  -0.4847592   6.2495732   8.2310092
 107.5805473  37.8294897  30.0066328 106.9089222  38.0768609  29.3710613
 107.1391964  37.8824544  30.8543563   2.3238172  54.3292761  56.2108564
   2.9017317  53.6902571  55.7938433   2.8863060  54.7909307  56.8327188
  78.5418940  27.0467973  50.8437204  78.3783865  26.5104127  51.6194725
  79.3877220  27.4615955  51.0132742  51.9244432  72.4531174  83.3838367
  52.1752787  73.2335377  83.8780594  52.1067524  72.6784706  82.4715805
   9.5015955  16.2940586  12.5270641   9.6478653  15.8095884  11.7145824
   8.9187109  15.7331359  13.0387712  97.0749474   8.2046169   1.6532233
  96.3910484   7.9580212   2.2758877  96.8067169   9.0652084   1.3312483
  27.5149775  49.5228481  69.4460487  28.2690787  49.1443396  69.8980379
  27.8695703  50.2816296  68.9826441   9.2786604  15.4750013  18.1519711
  10.1519918  15.1820517  17.8917706   9.3946236  16.3960564  18.3852994
  12.6714075  84.9211502  92.0394516  13.3330441  84.8989677  91.3480949
  12.7672613  84.0819263  92.4897289  17.5999868  12.4603677   5.1904148
  17.0170784  13.1175888   5.5705595  17.8433061  12.8206074   4.3376222
 107.7253723  37.9764462  14.8085201 107.7894783  38.2206631  13.8852215
 107.4238682  37.0680642  14.7956216   6.6944528  52.6958990  88.8038921
   6.6745132  52.4147224  87.8891468   6.5798604  53.6454248  88.7651539
 103.8292980  26.7994356  24.8061800 103.7437725  27.5456524  25.3995395
 104.7344589  26.8412614  24.4976759  26.3410807  -0.2424809  10.8766007
  26.2007856   0.5631194  10.3790498  27.2276378  -0.1562356  11.2270403
  67.2275305 106.6113186  15.2826810  67.7100897 105.9054375  15.7129264
  67.3726940 107.3754215  15.8406246  68.7604856   9.3871933  21.4911723
  68.4604597   8.8046354  22.1889138  69.0842104   8.7979519  20.8098292
  95.0604534  25.1146364   1.7166393  94.1807079  24.7822142   1.8948814
  94.9381065  25.7497692   1.0110426  36.6086507  75.4771757  81.6800976
  36.3018537  75.3378010  82.5760269  35.9022641  75.1390600  81.1297131
  30.7511926  54.6315241  72.2694969  30.1705909  55.3920698  72.2429180
  30.8595324  54.4453859  73.2021523  84.1643429  33.9336491   1.2576838
  83.3472252  33.6182690   1.6437921  84.3372917  34.7614598   1.7060731
   9.3587500   7.1377158  26.0904479  10.2294338   6.7766070  26.2570047
   9.4904441   8.0857658  26.0809875  97.4212456  15.5949414  30.3600287
  97.1986580  15.0386727  29.6135330  98.0570030  15.0824761  30.8594561
 114.0872288  37.3386383   5.9354162 113.5667324  37.1762300   6.7221397
 114.7805977  37.9315376   6.2251377   6.7029887  48.3566761  21.4970422
   5.7790154  48.5350752  21.3218880   7.0960283  49.2216444  21.6135836
  92.9321194  10.2744329   3.9373225  93.6508083  10.0037646   4.5086920
  93.3407974  10.3981817   3.0806446  19.6820140  72.5810385  86.5582371
  19.2327440  71.7373657  86.5071964  20.6066704  72.3543739  86.6575718
  13.8989019  49.8133850  92.1932793  13.7838435  50.5842829  91.6376591
  14.7479236  49.4556093  91.9336796  18.2330775  79.2687368  63.3694935
  18.9444935  79.7445393  63.7981272  18.4780264  79.2541456  62.4442816
  92.9226685  22.6612401   5.2855951  92.7312851  22.8295207   6.2082458
  92.2842884  23.1910205   4.8080686  12.0682991  59.7142839  90.4443455
  12.4764478  59.7877312  91.3070393  11.2342525  59.2750120  90.6105900
  63.9325714  74.2081738  70.7636118  64.4090939  73.7631750  70.0628042
  63.0506659  74.3317652  70.4126072  63.1124973 105.2184868   8.8704246
  63.2035589 105.8824444   9.5538676  63.5859632 104.4589520   9.2097783
  45.5215502  77.8451157  17.2543788  45.9988165  78.6170244  17.5586939
  44.6872330  77.8794813  17.7223158  97.8246212   5.4457355  45.9429121
  97.0843410   5.0608814  46.4120626  98.5725784   4.9007291  46.1873722
   8.5525328  45.7921600   0.1132898   8.9933622  46.3348722   0.7670223
   7.9807764  46.3995934  -0.3561282   2.1840766  15.7794142  11.8544662
   1.4842901  15.2805030  12.2759128   1.9812287  15.7341683  10.9201014
 101.8420506  10.3502285  13.1833899 102.5033760  10.6163383  13.8221872
 101.6904545  11.1338449  12.6549995  59.5687914  55.6833935  90.2744579
  60.2898693  56.3045406  90.1722145  59.5563984  55.4827356  91.2103081
   8.2881767  37.1561694  90.5790901   7.7817702  37.7155161  91.1680794
   8.9850968  36.7982054  91.1289883  44.2784691  96.6969299  50.4041290
  43.4400368  96.6607189  49.9437428  44.0650225  96.4683342  51.3087940
  46.8104362  52.3779726  89.7096062  46.3395500  52.8107595  88.9974308
  47.6944685  52.7427197  89.6686649  10.5179703  26.0555887  17.9207730
  10.3001690  25.7039380  17.0575619  11.2331128  26.6700220  17.7556169
  32.2901201  80.3966713  77.2828531  32.2481203  79.7566032  77.9933310
  33.0835748  80.9013176  77.4617100   2.7057502  34.1177487  16.8193305
   3.1913188  33.4516549  16.3327360   3.2494977  34.9031210  16.7579985
  38.0888605  81.3440228  79.9270821  37.9703164  80.4247379  80.1660252
  37.2193980  81.7315960  80.0273609 111.7265034  38.9253163  42.3685455
 111.7799091  38.6369014  43.2797003 111.5039444  38.1332874  41.8792677
  34.9600267  90.2542210  92.8879356  35.6590796  89.6014309  92.9256058
  35.1810861  90.7985497  92.1322441  50.4549932  57.2056007  93.3328247
  51.1151266  57.6515341  93.8634872  50.9251785  56.4762878  92.9287624
   4.1739312   4.4724554  10.3102827   5.0044399   4.9154127  10.4842830
   4.4260141   3.5937598  10.0264156   2.0597571   2.4612156  16.7099798
   2.9674357   2.3206244  16.9793963   1.5837504   1.7142841  17.0729446
 112.1395683  51.9411993  10.1736450 111.8496799  52.8395748  10.0151706
 112.8066540  52.0215225  10.8553994  88.4565258   5.8499140  29.2642140
  89.0100098   5.5059642  29.9653459  87.5952148   5.9545285  29.6684766
  13.2211149  34.7527981   8.0484790  13.3281136  34.6245694   8.9909971
  12.4647892  35.3342414   7.9702026  31.2407041  53.8828135  84.2228699
  31.2392473  52.9257441  84.2387295  30.6843615  54.1108608  83.4780884
   1.5570685  41.4746094  71.3048887   1.9396785  40.8459330  70.6928396
   1.3241132  40.9510612  72.0716095  12.2888005  25.9352040  27.6686072
  12.6823020  25.0627017  27.6571751  11.3457417  25.7729506  27.6452732
 115.4788876  46.9561291   2.5121534 114.9818611  47.7344894   2.2604558
 115.0823593  46.2454367   2.0082539  73.8168955  75.5888939  81.2371159
  74.1752768  74.7055864  81.3241005  74.1842747  76.0704851  81.9782829
  28.0499768  83.2936573  92.4355412  27.6161075  82.5132942  92.7805328
  28.9833093  83.1264496  92.5665569  91.9785309   7.7954793  21.8366432
  91.4701080   8.6060834  21.8108892  91.3254833   7.1070516  21.9624496
  59.6777201  95.4531288  85.0357533  60.1062250  94.8058224  85.5957699
  59.0139341  95.8536243  85.5972004 112.8722858  26.8364906  11.0185528
 113.4696579  26.9117999  11.7626703 112.9563904  25.9261036  10.7350779
  13.0700994   7.9531121   4.1199508  13.9488244   8.2144034   4.3952745
  12.6981854   8.7420166   3.7255639  15.4393625  26.4262390  77.7857399
  14.8454797  26.8762970  77.1849203  16.2969232  26.4865041  77.3648024
  99.0844536  11.7068493   2.1367165  99.0130329  10.9103751   1.6106355
  99.1935444  12.4087226   1.4950761  90.1186085  25.7507420  21.2163424
  90.2542686  25.0936341  21.8990111  89.2693329  25.5281281  20.8350134
  92.8379154  38.2462335  13.8507068  93.1503296  37.5695276  13.2501245
  92.0607090  38.6057782  13.4230256  20.1738739   7.3504251  19.4974220
  19.5310903   7.7746397  20.0658441  19.8375356   7.4871117  18.6117446
  55.9474754  94.0853119  14.7549307  55.7333708  93.2149601  15.0909114
  55.8045959  94.0193939  13.8107526 113.4505081  14.1485786  20.2181625
 112.6259613  14.3034744  20.6790018 113.5421276  13.1958663  20.2048302
   8.9031833  53.7944984  81.7665005   9.0541381  54.5617437  82.3185730
   8.4683043  54.1416597  80.9876633  39.7318792  87.3423481  92.9873753
  39.0643215  86.8381691  92.5221920  39.6744394  88.2205105  92.6108551
  26.0248709   3.0723849   4.1125923  25.3155828   3.6270717   4.4373479
  26.7748809   3.2953006   4.6639746  90.6764412  20.2313876   7.9310328
  91.1706543  20.6576085   8.6312640  91.0849476  19.3706155   7.8392464
  90.7170868  66.4390898  76.9714165  89.8928833  66.0269833  76.7123938
  90.8512115  67.1329451  76.3258171  56.5106821  84.2163658  82.1318913
  55.9935045  83.4241009  81.9867325  57.0717621  84.2810726  81.3590813
  63.1695318  80.0105000  76.6069269  62.8637123  80.6579208  75.9716702
  64.0848494  80.2425671  76.7636871  28.5898757  42.8210735  81.6784000
  28.0052066  42.7338123  82.4312496  28.2328463  43.5574913  81.1819649
 115.4736423  11.3923728   1.7583840 115.1846790  12.3043370   1.7259055
 114.9577713  11.0026634   2.4642438  41.2514448  83.8781357  80.7055378
  41.0860348  84.1224098  79.7949362  41.9074535  83.1831646  80.6517220
   8.2262868  34.8841763   3.9656857   7.9497075  33.9720511   4.0537834
   9.0444165  34.9351859   4.4599468  97.1006489   8.5306185  16.6406441
  96.4039803   8.5802698  15.9861124  97.8858757   8.8220030  16.1772346
   3.7508181   8.8957787  26.6261744   4.6646687   8.6951011  26.4240932
   3.2704794   8.6456102  25.8369207  27.0735669  16.8368101  22.6032066
  27.3927402  17.3043025  23.3750939  26.1273432  16.9811976  22.6100063
  33.5321832 100.2528477  75.4474258  33.0399156 100.9313869  75.9094810
  34.0274072 100.7284164  74.7804785 105.9802341  99.8233509   9.7300774
 106.1009693  99.0551567   9.1719311 105.4940891 100.4417038   9.1846126
  13.7067866  21.5169859   4.6136451  13.5203934  21.0874009   5.4484785
  14.6519220  21.6678333   4.6276692  93.1201458 106.6399574  20.0360250
  92.7950382 106.7900181  19.1483200  93.3980179 105.7239819  20.0376844
   5.2892852  22.8110528  18.4093463   5.3618526  23.4525537  17.7026331
   5.8225775  23.1729841  19.1170442  31.7917681   8.0211890   8.1495243
  32.1562004   8.6738777   8.7473691  32.4660683   7.9068452   7.4798405
  64.7785234  84.3375397  17.1190190  64.2546368  83.6958027  17.5985515
  64.6843290  84.0853024  16.2004673  51.0746670 106.9056129  26.7006326
  50.7696962 107.3546600  27.4890351  51.6006231 106.1762524  27.0287108
  40.7207108  68.8396358  86.4050293  40.1935911  68.6318159  87.1765041
  40.1079369  68.7771320  85.6723404  88.3580875  13.9252329  55.9180117
  87.4576664  13.8274419  55.6083012  88.5778236  13.0707383  56.2892008
  16.5339017  30.2814150   8.9536875  15.6057918  30.4218316   8.7662625
  16.9415069  30.1928735   8.0921477   5.7952183   2.5229350  25.7995749
   6.5622646   2.9839277  26.1392164   5.5819559   2.9798907  24.9859762
  64.8971033  73.4188223  85.3208351  65.0000286  74.1073179  85.9778118
  65.7857704  73.2534552  85.0059509  42.8916597  74.2731333  76.5761757
  43.3269548  74.7141981  77.3057079  42.1913767  74.8722506  76.3175440
 109.3103027  62.4274445  72.4198437 109.4268227  63.3761597  72.4707842
 109.8724270  62.1557093  71.6943073  26.0821128  37.9416609  72.8672838
  25.4002237  37.6507401  73.4727812  25.9053946  38.8733816  72.7372980
  33.9128399  72.0342731  87.0068645  34.3079972  72.1222115  87.8742409
  34.5283151  71.4884329  86.5174961  27.9301977  69.4884729  77.1826601
  27.3528433  68.9772701  76.6155910  28.4020162  70.0677967  76.5843248
  42.6180649  56.9831944  89.1652584  41.8042374  57.3717403  88.8443947
  42.3929358  56.0704756  89.3455315  15.4602861  49.9451113  82.1378136
  14.7638583  49.6364450  81.5582085  15.3734565  50.8983326  82.1300602
  41.7769194  33.0793476  12.1115637  41.4918852  33.9643526  11.8840683
  42.5213051  33.2109785  12.6987553   9.6686447   5.2295083   8.1963688
  10.4447019   5.7898301   8.1987590   9.6628362   4.8321077   7.3255813
  32.8764820  69.7810507  79.7645044  33.7125826  69.3963957  80.0275803
  32.2485495  69.0623331  79.8378515   7.0663112  17.8957808   3.7581843
   6.6189146  18.7250102   3.5895258   7.1222264  17.4749804   2.9002613
 100.0244808  20.8269668   4.2307568 100.4594231  20.0297523   4.5332637
 100.7118893  21.3193321   3.7821084  57.8987408  98.0121803   4.4001189
  57.9537106  97.1251965   4.7557557  58.5562086  98.5073280   4.8887870
  50.8310890 105.0795841   1.1354177  50.7677746 104.3525124   1.7547596
  50.2018452 105.7246494   1.4581871  69.6215582  96.5990734  40.2417183
  69.1173697  96.0341740  39.6561265  69.5021486  97.4798203  39.8864055
  71.6479397  78.5340309  35.3055525  72.0755005  79.3894291  35.3470063
  70.9734201  78.6357069  34.6340537  94.0944767  51.2356901   5.1680100
  93.2262802  50.8783722   4.9815211  93.9838505  52.1837378   5.0959438
  26.7939878  63.2222462  83.8337135  26.4011121  64.0949249  83.8161373
  26.0701227  62.6382113  84.0598869  13.5820425   2.2313692   7.6037395
  13.0265558   1.4557728   7.5255275  13.1447113   2.8940889   7.0691592
 109.1177368   4.4408178   9.7829872 109.2325974   4.7891599  10.6671226
 110.0065422   4.3764895   9.4335526  19.6628726  50.2033520  70.0340939
  18.7672293  50.4661942  69.8220301  19.8217988  49.4328022  69.4889069
 101.5710163  67.6033497   7.7223176 101.6632175  66.6695547   7.5332069
 100.6478214  67.7918434   7.5537449 100.4766273  92.3284340  54.7587967
 100.9251022  91.7716980  54.1222858 100.2374649  93.1125450  54.2646313
  50.9778547  80.1515484  91.3690376  50.1674414  80.1858330  91.8772507
  50.6922293  80.2187634  90.4579163 103.1994534  23.2631421  32.2767115
 102.4604130  23.8254595  32.5087762 102.9936314  22.9481673  31.3965631
 100.0835037  48.1607819  10.7199645 100.2309608  47.9683256   9.7939777
  99.2007542  48.5296345  10.7503188   8.6187828  40.2664471  86.9466972
   8.2349652  41.0006142  86.4671993   9.5561033  40.3229427  86.7610359
  49.8405933  17.3805356  66.2777138  50.7803154  17.2000539  66.3017702
  49.6921968  17.9760563  67.0122623  60.4766369 104.1319180   9.0696436
  60.5439711 103.4172821   9.7028798  61.3471365 104.5299625   9.0642464
   7.4240029  45.3241873  91.2673187   7.7016515  46.1507797  90.8724976
   7.2439075  45.5439234  92.1813774   1.4173138  29.9764729   6.6249800
   0.6936684  30.3909636   7.0948374   1.9753456  29.6162701   7.3142457
  53.1514835   7.3466218  89.2704201  53.0077839   7.0949304  88.3581543
  52.7553320   6.6392660  89.7792816  15.9490502  57.2191334  67.0495605
  15.9901142  57.7059650  66.2264299  16.8437433  56.9088936  67.1892309
  23.4023166  76.8031502  87.9593754  22.7631521  76.5329123  87.3000717
  22.8826118  77.2491121  88.6281490  33.1344676  50.4619455  89.1009903
  33.4358144  50.1795721  89.9645233  33.6329174  51.2593460  88.9223003
  89.8026085 108.7041950  12.4303472  90.6450844 108.5454845  12.0045912
  90.0197315 109.2224598  13.2052636  31.9713020  26.7376208  68.9661741
  31.5503383  25.8964849  69.1436911  32.5960112  26.5497041  68.2657051
   4.6090621  19.7395957  41.8618393   5.1346123  20.5383563  41.8170118
   4.9548233  19.2675924  42.6193953  26.0324383  80.8258629  74.7805357
  26.8445492  81.1099052  75.2000904  26.2398791  79.9659967  74.4147062
  21.7026544  28.9443636  63.6610365  20.9336567  28.4756851  63.9854050
  21.3460827  29.6171045  63.0809450  73.1608438  23.1566858  41.1393690
  72.5117588  23.5540318  41.7199183  73.8631010  22.8722358  41.7243099
  25.9864283  28.8046050  15.4248297  25.1221919  29.2160940  15.4228282
  26.6009736  29.5380425  15.3996086  25.2415895  20.5894089  27.5689483
  24.3255186  20.6792736  27.3063278  25.7138944  21.2005401  27.0035505
 110.3980541  39.7091031   3.5653839 110.5922222  39.2294073   4.3706295
 110.3242207  39.0305805   2.8942728  12.0519936  57.8381443  22.0720291
  12.1796846  57.0215082  22.5547695  12.8773189  57.9725599  21.6061950
 111.6302586  46.5533829   0.9167437 111.5289021  47.0750904   1.7128474
 111.4467812  47.1656227   0.2041902  61.0333586  82.3538780  83.4525299
  61.5571594  82.7632618  82.7638626  61.6595936  81.8260765  83.9480019
  97.1620178  24.8330259   3.4570813  97.3098564  23.8888192   3.4037006
  96.4786720  25.0054574   2.8093711   0.1094671  16.8576002   3.7514096
   0.7273375  16.4428031   4.3534160  -0.6744429  17.0089507   4.2794341
  30.6542587  42.0060968  10.8132923  30.5869246  42.1959686   9.8775315
  30.5045843  42.8496408  11.2402201  16.1369085  75.4686165  55.5666065
  15.4848719  74.9385071  56.0249329  16.7195296  75.7824183  56.2582064
  23.2537341  21.6934967  11.5931976  23.8391209  21.2459874  12.2041726
  23.1045127  22.5518656  11.9896460  12.4317873  29.8907018   1.9821888
  11.8831491  29.1063952   1.9915602  12.6359761  30.0291276   1.0573225
 115.8960247  52.7154255  19.2520487 115.1175022  52.2716761  18.9155746
 115.5625343  53.5268927  19.6348488  19.5126307  23.5100222  12.5449646
  18.9720178  23.9085460  11.8629479  19.9502027  24.2496777  12.9664731
  12.1249020  35.0768280  22.3163366  12.1345413  34.3390036  21.7066216
  13.0011487  35.0806522  22.7015758  16.8285823  56.5473843  82.1248627
  17.0524836  55.7817459  81.5958118  15.9663701  56.3441038  82.4874973
  16.7110932  77.3431349  67.5065136  16.5789354  77.8604746  68.3009434
  17.4992645  77.7126455  67.1084166  56.9877625  92.4435043  86.3657475
  56.5164566  93.2259464  86.0795879  56.5034819  91.7159939  85.9753227
  28.1909585  88.7703037  91.9111824  28.7597632  88.8957500  91.1516094
  27.9441762  87.8461456  91.8755817  30.2753544  21.0078430   5.9329432
  31.0001254  20.8464074   5.3288931  29.8230529  21.7677832   5.5666852
  40.3110695  65.4353285  78.1962729  40.5519629  66.3607168  78.2393932
  39.3740535  65.4406071  78.0008221  11.9446421  99.8643112  86.8010807
  12.4371970  99.5450401  86.0449886  11.3150930 100.4840279  86.4325047
  44.5844173  74.0653801  71.8896103  44.5578432  73.5347033  72.6857948
  44.3057442  73.4688902  71.1947870  93.5818958 107.0490170   2.8846106
  94.2091274 107.3884583   2.2461718  93.4003162 107.7919006   3.4602731
  14.0382993  41.5974998   4.5859537  14.7386825  41.8502617   3.9844513
  13.9010310  42.3712873   5.1324302  77.5937128  19.1513789   0.8101583
  77.8058767  18.6787331   0.0052831  78.4419203  19.4316304   1.1540139
  17.8575492  23.5027957  15.0152767  18.0838156  23.4470248  15.9436750
  18.6134386  23.1297874  14.5617032  56.9173527  77.9980373  60.3767109
  56.7423153  78.8588524  60.7569695  57.0199156  77.4189472  61.1319399
  27.8209591  33.7446332  16.2215805  26.9535422  34.0549207  15.9616911
  28.4101176  34.4649267  15.9973013  23.2101440   7.1784729  11.0798502
  22.6022172   7.2029328  10.3408933  23.7466884   7.9641551  10.9747016
  37.9444695   3.4068295  73.5985088  37.7902627   3.9077738  72.7975655
  37.6975060   2.5103131  73.3715725 107.1633053  31.4010978  52.4965096
 107.8372574  32.0756531  52.5801849 106.9935322  31.3475132  51.5560102
   1.4312427  24.0353203   9.3889326   0.6293042  23.8031459   8.9207220
   1.1329149  24.5712066  10.1238191 100.8499908   4.0305096  22.4173927
 100.2307320   3.5168350  22.9359388 100.3479099   4.7937703  22.1317697
  12.5249064  44.5172548   4.5784014  13.2932925  44.7556973   4.0597880
  12.0462501  43.8985014   4.0267974  51.0912466  74.5432281  72.8768396
  50.9463692  73.7107658  73.3265591  50.4555178  74.5426846  72.1612406
  16.3298237  22.1553588   4.7252551  16.7090690  22.4267387   5.5611724
  16.9717515  22.4301577   4.0705448  10.8695841  29.3988466  37.8654313
  11.5216696  28.7824869  38.1987762  10.1134670  29.2819452  38.4406304
 102.2757721  50.8354425  22.4886060 102.3227882  49.9292755  22.7933741
 101.7956161  51.2951660  23.1773281  34.2528963  84.0021801  76.4102364
  33.7126446  84.2072392  75.6471443  35.0087428  84.5842457  76.3319683
  49.9362278  85.2479076  79.8995543  48.9980507  85.3525639  80.0579739
  49.9884987  84.6315098  79.1691113   4.0747058  25.1722240  13.3987021
   3.5597861  24.5350432  13.8937688   4.9844992  24.9534297  13.6002886
   7.1741551   9.0930599  22.3275256   7.8363359   9.7761637  22.4329662
   6.3397348   9.5499533  22.4334645  43.6277294  35.1372075   3.3400771
  44.2070580  35.7618189   2.9036456  44.1926527  34.6829748   3.9651877
  50.1912737  83.4808731  71.7491388  50.1468658  83.3524609  70.8016300
  50.0448847  82.6090145  72.1161175 109.4224739  39.5300865  64.0854263
 109.8387432  39.7697425  63.2574654 108.6244583  39.0686703  63.8275528
  19.1412902  90.6070137  48.0890799  20.0976634  90.6218243  48.1259918
  18.8851511  89.9804974  48.7659121   2.7708167  41.2568665   0.7293303
   2.4108519  41.3604879   1.6101928   3.6959425  41.4851332   0.8202618
  26.5356207 108.6412811  94.0092945  26.7743778 109.4748497  93.6038399
  26.7613697 108.7508965  94.9330139   6.5930063  79.9714565  92.8024578
   7.1202981  80.6248569  92.3428345   5.6971031  80.1371002  92.5089455
  12.2091734  36.1940789  25.2561283  12.8039157  35.5128980  25.5699825
  11.8692648  35.8527517  24.4289708   2.8166869   7.1277857   7.9134774
   3.2568714   6.3616729   7.5453198   3.3905071   7.8619623   7.6945090
  44.9535751  13.4094584   6.1301297  44.4747162  13.7154973   6.9003677
  45.5396080  12.7313590   6.4662486  89.8154640  26.5958619  28.3873749
  90.6490421  26.1970973  28.6370897  89.3487644  26.7133570  29.2147946
  94.9417114  21.9519830  51.9122648  95.0830078  22.2426176  52.8132677
  94.9309063  22.7598190  51.3989258  58.8279867  24.5169067  76.5883207
  59.6815968  24.7471309  76.2214613  59.0261650  23.8794518  77.2743320
  23.0662155 100.4821682  47.5274849  22.9370260  99.7936821  48.1798077
  23.8894463 100.2523708  47.0965338  30.8514547  63.9467812  79.5314264
  30.0347376  63.5554266  79.8413372  30.5731297  64.6343040  78.9263868
 102.1099663   5.5155551   6.9269443 102.9260731   5.7265675   7.3804712
 101.7982674   6.3560337   6.5912801 104.6392059   9.9200928   6.0514188
 104.9395084  10.6708312   5.5391306 104.3496513   9.2841399   5.3972381
 111.5057468  83.6685944  10.6067741 110.5640602  83.6801815  10.4355502
 111.6270638  84.2943859  11.3208461  20.8978939  23.7642121  20.5726457
  21.6842151  23.2514000  20.7596135  20.4861760  23.3115888  19.8365402
  60.2383566  92.5472260  91.5900803  61.0863876  92.3736286  91.1814880
  59.8276949  93.1989861  91.0219288  16.1813033  23.3690572  38.2134128
  15.5903149  22.9992771  38.8693309  17.0427227  23.0210924  38.4438682
  27.6583886  28.9465642  10.5627859  27.1855712  28.5275722   9.8436749
  28.5087967  28.5074735  10.5782878  25.3590035  16.6708338  35.8169699
  26.2074971  17.1096277  35.8781862  25.0474858  16.8737876  34.9349284
  32.9002523  67.6661015  75.9863043  32.5502276  67.5814295  75.0994301
  32.2304940  68.1571436  76.4622593  24.3029118  75.8601379  84.1725540
  24.1495419  76.2812138  83.3267403  25.2553082  75.7871628  84.2345810
  39.7806573  71.9532824  82.1405411  40.0465155  72.6043129  81.4911461
  38.8242102  71.9912148  82.1400452  91.1375999  72.8181219  85.8077908
  91.4588928  72.0457315  86.2730026  91.4618397  72.7112150  84.9135494
  15.6292856  10.6461418   7.2424591  15.1011634  11.4003861   6.9808620
  15.7340074  10.1367819   6.4388311  18.5231519  27.1192646  25.4293919
  18.5868764  26.3137484  24.9162507  18.0248034  26.8688798  26.2073302
 112.5253582  11.0152173  24.1294646 111.9250965  10.3229737  23.8525033
 113.3474064  10.5603099  24.3125868  16.9481492  17.2813690  29.6434402
  16.2383282  16.6651297  29.4627905  17.7416480  16.8179917  29.3753481
  97.6391983 107.3636627   3.2154968  96.9127560 107.3521137   2.5922880
  97.2552109 107.0562553   4.0366489   6.8567377  20.3198719  18.9371347
   6.6929835  19.6445739  18.2788110   6.6303593  21.1406517  18.4997511
  48.4233761  84.7480774  92.7986908  47.6043415  84.6090412  93.2741737
  48.6561155  85.6579685  92.9834938  28.5886264  79.9524736  78.7991047
  29.2060018  80.2735138  78.1418324  27.8412294  80.5471992  78.7363720
  19.6904242  25.2788186  10.2369225  19.1729999  25.9407210  10.6956029
  20.5289483  25.7071877  10.0648522   4.4449764  42.8748941   7.1072429
   3.5088542  43.0435896   7.0002443   4.5619434  42.7633476   8.0506980
 111.7011547  24.4390345  33.8543940 111.3685322  25.0668454  34.4958329
 112.2014999  23.8090396  34.3730450  72.8474760   9.8898578  91.6323757
  72.9338503  10.2600217  90.7538795  71.9529200  10.1052952  91.8961716
   4.4356325  37.1391630  42.4736023   4.8595098  37.6241112  43.1816912
   4.0348834  37.8149796  41.9268799  73.9686441  53.3189011  10.3701711
  73.6843443  52.4168587  10.5175781  74.9245882  53.2705021  10.3624392
 113.6905766   3.2190958  25.6837225 113.5426044   2.6791465  26.4601183
 114.6365356   3.3646655  25.6699586  19.5020783  68.9269686  28.1933856
  18.5991335  68.7740278  27.9149389  19.9310791  69.2974710  27.4220777
   5.7984281  38.5736918  25.4720187   5.6176400  37.6339960  25.4948306
   5.1245779  38.9333034  24.8950982   5.5130976  49.9352646   1.1136040
   5.4970235  49.5236683   1.9776410   6.3272554  49.6262836   0.7162250
  39.8307514 104.8416710  85.4680634  40.7334232 104.9662113  85.7611561
  39.6906948 105.5346394  84.8227596 111.2265205  49.0171576  11.6897476
 110.7916546  48.3094501  12.1654367 111.0827351  48.8089514  10.7665956
   3.4412196  12.4197435  27.5299025   2.8260154  11.7266715  27.2903061
   3.3019856  13.1013942  26.8724847  51.2057447   5.5941617  94.6069050
  52.0018196   6.0910207  94.7956562  51.5205479   4.7660202  94.2445374
  97.3438454  37.9799032  17.6953542  96.5766239  38.4234405  17.3335814
  98.0501270  38.6212611  17.6175439  90.1634884  23.8353658   0.3759685
  90.5283356  22.9521155   0.3212953  90.7160854  24.2835593   1.0162744
   4.7074398  99.7136116  40.3530550   5.0850731  99.6983910  41.2324810
   4.0406930  99.0269566  40.3667831  90.2428913   3.1625357  21.6039371
  90.0458050   3.7131619  22.3616958  90.5173779   2.3263663  21.9803834
  42.9869747  82.2930717  75.4790735  42.9424047  81.3379669  75.5238914
  42.1027899  82.5847912  75.7012367  11.9417536  11.7865145  34.6442771
  11.3016355  11.1774898  35.0124741  12.7523375  11.5965438  35.1166081
 109.1683388  39.7654891  31.0294080 108.5736179  39.0818262  30.7209516
 109.8789787  39.2890120  31.4585686  41.4705038  57.0782804  76.0475492
  42.1700239  57.7302027  76.0912323  41.3405657  56.9287920  75.1110649
  94.7765923   3.6219385  92.6980400  95.1863670   2.7850124  92.4792576
  93.8854313   3.3909994  92.9602242  24.0152740  91.2029266  84.7028255
  24.6707916  91.6712379  85.2197552  23.3459330  90.9489536  85.3382111
  22.4634004  82.7971745  85.8225060  23.0137420  83.3275414  85.2462482
  22.1437311  83.4130383  86.4818668  31.5328050  34.5819235  21.0265517
  32.3972821  34.9816966  20.9312081  30.9410000  35.3213096  21.1654878
  15.9097481  69.9600554  68.7592554  15.3634715  70.6622744  68.4061241
  16.0899913  70.2270651  69.6606159   5.9214497  85.2832890  93.0201054
   5.9495527  86.2204552  92.8273010   5.6672078  85.2358818  93.9417076
  42.2141600  77.6841402  88.6157513  43.0611944  77.2397184  88.6512756
  41.8081093  77.4936962  89.4613743 110.9839535  36.0152268  21.8062282
 110.6099415  35.1689887  22.0516419 110.2474308  36.6248941  21.8518448
  41.4063787   8.6323607   5.5448776  41.1153984   8.0781531   6.2690431
  40.6034660   8.8472623   5.0701344 115.1902294  55.6452656   4.7655815
 115.3024006  54.9123955   4.1601482 114.4165421  56.1068344   4.4421732
   9.8167241  14.2749739   1.0999304  10.6004846  13.7305927   1.0250889
   9.7821879  14.5192409   2.0247939   1.5458184  40.6276226  40.0315571
   0.7561557  40.5331087  39.4988918   1.7730859  39.7326708  40.2838373
 111.9368744  31.9863176  11.6203368 112.6388454  31.5317726  12.0860195
 111.2896252  31.3049364  11.4386034 108.8508892  55.5936766   3.7458187
 109.5594501  55.8896732   4.3172717 108.0921650  56.1098909   4.0180117
 108.3269310  16.7888367   5.9665483 108.6667538  16.9057453   6.8537271
 107.3782444  16.8752730   6.0601228  23.7471414  10.1669371  21.2409163
  22.9592776   9.7834498  20.8556366  23.4395480  10.5928075  22.0410752
  28.3359313  58.3146048  62.8912115  27.4568558  58.2280779  62.5224733
  28.1951666  58.3652592  63.8366508  21.7989540  23.3734274   3.8665551
  21.1455107  23.9559007   3.4792960  21.4000416  23.0759525   4.6842402
  65.4521561  30.1736498  45.4017591  65.5568743  30.9838748  45.9005547
  64.6609688  30.3132868  44.8814154 101.9766140  40.8500528  26.8209028
 101.9050884  40.1040363  27.4163604 101.0735416  41.1386299  26.6889524
  18.3178115  11.1236954  26.8984771  17.6855576  11.7721558  26.5886617
  19.1653574  11.5629828  26.8282986   5.0169432  47.5432396   8.2441229
   4.6958521  47.5159025   9.1454470   5.6223261  46.8043184   8.1830150
  35.8731651  12.2119713  29.8678327  36.3273382  12.4686861  30.6703639
  35.8181000  11.2577045  29.9185753  18.2158899  53.8527489  38.8567924
  19.0011954  53.3127308  38.9457273  18.0323684  54.1567993  39.7456694
  65.0620651 106.0811615  21.5322161  65.8264399 105.5521011  21.7603803
  64.4688129 105.9782791  22.2763228   4.9249393  39.7596955  11.3600409
   3.9778674  39.6399951  11.2896228   5.2848887  39.2568755  10.6293964
  94.1058159  53.9237642  14.0858495  95.0611210  53.9809990  14.0672159
  93.8850784  53.9056444  15.0170732  27.5358677  89.8852444  67.6537514
  26.7926192  89.7938919  67.0575380  27.5294375  90.8089256  67.9047728
 105.8891964   5.4997009  12.4837959 105.5922985   5.1905793  11.6279161
 105.5161476   6.3775605  12.5640047  26.8429995  58.1214762  88.1160069
  26.0755897  57.7968979  88.5871315  27.4500012  58.3923912  88.8047600
  34.3178821  73.3587027  91.8948364  35.1608634  73.6819744  92.2128105
  33.8128901  74.1501045  91.7080307 102.3720074  27.3120594   4.9827701
 103.1678391  27.8264642   5.1179320 102.1423912  27.4625635   4.0657887
   7.0492387  82.0568752  32.0599270   6.3584054  82.5299931  32.5237656
   6.6064060  81.6621876  31.3086963  58.7921190  75.6844711  85.7425308
  59.1230249  75.2737617  86.5413189  59.3315172  75.3162670  85.0427437
  81.9413185  87.5387287  55.1005793  81.3423252  87.9935169  54.5084620
  82.7851486  87.5582504  54.6491337  49.1900015  96.7498589  51.3934708
  48.8335180  97.4411297  50.8355284  48.6778927  95.9729481  51.1690044
 104.9790382  41.5755177  14.3869567 104.8895931  40.6364632  14.2244554
 105.1618004  41.6400385  15.3243291  57.1050501  96.6558743  81.6298866
  56.9795847  97.0536995  82.4914169  57.4667168  95.7895088  81.8165112
  58.4348679  46.3889837  23.3707452  57.7534103  46.8639088  23.8464499
  58.7672472  45.7508469  24.0020442  67.2709036  79.8124027  92.6486206
  67.5018454  80.3072739  91.8624878  66.5226460  79.2774677  92.3836994
   2.5651637  23.9367938  15.3762829   3.2606614  23.9743423  16.0328686
   1.8291804  23.5262704  15.8301890   9.3652022   9.0715390  45.6140614
  10.2324402   9.2309391  45.2416086   9.4532156   9.3104476  46.5367794
  43.1597757  67.3432016  89.1594124  43.0987215  68.1558943  88.6573887
  43.2733393  66.6609001  88.4977436   5.8375394  41.7340755  89.9639797
   5.3731740  41.7741537  89.1279221   6.7639261  41.7251396  89.7232342
  10.8286679  55.9682465  40.1877832  10.7747507  55.1156473  39.7560501
  11.2339473  56.5411472  39.5368099 108.7478065  14.8718345  15.2043784
 109.2223835  15.5855489  15.6305540 109.4335556  14.2852378  14.8851812
  87.5883389  21.4808011  74.3895721  87.1734238  22.0456576  73.7376404
  87.8352261  20.6944633  73.9027977  68.8859606  63.8783121  13.9407372
  68.3939505  63.0573130  13.9517486  69.5028687  63.7781286  13.2157397
 101.4191151   9.0791392  21.8844295 101.2653351   9.9889481  22.1390510
 100.5814838   8.6423653  22.0388174  51.8363523  35.5281496  91.0804844
  51.0175848  35.9939814  90.9106064  51.5628433  34.6960735  91.4665890
  29.8431110  24.0790582  23.8679790  30.6817460  24.5299888  23.7700868
  29.5865655  23.8536406  22.9737735  46.9843531  76.6787720  93.6135674
  46.9875288  75.8345222  93.1624889  47.8135347  77.0867443  93.3640862
 108.3115768  30.9335327  32.9322815 108.2454395  30.6222248  32.0295382
 107.7604580  30.3327274  33.4338045   4.5308888  40.2908278  23.4470510
   4.6342748  40.2034569  22.4994707   5.2516443  40.8608341  23.7150788
  55.8800983  67.5543451  89.2129898  55.7897949  67.3776197  88.2765865
  56.8252182  67.5692654  89.3638611 108.5450459  52.6144838   7.3713660
 107.9570484  53.2528353   7.7750969 108.8739204  52.0945024   8.1046420
   4.7882760  34.7975636  44.1829062   5.4713255  35.4217100  44.4280910
   4.4360226  35.1386786  43.3608389  15.7527351  30.6919885  27.0418930
  15.2829564  30.3962064  27.8216720  15.3797877  30.1756740  26.3273573
  82.5434303  13.0339301  10.9893036  83.0731010  12.9234087  11.7789018
  81.6754055  13.2725263  11.3146293  19.8343921  65.0065851   7.2004527
  19.5252454  65.9044552   7.3208565  19.0748858  64.4619942   7.4073392
  45.2360487  52.8832436  38.7493157  44.4149160  53.0539608  39.2106485
  45.1034594  53.2568979  37.8780913  27.0655727  89.9424648  72.1000433
  26.1905670  90.2463055  71.8586445  27.4131656  89.5519066  71.2982464
  20.1122284  25.6375551   3.5628125  19.9591243  26.2541580   2.8468564
  20.0998831  26.1790562   4.3520248  66.1595297  70.5010271  73.4557343
  66.1309147  69.6751213  73.9387369  65.3199291  70.5398273  72.9976892
  31.8342996  23.8578415  18.1446421  31.8545413  22.9139161  18.3022058
  31.5226150  23.9436460  17.2436857 101.9834042 106.6505051  23.0261827
 102.9246807 106.4788818  23.0539465 101.9154263 107.6031590  22.9624438
  89.3066406   7.2936124  17.3525405  90.1150799   6.8143493  17.1709478
  89.4286537   8.1404197  16.9232821  27.5671864   7.9328519  10.5089068
  28.4786010   7.8079689  10.7734013  27.3906446   7.2085828   9.9084914
  29.6539998  90.0507259  89.4522285  29.2956686  90.5276966  88.7036800
  29.5697188  89.1282463  89.2110538  34.6358562  71.5669250  81.8601894
  35.0984240  71.5336132  81.0228348  33.9421725  70.9126425  81.7768097
  86.6188145 108.2527924  27.9742575  85.7563305 108.1637669  27.5687599
  86.8020058 109.1918087  27.9438543  33.3620310   9.1434813  17.1090746
  33.2057691   9.2027324  18.0515742  34.1438270   8.5969079  17.0298052
  55.9785604  72.0302820  77.2603893  56.5372324  71.4126253  77.7322102
  55.1043081  71.8878460  77.6232004  93.4995461  90.5219078   7.8265059
  93.7138939  90.3205585   6.9156009  92.7299500  89.9851322   8.0157495
  59.4844818 105.1338482   6.4689583  60.3969240 105.4197121   6.5132457
  59.4001102 104.4919300   7.1739846  30.5646491  32.4877310   9.9893278
  30.3623652  31.9082236  10.7238245  31.3511491  32.9584289  10.2651751
   1.5633336  62.3174334  80.1940060   2.0816270  62.9991484  80.6216431
   1.9383469  61.4963102  80.5123711  17.0492494  18.5777092  50.0904322
  16.9445276  18.2125342  50.9690189  17.5340044  19.3919265  50.2256918
  85.6105995 103.6027527  88.5153866  85.1469040 102.9125500  88.9895439
  85.5535030 103.3418179  87.5962067  27.0447063  47.9445124  90.6399536
  27.7891970  47.4698973  91.0097027  26.3092327  47.7170086  91.2087727
  25.2645159  23.2086182   9.9913442  25.1316166  24.0813255  10.3614104
  24.4418907  22.7491617  10.1599240 107.9144764  10.5762196  15.9802079
 108.4392357  10.8834291  16.7194545 108.3524704  10.9368813  15.2092898
  48.6693382  76.3222742  79.8168230  48.8976669  77.2203398  79.5768738
  49.2116308  75.7768726  79.2470074  81.7405701 103.7365913  25.5080867
  82.3421478 103.6207771  26.2435603  80.8691978 103.6768341  25.8997011
  36.1797428   8.9307767  20.2716827  36.2180305   8.3499199  21.0315323
  35.6558347   8.4513605  19.6298790  95.5513096  12.2730792   6.2149274
  96.0683060  11.5324986   5.8979291  95.9872723  12.5406826   7.0239764
  25.6659532  42.6184559   1.8319936  25.6270003  42.2766399   2.7252337
  24.9021578  42.2394753   1.3969989  15.1556265  83.1780529  78.6483145
  15.8117020  82.5762463  78.9999151  14.8718739  82.7713299  77.8295994
  91.6705608  80.7085609  88.1196213  91.4951515  79.8225832  88.4366608
  90.9718418  81.2414646  88.4991455  57.0308161 102.3297405   7.0417595
  56.3677740 102.0470047   7.6715732  57.5666761 101.5508270   6.8921953
  27.5936723  85.2419186  74.3882990  28.0437112  85.6849575  73.6689806
  26.8407083  84.8190212  73.9754581   2.6629707  16.4699876   0.7466845
   3.0797690  17.0184183   1.4113158   2.6447138  17.0172739  -0.0384120
 115.2314568  23.9499116  28.2576442 115.1878738  23.9561844  27.3014569
 114.9283791  23.0764461  28.5054946 110.0733662 104.3613911   9.1976660
 109.6680641 104.0771675   8.3784115 110.0327778 105.3172016   9.1659909
 100.3201771  13.2135999  72.2365665 100.6909561  12.3920631  71.9143438
 100.5759335  13.2465434  73.1583738 107.6184750  23.9945269   2.5705689
 107.9284382  23.9895582   3.4761801 106.8289852  24.5353985   2.5905973
 107.8426075  13.4946537  33.0703735 107.2673130  13.6957181  32.3322368
 107.3469257  13.7688220  33.8419747  15.1364708  84.7371960  86.3051033
  14.3956637  84.2213058  86.6233730  14.7536731  85.5791473  86.0585117
 105.7861042   3.3237255   6.0965037 106.5026093   3.1149793   6.6959023
 106.1224461   3.0912799   5.2310133  49.4149208  70.5452013  70.2683926
  49.3826199  69.6934652  69.8328066  50.1943207  70.5015135  70.8223486
  26.5544438  75.0474358  74.5737696  26.3088131  75.6855488  73.9039135
  26.1310196  75.3631639  75.3720570  19.4069648  32.7670813  -0.1299266
  18.8975644  33.5549736   0.0597334  19.3242025  32.2324991   0.6597602
   6.6488737   6.7081034  28.4214473   6.1722195   5.8831233  28.3295727
   6.2976718   7.2661883  27.7275944  22.2085357  71.6454983  58.6341238
  21.4423108  71.7943048  58.0800581  22.4540997  70.7360983  58.4640694
  52.7394629  57.3751307  88.8955021  53.0298996  58.2119226  88.5326576
  53.5494757  56.8972015  89.0735149  73.8799810  82.0568085  86.9895935
  74.3416739  81.4302826  87.5468540  72.9738426  82.0281601  87.2967148
  46.1151600 101.2417793  78.1122828  45.9829712 100.5874729  77.4262476
  45.2402544 101.5910625  78.2819223  52.9214144 107.4617767  55.5087090
  53.0008364 107.5119591  56.4612865  53.0482054 108.3622932  55.2100229
  46.3984776  71.0010529  63.3237839  45.9271765  70.1783085  63.1926441
  46.5129328  71.0629845  64.2720938  27.9259324   6.6917127  15.7925153
  27.2399044   6.0560960  15.5885816  27.4659348   7.5288016  15.8551013
  56.4149952  88.5273361  90.1936340  57.2370768  88.3657265  90.6565475
  56.6063643  88.3076859  89.2818356 111.4023113   3.4527481   8.3699054
 111.7533779   2.9464507   7.6373422 112.0533371   4.1379312   8.5213012
  29.4419670  86.1344910  83.9179611  29.9541354  85.8888626  84.6884060
  30.0932336  86.4293289  83.2814503 109.7753716  36.2076426   3.8210097
 110.2281094  36.3637590   4.6497998 110.1697445  35.4048109   3.4801865
  38.4608960  56.8573618  66.9972086  38.6342096  56.5878487  66.0952330
  37.6825476  56.3609505  67.2501564 114.5433617   4.3497810  11.3633168
 115.0837803   3.8116696  10.7848597 114.2851830   5.0968665  10.8234656
   9.3224221  65.2243519  10.3663528   9.3651974  65.1289368   9.4148809
  10.1117826  65.7158232  10.5935085   0.4943197  25.5036569   0.2578367
   0.8499968  25.3353238  -0.6147392   1.0622866  26.1831880   0.6209973
  52.9794502 103.4645748  79.9057817  53.0092049 104.2053604  79.3003178
  52.7757645 103.8571167  80.7546997  20.9759927  50.9788132  20.6721187
  20.5872941  51.8061590  20.3881407  21.4919472  51.2092972  21.4447117
  94.2922974  35.4271603  25.6916404  93.7546921  35.8225989  26.3778186
  93.7329388  35.4347277  24.9149203 111.7320728  54.5376062   9.1017145
 111.0316467  54.9399090   8.5881078 112.0092201  55.2244186   9.7081065
  25.7025838  92.4716759  86.0881424  26.5740752  92.3218918  85.7216835
  25.6268144  93.4242249  86.1442280   6.3741314  57.3417425  27.9597402
   7.2165704  57.7610826  27.7845740   6.1171865  56.9605112  27.1201730
  74.2921734 105.7946014  66.6908598  73.6913824 105.1476383  66.3210964
  74.1154099 105.7755566  67.6314068  39.0483403  89.9540043  89.8806190
  39.4360113  90.1106167  90.7416725  38.1279659  90.1954269  89.9848366
  42.4705791  61.0869455  33.5302973  43.3354187  61.3937521  33.2579780
  42.5740004  60.8707094  34.4569993  45.6946278  99.9285984  86.4429855
  45.7905293  99.5134640  87.3001385  45.0363445 100.6100178  86.5791988
  76.8919659  70.5612040  62.4785423  76.8944931  69.8626471  63.1329441
  75.9745121  70.6417608  62.2177362  50.9106207  17.2448933  15.4183948
  51.6833305  17.6248753  15.8364415  51.2522411  16.8004513  14.6425092
 107.0122051   1.7161828  29.8256660 107.9230213   1.7294100  29.5316267
 106.6527081   2.5523821  29.5294094  71.5603065  87.3046970  91.2781239
  71.6915941  87.9939079  90.6269932  70.8623791  87.6378632  91.8421555
  19.9350071  47.7876520  94.0590191  19.4189417  47.7650976  93.2531643
  19.3025541  47.6040983  94.7536659 100.3892803   6.0900366  93.9556599
  99.8838997   6.4889967  93.2473850 100.3714180   5.1524037  93.7639427
  48.2500219  44.8565817   3.7299785  48.6379528  45.2195978   4.5261937
  48.0600452  43.9446783   3.9503676  52.8240061  91.5306759  79.5008993
  52.7522182  90.6031513  79.7262478  51.9272900  91.7983818  79.2997360
   3.0058247  27.9121852  18.5091996   2.7811506  28.5482693  17.8301191
   3.6005527  28.3841419  19.0921128  26.9569993  93.1639099  94.2017365
  26.4227057  93.4139156  93.4479046  27.1339011  93.9887428  94.6540451
 108.1576252  45.5786943  10.4647124 108.3985329  44.9223328   9.8109639
 108.2468605  46.4153290  10.0083065  17.5980806  27.0860028  29.7007585
  18.5029709  27.3715734  29.5748425  17.2871828  27.5976419  30.4476190
  14.2924035  31.8384409  10.5699718  14.0253508  31.2459326   9.8672277
  14.5968652  31.2594008  11.2687182  47.0535660   1.8156518  65.7448530
  46.9383049   2.1545804  66.6325903  46.5582323   2.4196927  65.1916695
 116.0159920  18.4874284   8.0045408 116.2688128  18.9512157   8.8027978
 115.0607390  18.4425926   8.0459321  55.4041815  66.4586210  86.6868591
  54.9958467  65.6043291  86.8271446  54.9386549  66.8261147  85.9355450
  96.4697266  33.0337620  24.0106010  96.0846996  32.3672795  24.5796275
  96.9998741  32.5384283  23.3862519   5.2384007  42.1508026   9.5740211
   5.0130033  41.4183712  10.1475835   6.1947089  42.1861982   9.5953166
  31.7135406  35.9268594   2.1507438  31.6695356  35.0643682   1.7379421
  32.6280379  36.1924267   2.0537743  12.4700904  26.4209938   1.1446961
  12.5840986  26.4399076   2.0948941  12.5779712  25.4996061   0.9088163
  58.2888317  86.6007042  68.2288647  58.0492783  85.7097149  67.9739332
  59.1065598  86.7718315  67.7616739 109.2423916 101.1708736  35.6425786
 110.1603317 101.0197926  35.4172277 108.8409042 100.3026962  35.6065822
  78.9641619   8.5334301  71.4724779  79.5329380   9.1039443  71.9894266
  78.1450462   9.0219575  71.3910770  61.6021109  76.2413502  63.5050488
  60.6566906  76.0998011  63.4563398  61.9594526  75.3888035  63.7534571
  16.5177453  20.4257131  10.3140688  16.5815938  20.1745343  11.2355161
  17.0381558  21.2263155  10.2474415  57.8624249  91.6877747  81.9933796
  57.1173811  91.1339855  82.2267532  57.4705458  92.4474335  81.5625858
 102.4696255  12.0947731  19.2923141 101.5171242  12.1257949  19.2028022
 102.7926922  12.7013743  18.6260569  42.4490738  18.6483705  27.6607823
  41.5859270  18.8446510  27.2965360  42.9479694  18.3016193  26.9211197
  37.5581193  95.2253151  84.9695587  37.4415541  95.3250122  85.9143925
  38.1848621  95.9087276  84.7321224  20.4450393  47.4688625   3.4951690
  20.6305146  47.6490784   4.4167730  21.2543917  47.0841599   3.1587479
  13.8507402  29.5940137  24.8827791  13.9484537  29.3237996  23.9697242
  14.0997779  28.8209414  25.3893089  81.5339756  90.9811687  64.1037035
  80.7947350  91.0090256  64.7111416  81.9231987  90.1173019  64.2395830
  56.9248962 100.9980774  79.6322870  57.0097399 101.4680862  78.8027525
  57.8222561 100.7605457  79.8658562 109.0637493  17.6002884  34.3431735
 109.1243362  18.3581758  33.7616491 108.3524990  17.8171456  34.9459386
  46.4502335  74.8817778  86.3568306  45.9114313  74.5066547  87.0533943
  46.0043335  74.6310902  85.5477810  51.4736128  89.5039272  77.5049114
  50.5355310  89.6656132  77.6053905  51.7526960  89.1743279  78.3591461
  35.8217359   2.9416788  42.1298647  35.4450274   3.3089855  42.9294968
  36.1129498   3.7043056  41.6300392  14.4954932  29.9298906  17.1650648
  14.4999278  29.4165325  17.9729497  14.8035550  29.3217278  16.4931500
   2.2187234  75.6841898   5.5574262   2.5849450  74.8589468   5.2394938
   1.9144893  75.4858017   6.4430416  59.1980791  17.7316403  86.7324829
  59.1644526  17.9630554  85.8042908  60.0561666  18.0388296  87.0249844
  81.9198990  10.9166551  93.2881737  82.4586201  10.1830864  93.5846233
  81.2386322  10.5118883  92.7512646 113.3089161  47.1434450  14.6549439
 113.7049675  46.5098429  15.2532053 114.0128136  47.7625704  14.4614434
  29.9245954  16.3624108  42.9727316  30.3844953  16.2839913  43.8085365
  29.0220523  16.1132741  43.1716776 109.9980450  33.7864542  22.8655910
 109.3650436  33.3743119  22.2776413 109.7717094  33.4522033  23.7335086
 113.7360954  35.9558082  15.5311048 114.5817184  35.5465388  15.3476477
 113.4526634  35.5607605  16.3556254  36.7103219   0.3953576  18.2763946
  36.0756493  -0.2663903  18.0016005  36.3253641   0.7850492  19.0613663
  55.6692457  94.3277836  85.0539875  54.7305727  94.4984150  85.1314735
  55.9553766  94.8863888  84.3312740  23.5029268  44.7398949   9.9041802
  23.4842920  45.6966829   9.8832560  23.2823324  44.4764423   9.0107799
  42.9796934  63.9622307  87.0993614  42.3557520  64.6860933  87.1536922
  43.8148117  64.3809986  86.8909264  36.7234302  56.6112709  92.4371243
  36.9253922  57.2912645  91.7944431  37.3791170  55.9316540  92.2808361
  36.6941667  74.9142170  87.8727150  36.7917752  73.9799070  87.6889610
  37.5403786  75.1767588  88.2349682  36.7579889 105.8678150  82.8983974
  36.8246007 105.8912182  83.8529873  37.6654911 105.8354568  82.5957012
  99.0298557 107.3244190   0.8077392  98.8871098 108.1649685   0.3726181
  98.5112095 107.3790836   1.6103907  57.3500299  99.3637943  53.8505411
  57.9716301  98.8468361  53.3380985  57.7800274 100.2113533  53.9645052
  40.5491304  65.9504509  59.2885113  40.6859684  66.2100124  60.1996279
  39.6885562  65.5313635  59.2855215  29.3312812  68.0398178  90.6864643
  28.5563397  67.6931572  91.1286545  28.9814258  68.5677433  89.9687386
  47.4668980  94.1374302  93.5284233  47.0817804  93.3232975  93.2042408
  47.7831078  93.9202404  94.4053936  77.6664782 103.4071350  64.2674017
  78.4031725 103.9984512  64.1129208  77.3867178 103.6016560  65.1619005
  81.9035625   9.0189832  24.2903972  82.2321510   8.7928611  23.4202647
  81.0192680   9.3502605  24.1338491  21.3890672  48.4271002  13.0240047
  20.6186557  48.4951019  13.5879838  21.8504930  49.2565536  13.1478024
  40.8527803  69.5729971  57.2809410  41.0257387  70.4856539  57.5119591
  39.9918294  69.5907450  56.8629932  87.8380394   0.9041553  87.9114532
  88.7041855   0.9051058  88.3189297  87.6445580  -0.0213357  87.7622509
 107.3416805  38.6193657   4.1540042 106.7397499  38.2940197   4.8233759
 108.2128048  38.4341669   4.5048407  54.7909069  79.6488523  72.2464228
  53.9411879  79.4268751  71.8657160  54.5918703  79.8936367  73.1501341
  22.8871489  47.1977949  11.2747347  23.3968997  46.5968609  11.8181205
  22.3739457  47.7094412  11.9000924  44.2525053  97.0905685  87.7360725
  44.2138624  96.1477757  87.8969574  44.6897316  97.1711636  86.8883896
  52.4277449  70.6210041  85.4057789  52.1885300  71.3496304  84.8329639
  51.6101646  70.1406860  85.5364895   5.7324767  19.0913057  56.7035532
   5.3635913  18.6511910  57.4693584   6.0933673  18.3826911  56.1707735
  32.6376581  10.3267193   3.7529641  32.6649809  11.2105548   4.1194606
  33.1591988  10.3832030   2.9523179  33.4490108  68.0387688  88.6709881
  33.8167000  68.5658693  89.3803596  32.6516008  67.6608944  89.0419102
  29.0056181 100.9737778  86.1670494  29.3477941 100.0990963  85.9824276
  28.3525491 101.1246395  85.4836941  88.4051991 105.4600239  57.1401596
  88.8463593 104.6144867  57.2218943  89.0537167 106.0295105  56.7262363
 112.8016853  57.2758055  18.2155597 113.2293320  57.8292561  18.8690400
 113.4003258  56.5382767  18.0975986  78.0364895  97.7431488  67.2448730
  77.3199987  98.0077076  67.8218365  78.0623484  96.7890358  67.3171234
  26.2592387  16.1116397  15.6947827  26.4409637  16.8521249  15.1160860
  26.5225863  16.4160955  16.5632224 111.2545681  47.0380116  24.9215317
 111.9760895  47.6516581  24.7833848 110.5417538  47.3812246  24.3827152
  37.0028710  39.2199397  13.6349213  36.0923553  39.1995478  13.9295042
  37.1141911  40.0941372  13.2612586  65.8548450 108.8080597  79.5421505
  65.5253267 107.9301643  79.3499327  65.9524155 109.2205048  78.6838961
  33.9063716  45.1868343  84.9021149  33.0693793  45.0067139  84.4740582
  34.2138457  45.9970236  84.4955730  51.7484331  88.9630985  92.6808548
  52.3816299  89.5015812  93.1555367  51.4291906  89.5309734  91.9795418
  80.7707214 102.8618050  85.8548832  80.5242825 102.5380421  86.7213058
  80.5442619 103.7916470  85.8733273  43.7743139  77.3540878  84.0316582
  43.2318115  77.3815966  83.2435131  43.9037800  76.4209032  84.2008591
  38.7492943  27.8683829  27.7020621  38.1530118  27.4130344  28.2964849
  39.1710782  28.5320330  28.2478619  57.1005583  87.5752449  87.8656006
  57.6523829  86.8109226  87.6996994  57.5590324  88.2988930  87.4385548
  89.2702961   5.9788430  82.6237011  89.1947079   5.0287133  82.7118587
  89.4319248   6.1207318  81.6909790  75.2253866  92.6083565  77.3107338
  74.4635677  92.1000671  77.5891399  74.8559475  93.3542156  76.8380404
  43.4517527  59.8293686  71.7099762  43.3093596  60.2382231  72.5636673
  44.2034054  59.2519093  71.8433571  63.6033392  87.0980644  86.3059044
  63.7640190  87.6431656  85.5356598  63.7265730  87.6898670  87.0480728
   1.8576162  65.6354713  36.5728927   1.6808745  66.1796999  35.8055568
   1.5180059  66.1430931  37.3099232 109.4200230  55.9790659   8.1217968
 109.0590477  56.8652630   8.1461793 108.6767673  55.4119682   8.3272523
  45.0430584  89.3730068  56.6615391  44.7792482  89.2622852  55.7480955
  44.4007158  88.8672161  57.1593428  84.8791027   6.5619826  91.7927170
  85.4877377   6.8433189  92.4758339  85.3540516   5.8829510  91.3135910
 111.2728882  33.7298489   5.2613425 111.0683346  33.9420414   4.3506479
 112.1714020  34.0367126   5.3827691  26.7088437  14.0194714  13.0623233
  27.1844172  14.3177509  12.2870231  25.7884550  14.0363848  12.7999651
  11.8946815  10.7557511   4.2647424  11.1419594  11.3111234   4.0617579
  12.3623919  10.6731117   3.4336892  93.1509209  26.6952968   8.7659395
  93.6813927  26.8495393   7.9842484  93.1467628  27.5366282   9.2224187
  10.9775984   4.9998191  50.9939051  10.6729472   4.6621364  51.8361568
  10.2267122   4.8976278  50.4091311  10.7621622  88.8674355  82.4983120
  11.5604234  89.3948269  82.4687862  10.7386434  88.4209442  81.6519547
  51.6484022  82.7633667  89.9076366  51.1091471  82.3481750  90.5807304
  51.3203239  82.4047947  89.0830040  25.7750344  54.4728613  21.9238997
  26.6549516  54.1791344  22.1599197  25.2347946  53.6851597  21.9863367
  58.3302212  23.2124233  20.0692987  58.2572222  24.0000701  19.5303023
  57.9435492  22.5193334  19.5341873  99.9381924  25.1589108  57.0630074
 100.5906773  24.7522473  57.6331997 100.2757835  25.0230026  56.1776876
   7.7683520  47.8725481  36.7288613   7.1467733  48.5262823  36.4086938
   8.5927254  48.0934095  36.2954330  91.6201115   4.0175143  90.3422165
  90.7641220   3.7517470  90.6781960  91.4823437   4.1357276  89.4023800
  63.9516878 101.3300133  91.2277889  63.9636326 100.4237366  90.9199619
  64.8374224 101.4828587  91.5569401  32.3687100  49.5594931  30.2836704
  33.0315971  50.2063847  30.5252123  31.9963121  49.8916864  29.4668484
  28.4954762  51.2075567   4.2389774  28.8815212  51.9448996   4.7117591
  29.1303635  51.0047531   3.5519397 102.0724010  95.9769249  93.5138893
 103.0039787  95.9833336  93.2940102 101.6838837  95.3611088  92.8925610
  20.4837155  47.6151562  10.1598251  20.1911831  46.8145704   9.7242600
  21.2652421  47.3516464  10.6456351  16.8377852  65.1331902  21.5397143
  16.3724625  65.5311108  20.8039379  17.1647263  65.8764887  22.0465231
  27.8999352  68.1945181   3.8893047  27.6542449  69.0391922   3.5119608
  27.4733067  67.5478601   3.3271202  13.1586444  43.1543875  18.1369853
  12.3697329  43.2373762  17.6012957  13.6246920  42.4067211  17.7627850
 114.2673206  62.9170465  23.6738873 114.5765686  63.4434891  22.9366922
 113.9410782  63.5578871  24.3056488  15.6701922  46.7059183   5.6557399
  15.1500332  47.2593927   6.2382650  16.5714335  47.0004368   5.7871026
  27.1952796  36.3297176  88.3937359  27.9405379  35.7303739  88.3535957
  27.5901580  37.1976614  88.4772587  12.7074122   1.6709033   4.7437802
  12.3585117   1.1151265   5.4406393  12.4123645   1.2537447   3.9343622
  80.8023548 108.2041740  87.9960632  81.7230797 108.4383202  88.1130028
  80.5220985 107.8965378  88.8580608  29.6189308  68.6095190  94.7221851
  29.8472381  69.3180418  94.1204262  30.4445624  68.1501055  94.8754883
  68.6968994  99.1262817  91.6243458  68.4865856  99.4774342  90.7590771
  68.0865955  98.3983612  91.7422390  35.0574636  24.5885992   4.8084915
  35.1174355  24.7327805   3.8641149  34.1327357  24.3956947   4.9630815
  24.9454236  92.9196262  67.6155186  24.4795203  93.4034348  66.9335413
  24.8750067  92.0028591  67.3494244  31.5543032  90.5058289  86.5235519
  32.3321199  91.0008621  86.7808056  30.8211827  91.0148716  86.8694496
  15.7669401  90.3973484  50.3198528  14.9007201  90.2105713  49.9579000
  16.2947714  90.6468487  49.5613194  70.0337172   6.4881599  74.6434450
  69.5584297   6.9408196  73.9467144  69.8086643   5.5651873  74.5263720
 110.8208084  40.8106661  28.8984370 110.6967449  40.4398823  28.0247331
 110.2298832  40.3072023  29.4584084  16.7930043  46.8308401  10.0301003
  15.8822989  46.8967104  10.3173435  16.7922211  46.1161423   9.3933582
   6.7138892  19.4847798  82.5417137   7.1325624  19.4385314  81.6821766
   5.9117609  19.9848342  82.3908234  31.4338160  63.4010124  83.1980228
  32.0340180  63.0682659  83.8652992  31.9711185  63.4781361  82.4096107
  96.2224960  48.8042974  91.9230843  95.9425259  48.9475250  92.8271484
  95.6569958  49.3759584  91.4038086  40.5786228  91.9927311  54.8637247
  39.9020219  91.3884354  54.5583248  40.6733370  92.6257610  54.1520119
  19.1983581  19.4182765   9.3002653  18.4218514  19.9762332   9.2560536
  19.6059132  19.5063043   8.4386492  45.3565407 100.9587479  81.4411449
  45.0974846 101.2366009  80.5625534  46.0028267 101.6086769  81.7170715
  33.3675146  95.4895496  63.6800146  33.6608577  96.0800171  64.3739367
  32.7259684  96.0002804  63.1862450  29.0626979  76.8199825  87.5566578
  29.1999674  76.3564682  86.7304897  28.7024045  77.6683283  87.2983265
  66.6742897  70.9769011  88.8293743  67.5728464  70.7239962  89.0412140
  66.1330366  70.4606676  89.4266891  52.3511076  73.2158947  69.6596766
  52.4964046  73.5780525  68.7856293  51.8509436  72.4142313  69.5066595
   9.5932531 107.0357323  62.0546484   9.7651511 106.1230469  61.8229389
   9.0758556 106.9854259  62.8583860 114.8694324  21.4994788   2.5460806
 115.6421185  22.0604587   2.4791668 114.8099613  21.2837172   3.4767488
  31.7318535  63.4093857  13.1875300  31.2540174  63.4725666  14.0145206
  31.0552883  63.4793997  12.5140393  11.3112080  21.0040236  82.2825432
  10.3892803  21.2198186  82.4229527  11.7728567  21.8333530  82.4063492
  22.9975224  47.3509121  16.9233704  23.3821416  48.0205774  16.3578188
  23.4782314  46.5514183  16.7089939 105.2419949  11.7363739  65.3680372
 105.6117725  12.6175570  65.4229307 105.4357147  11.4505255  64.4752884
  57.6358700  91.1623955  91.6807556  58.3550119  91.7201233  91.9774055
  57.7131701  91.1591053  90.7266903  60.7731390  15.0631201  77.7173281
  60.7169056  14.8243654  78.6425638  59.9115753  15.4253674  77.5106525
  29.0462589  40.9558105  28.0688024  28.6939597  41.6943073  28.5655284
  28.2944512  40.3796959  27.9305625 111.9919300  59.6331120  25.6497407
 111.1616516  59.1730452  25.5264378 111.8263626  60.2359724  26.3745713
  40.9730959  47.3974752   7.8651309  40.2833605  47.8463411   8.3540231
  41.7317295  47.9770613   7.9343492  57.7792358  94.2848206  79.5722580
  56.8249464  94.2246056  79.5282269  57.9852200  95.1259518  79.1644526
  86.1825275  72.4936581  92.6319504  85.8372784  72.5638866  91.7419529
  86.9623661  71.9456530  92.5437927  73.4914541 104.0070438  61.9681358
  74.3607664 104.1783047  61.6059303  73.2344294 103.1673717  61.5871954
  70.0196218  80.2993774  80.9151363  69.5826626  79.8748636  81.6534328
  70.9530258  80.1673317  81.0811138  95.0754261  18.9606667   3.6262169
  94.2011929  18.7697935   3.2863474  95.2184868  18.2999396   4.3038639
  58.2087278  67.6910591  94.4312954  57.4823952  67.9431486  93.8611031
  58.9359617  67.5220919  93.8322926  52.0474005 102.8631401  94.2696762
  51.7953444 103.7852478  94.3188190  52.3735046 102.7512360  93.3767223
 108.6997890  48.2712936   3.4686276 108.4858418  48.9620972   4.0957248
 108.1591415  47.5283766   3.7369671  88.9621544   9.7510040  88.8538456
  88.4222889  10.4401147  88.4666824  89.8501682   9.9456805  88.5542393
 110.2803612  39.8326874  14.5851076 109.9025822  40.2671003  13.8203871
 109.5775986  39.2718697  14.9134994  15.7471311  15.8929944  27.4856448
  15.3432703  15.0287998  27.5649881  15.0380099  16.4622295  27.1867299
   4.8522338  24.2418981  55.3372288   4.7989669  24.9951816  55.9254074
   4.6641463  23.4878850  55.8960867  48.5493612  97.8215122  78.0325651
  47.6515579  97.6111221  77.7758121  48.8527536  98.4341431  77.3625898
   4.4385701   8.4445733  52.9709053   5.3150272   8.5819280  53.3303308
   4.0258807   9.3073690  53.0096722  18.5112596  68.3293676  82.3418427
  18.4290874  69.2717981  82.4878025  19.2488694  68.0652475  82.8917599
   6.5403122  40.3643131   3.6897966   6.9602627  39.5094657   3.7852323
   6.2250477  40.5757284   4.5685142  59.0083313  73.8682032  91.2842560
  59.6424627  73.3869505  90.7527447  59.3297052  73.7773180  92.1813011
  40.6307983  17.8610444  30.0087953  41.4997244  18.2466924  30.1204729
  40.5315828  17.2732329  30.7577038  85.6749439  66.0618210  75.2847052
  84.9419403  65.4464722  75.3011942  85.3473377  66.8368626  75.7410145
  82.3041630  40.7929850  20.4943228  81.4844131  41.2443209  20.6956697
  82.9841328  41.3529110  20.8689618  31.1301899  72.6262283  86.4587688
  31.9881892  72.3788214  86.8035316  30.5392742  72.5471449  87.2076321
  67.4316645 106.7212009  76.6358995  67.3845053 107.6692009  76.7596197
  66.8270254 106.3643742  77.2865248  75.9621668  36.6643405  12.3049331
  75.3670406  35.9445286  12.5145292  76.8282557  36.3377953  12.5488341
  55.6777620  41.3437271  94.4361687  56.4544678  40.8164310  94.2492962
  55.9053183  42.2219133  94.1308212  32.8112912  20.7083702   7.2784626
  32.8601241  20.4503393   8.1989336  31.9495320  20.4070854   6.9906563
   1.9742969  83.1759453  25.7328868   1.3451508  83.1837082  25.0115347
   2.7650750  82.7892971  25.3568482  10.0698602  50.3144455   7.9051256
   9.4029665  50.5941582   8.5322189   9.9399173  49.3696928   7.8227472
  68.7782288  37.0530891   6.7780888  69.0519810  37.8636956   6.3488960
  68.6157942  37.3062563   7.6867986 110.3610039  40.6930208  45.0248766
 110.0984097  40.0757360  45.7076931 111.2709332  40.9062052  45.2317810
  34.4427013  73.5833025  60.3806448  34.2665100  72.7811718  60.8723545
  35.3807163  73.7343884  60.4969692  19.9186397 105.4487610   4.2728344
  20.3190923 104.6334267   3.9710155  20.1587176 106.0940361   3.6078343
 104.9036789  49.2890644  21.4717388 105.5042553  48.8372660  22.0645356
 104.6164322  50.0588942  21.9627380  23.1530881  85.6817245  24.7600889
  23.7771726  85.1268005  25.2278614  23.4145832  86.5755177  24.9814153
 108.2527542  27.9248500  13.6303234 107.7859497  27.1399403  13.3435404
 109.0910149  27.8866720  13.1697857   8.4682846  18.5993552  11.6314447
   8.6852789  18.7823594  10.7173026   8.7577385  17.6976156  11.7704248
  54.0196228  95.6755829  82.5705242  54.0170431  96.6326809  82.5847435
  53.2301426  95.4267788  83.0511951  48.2453299  96.3996601  92.1385002
  49.0679836  96.4422894  92.6259995  47.8660202  95.5552673  92.3821449
  49.3449974  77.4686384  75.2989912  49.7727346  78.0965710  74.7167778
  49.5727587  77.7653360  76.1800861  77.7751446  97.5837231  84.5153236
  78.4595108  98.2271194  84.3311596  77.2895336  97.9547977  85.2520180
   4.8874572  40.3442717  20.8064318   4.6397191  39.9128199  19.9886858
   5.8219451  40.1598215  20.9010005  45.6233597  84.5690155  92.1355820
  46.4400864  84.4318771  91.6555882  45.1172781  85.1638412  91.5821362
 111.6845703  15.4794168  90.8414555 112.3746395  16.0144210  91.2336349
 111.3243294  16.0269368  90.1438236 109.4883728  48.4566212  33.9018559
 108.7462997  48.9887190  33.6147547 110.2202225  49.0717840  33.9488864
  28.4715104  96.3661194  76.0731983  28.9104581  96.0537434  76.8643856
  27.7020526  95.8031654  75.9880590  13.8480580  18.0252099   2.9566315
  14.5202887  17.3858702   2.7208728  14.3073428  18.8650119   2.9612440
  82.8855228  48.0475664  17.5032055  83.7736320  47.7131605  17.6283264
  82.8513050  48.8417673  18.0364060  14.4946396  34.9330997  23.4451866
  14.9895537  35.7315016  23.6291623  14.2821538  34.5787072  24.3086028
  25.8397555  47.7390814   2.5125474  25.7903600  46.9380522   1.9908705
  26.2769365  48.3704472   1.9411652  15.1616538  26.8759465  11.2724686
  14.7941971  26.1047006  10.8407426  14.9889731  26.7344403  12.2032690
  98.9937687  59.7217178  79.8463202  99.3958950  60.4816675  80.2670383
  99.0866756  59.8900032  78.9086199  28.2231021  64.4977713  80.4104424
  27.7364469  63.6736250  80.4238796  27.5642323  65.1679659  80.5920029
  46.9021130  64.7441101   0.7350447  47.3363113  64.9980545  -0.0793346
  46.0873079  65.2464199   0.7387640   2.6975819 106.8471718  73.4428835
   3.2275504 107.6438904  73.4674835   2.0567350 106.9640446  74.1442299
  32.2221971  75.4184628  18.8890958  31.5911317  75.4251766  19.6087778
  31.9598675  76.1525631  18.3336580 108.6617374  17.0334172  92.3504639
 108.4441948  17.7863431  92.9000187 108.8120270  17.4063683  91.4818096
   5.3924179  48.4672832  32.5477076   4.6161777  47.9585218  32.7819061
   5.7478249  48.0216599  31.7787242  44.4631433  31.3018394  77.6617098
  45.2848482  31.2916565  78.1525564  44.4314432  30.4481101  77.2300005
  12.4535978  79.2639208   4.5060185  12.0697629  79.7224474   3.7585849
  11.7619586  79.2636013   5.1677340  10.1530504  31.0864830   5.3329033
  10.8269060  31.5178490   4.8074758   9.3262684  31.3983583   4.9649411
  28.2307267  20.5103779  84.2218971  27.6543927  20.2482271  84.9397755
  27.6391983  20.8588624  83.5548973  84.5917034   3.8541883  84.8312283
  85.0913525   3.6443955  85.6202602  84.9794674   3.3057126  84.1492844
  86.3702869  31.0351205  62.4043417  87.2994614  31.2091470  62.2540188
  86.3597202  30.3616738  63.0844831  88.2425213 103.2921886  86.4039516
  87.5607395 103.3157063  85.7324886  89.0596867 103.4109116  85.9198380
  60.2966261 100.7705688  52.2376442  61.1655855 100.7823277  51.8363905
  60.4208422 100.3043270  53.0643415  68.0479908  79.2903280  75.3137684
  68.9429379  79.6112442  75.2027798  67.8044653  78.9564514  74.4503689
  41.7381620  87.9427528  60.9103346  41.7072678  88.7690735  60.4281807
  41.4274693  88.1657028  61.7878294  67.6765966  18.6772907  88.1922054
  68.5206890  18.6560106  88.6430836  67.8760815  19.0352786  87.3271751
  55.7164526 104.2266560  69.6174335  55.7915497 103.9051247  70.5158806
  56.1684275 105.0703812  69.6264267  34.5526862  39.6487832  11.5768576
  35.5062628  39.7154689  11.6266394  34.3853307  39.2366791  10.7292759
  14.8341882  41.3175726  17.0939779  14.6373260  40.4623175  16.7118514
  15.6511497  41.5855551  16.6732764 103.0254173  85.0688839  92.7852440
 102.5254631  85.8815384  92.7085590 102.4556541  84.4833088  93.2839394
  60.7268047 103.2571030  85.7401848  60.7478762 102.3051357  85.6425190
  60.4574442 103.5801792  84.8803616   1.0672972  82.4485016   2.2705504
   1.7991185  82.4041653   2.8859392   1.2789643  81.7995358   1.5995276
  43.8078976   9.3535912  29.9920583  43.4448242   8.7870300  29.3113136
  43.0919504   9.9482274  30.2157950  30.9936976  71.0868406  28.2113624
  30.1078343  71.4391565  28.2971120  31.4440513  71.7078352  27.6388407
  85.2228451 101.8984127  65.1575994  85.8274651 101.7378998  64.4331026
  85.7760239 101.8850517  65.9386539  30.7673883  22.8857541   0.5644008
  29.9218869  23.3009934   0.7344964  30.6479144  22.4321604  -0.2699917
  13.0853283  45.3740120  30.8897591  13.4937906  44.5202827  31.0330606
  13.1850088  45.5326843  29.9510789  33.8589644  92.8826237  64.4501400
  34.5639992  93.2402420  64.9898291  33.5200787  93.6370087  63.9681721
  65.8960295  55.0594616  11.8392515  65.4909849  54.8097706  11.0086954
  65.2146578  55.5485010  12.3005569 115.1331806  46.1130524  90.1627922
 115.9670448  46.1836386  89.6981049 114.6294212  45.4765654  89.6555042
   3.7154049  17.0869946  85.2604008   4.6145654  17.3988247  85.3628922
   3.1961215  17.6656199  85.8187675  80.4629230 105.5278301  86.6898441
  80.3080177 105.9273434  87.5457764  80.9304237 106.1993790  86.1931610
  15.3950715  67.0026493   6.2905163  16.1604154  67.0051432   5.7156473
  15.4088557  67.8622437   6.7114007  53.4349966 100.4889107  86.3469410
  53.0283976  99.6243763  86.2878895  53.6038160 100.6108856  87.2812080
 112.8358936  77.3056507  15.6406879 112.8304768  77.2376633  14.6859205
 113.0970383  78.2099056  15.8149374  33.4211636 104.1556644  64.7966337
  33.9588928 103.5863400  64.2462254  32.9061794 104.6716499  64.1763258
 110.1754093  51.1947680  24.7309351 110.8021164  50.4947662  24.9138689
 109.6864319  51.2978506  25.5473304  56.3966656  97.0962906  65.0918913
  56.2667847  96.1838627  65.3504276  55.8097839  97.5927162  65.6622934
  66.9489956 102.3514938  56.9252300  67.0967197 102.5204182  57.8557539
  66.2418509 101.7066002  56.9081879  84.1150570  98.3502007  87.3882961
  84.0270329  97.9041862  88.2306480  83.2276821  98.6402607  87.1769714
  16.8116462  48.3417273  31.9866395  17.0669401  47.6341009  31.3947558
  16.8067157  47.9380035  32.8545213  92.9777241  20.0190735  82.9421520
  92.5679493  19.8451579  83.7895489  93.9160538  19.9245107  83.1059456
  29.5317364  37.4503803   5.2147758  30.3449559  36.9639134   5.3498906
  29.0723705  36.9636679   4.5304334 104.6508503  10.0791311  90.3836346
 104.1194820  10.2218485  91.1669064 104.3857193  10.7765412  89.7840023
  96.2433338   3.4248355  77.6375294  96.9185448   4.0964708  77.5415039
  96.5866375   2.8342029  78.3079910  38.8853645 100.9166527  91.3778877
  38.1612182 101.2294960  90.8356953  38.9763546 101.5799904  92.0619488
 103.9949036  12.1069467  88.2261181 104.1138268  12.6456833  87.4439049
 104.0831661  12.7206898  88.9553356  95.1917171  17.7734208  83.1733036
  94.7524548  17.6746655  84.0180111  95.6456757  18.6137795  83.2362080
  85.1971436  15.5112875  83.0100536  84.6598911  14.7232628  83.0913639
  86.0124874  15.2053463  82.6127529  48.9564657  96.0692406  18.8127887
  48.7940645  95.5244160  18.0427110  48.7117815  95.5152607  19.5540452
  65.4550648  66.5198946  63.5970259  64.6357107  66.9816685  63.7749290
  65.5209970  65.8706284  64.2972708   4.3125373  93.8326168   4.7074640
   3.4881216  94.1061020   4.3052492   4.7002518  93.2298851   4.0729386
 105.3225613  36.4037371  58.3920002 105.6550026  35.9687281  57.6068354
 105.9930420  36.2441945  59.0562582  72.8628826  93.9769936  92.6585102
  72.7869892  93.5644722  93.5189152  73.7058640  94.4297409  92.6834774
  24.3824863  57.6854420  15.4415739  23.7923813  57.7227974  14.6888375
  25.2326894  57.4532557  15.0681078  60.2384090  87.0573139  84.9171543
  59.6603918  86.3294506  84.6883488  61.1193323  86.7297363  84.7357750
 115.0202179  84.8334599   9.9843574 115.0626564  85.2569103   9.1269654
 114.9901867  83.8971329   9.7878307  34.3549085  86.4912319   5.2082509
  34.2390776  87.2209454   4.5997068  34.7913933  86.8789291   5.9668040
  52.9397726  97.5017834  74.5008850  52.9697180  97.4504089  75.4562330
  53.5989380  96.8732643  74.2064428  42.7587509 102.4224472  82.6973724
  43.4776688 101.9878578  82.2385597  42.6012850 101.8763542  83.4675789
  52.4344635  40.3813410  21.1087584  52.5269270  40.7793665  21.9743562
  53.3164167  40.4074907  20.7376695   0.3612655   9.2187828  92.7887821
   0.3364222   8.7366134  91.9622707  -0.3587288   9.8459744  92.7219200
  99.7867680  61.2123966  21.1125183  99.4377041  60.9384537  20.2643752
 100.5103493  61.8001318  20.8951974  73.0628777  96.2412167  73.5794115
  73.3703041  96.8573952  72.9145527  73.1683636  95.3801060  73.1749535
 115.6056309  10.6144524  78.5855436 114.7932243  10.5052412  79.0798092
 115.8196449   9.7333562  78.2787895 104.3130398  43.8986444  28.7193584
 104.8786354  43.2642031  29.1596055 104.6618652  44.7513008  28.9792347
   3.6666983  64.3557882   4.5168209   4.3660617  64.3285894   3.8638407
   4.1105604  64.1971445   5.3499180 114.5231438   9.6403956  71.5658426
 114.0182877   9.0931332  70.9642982 114.9380589   9.0189660  72.1640921
  93.2835960  30.7192254  69.5031691  93.7271786  30.6319833  70.3468847
  92.3525047  30.7453585  69.7236633   9.8087120  77.4520350   0.5664017
  10.1753521  77.3617125  -0.3131714   9.4069904  76.6021633   0.7468731
  71.6561031 101.5352726  94.6989250  72.3636580 102.1446609  94.9092674
  71.5617704 101.5966988  93.7483692  57.0159149  98.3759212  83.8776016
  56.6678047  99.2656898  83.9355850  57.7465916  98.3638382  84.4958210
  63.5423136   9.1588217  75.8890009  64.0754414   8.7245667  76.5549040
  63.1588507   8.4417176  75.3840780  44.7148943  68.9080715  10.1692688
  45.0308275  69.4398355  10.8997774  44.6516991  68.0226135  10.5273235
  40.7610941  89.5041275  10.6926346  39.8789048  89.1420650  10.7756639
  40.9806442  89.8046303  11.5745223  32.1920943  73.5303879  66.5930510
  31.6621828  73.4706306  67.3879433  31.7565656  74.1991615  66.0645676
   3.1839564  86.0633183  11.2807834   3.9878514  86.5701199  11.3954210
   3.1599802  85.8605194  10.3456223  76.4527369 103.1523323  75.5322647
  76.7068768 102.2690964  75.2648020  77.2592783 103.5416508  75.8701420
  11.8476355  16.4458656  72.0612478  12.6692975  16.3095057  71.5895367
  12.0896339  16.9880104  72.8120804  22.7658772  42.6851845   3.8078749
  23.5312605  42.2369242   3.4480345  22.8174424  42.5278664   4.7506493
 107.8621101  13.0321145  88.6984158 107.4371338  12.1852756  88.5624504
 108.6220646  13.0148613  88.1166840  73.0517101  96.4780998  86.1301041
  73.7859154  96.3011551  85.5419922  72.2965384  96.0803127  85.6968403
  58.4985065  89.2667866  84.6515942  57.8840923  88.7740803  84.1075706
  59.2580700  88.6905956  84.7370148  31.5099168  43.7860298  23.0266428
  31.7815876  44.3299294  23.7659645  31.5781188  44.3637276  22.2664833
  35.2549481  58.6552382   4.1752714  34.9400115  58.1818295   3.4052500
  34.8874044  59.5342255   4.0829322  60.5632687 105.0217056  41.8144274
  60.3978443 105.9644985  41.8106413  59.8467493 104.6548939  42.3323870
  55.3637505 107.6683998  87.8302765  54.8718786 107.1641541  88.4783745
  55.3805447 108.5585403  88.1818485  65.6605673 100.1071930  80.6958294
  64.8311901  99.6337986  80.7611465  65.7725954 100.2659035  79.7585535
  63.9116240  15.8984840  93.1063747  64.3612528  15.3433061  93.7434292
  63.8431358  15.3551280  92.3213196  67.4977589  47.7314949  10.4253364
  66.6101933  48.0714846  10.3119099  67.7912807  48.1012392  11.2580240
 102.6046467  80.5012703   4.2267784 102.1974277  81.1628819   4.7859493
 103.3719158  80.2104282   4.7196695  40.5997562  95.1090717  83.1034374
  41.5073395  95.3709793  83.2581329  40.4474926  94.3954468  83.7229538
  89.5272160  73.0823898  92.2361374  89.5252991  72.1805334  91.9153881
  89.9560165  73.5826349  91.5417862  74.2905092  25.0564957  65.1228952
  73.7488461  25.7769346  65.4450703  74.7150373  25.4075193  64.3400860
   3.1065780   1.2926011  85.5932140   2.5644940   0.5345356  85.8116531
   4.0028992   1.0032472  85.7638454  50.8708763 103.8434315  90.3052807
  51.4353085 104.2679214  90.9513855  50.6156349 103.0174160  90.7161045
   6.6077417  23.3425403  89.1652870   7.2178620  23.8135743  89.7328377
   5.7595295  23.4306741  89.6000290 103.0352211   6.4179438  75.6325340
 102.7140713   6.2271476  74.7512341 103.8873291   5.9840626  75.6760979
  60.2016354  76.4304447  67.6465559  60.1785612  75.5116034  67.9138231
  60.7387209  76.8601036  68.3122587  21.2653017   9.6054018  82.7820873
  21.0431719   8.6933935  82.9695225  22.2183776   9.6413314  82.8632450
  19.5507288  45.2355003   8.6119264  19.7629845  44.5022678   8.0343860
  18.5944283  45.2387667   8.6532819  91.8094063  21.8487787  47.9393721
  91.2874699  22.0806789  47.1712351  92.5182724  22.4919176  47.9503298
  27.7324486  73.0983019   9.7906071  27.1351290  73.4368420  10.4575658
  28.1159019  73.8802338   9.3933886  44.5712614  53.5672140   0.4998294
  43.6154032  53.6107349   0.4739345  44.8031712  52.9698038  -0.2111903
   5.1616359  46.7434263  60.8476734   5.7134479  46.3486719  60.1724672
   4.5126411  47.2507811  60.3602028 113.1492138  31.6612768  79.6147251
 113.4037685  30.8228636  79.2293692 112.6267338  32.0881653  78.9357376
  44.8868656  19.4618011  52.7486372  44.0808010  19.1023195  53.1191301
  45.5217409  18.7489569  52.8194523  70.4263639  39.8735070  11.6466641
  69.9140787  40.6675529  11.4940596  71.1065102  40.1422739  12.2642386
  30.0069046  53.6479807   1.4684670  30.9133339  53.3594513   1.3618514
  30.0207353  54.5745802   1.2287748  18.4871340 104.5618534  67.5277567
  19.2964613 105.0455189  67.3625708  18.5027146 103.8451576  66.8934584
   3.1897667  11.2962949  38.3287382   3.5380426  11.7964971  39.0667987
   3.9539230  11.1116588  37.7826548   6.9631928   7.2517908  87.0681953
   7.4790335   6.6967970  86.4832783   7.5891602   7.5523233  87.7270317
  66.5327787  24.4570565  87.5027657  66.4783907  24.8728371  88.3632278
  67.4407530  24.1613507  87.4365997   3.4714803  36.8995404  91.4026928
   3.2726258  36.5934563  90.5178165   4.0869409  37.6212311  91.2738323
 108.9085484  19.0534961  67.9035330 108.6589527  18.5752738  68.6942530
 108.4626579  19.8967779  67.9828596 102.2861195  95.4601574  66.8419695
 102.9664898  95.4270935  66.1694860 101.6508389  94.7966957  66.5727758
   6.5601069  14.8198092  70.4272413   7.3861313  14.8023856  70.9105778
   6.6942340  14.2100251  69.7017050  34.2011738  64.3543530   5.9084183
  33.7679482  64.9072647   6.5586770  33.5478067  63.6918354   5.6838876
  65.0186014  56.0513306   0.7066841  64.1270542  56.3927794   0.7759308
  65.4228497  56.2648678   1.5476438  99.1452217  18.8089585  83.7688255
  99.8745346  19.2410100  83.3242226  99.2138195  19.0986693  84.6785450
  91.3394260   0.7463422  62.7147198  91.2983894   1.6899784  62.5594807
  90.5245018   0.5435122  63.1740570  35.2813530   7.7089161  45.7695961
  36.0064316   8.2323778  46.1108828  34.8323131   7.3841000  46.5500355
  24.7929215  14.9961281  87.3560238  24.0811300  15.6354117  87.3259640
  25.2934813  15.2315688  88.1371975  45.1923800  18.5786951  49.0977001
  45.1249075  17.9031634  49.7724867  45.1821566  18.0944145  48.2721090
  94.6053982  62.7862501   8.1956941  93.6633301  62.8473568   8.3538240
  94.8467159  63.6461067   7.8512394  22.8661942   6.6941732  79.7653580
  22.6102924   5.7731175  79.8143816  23.7009907   6.6862243  79.2970848
  46.3588476  82.6635647   3.3802521  45.4960489  82.9338455   3.0659935
  46.4947748  83.1759453   4.1772637   1.4510179  24.7192216  87.1853924
   2.0647302  25.2371860  86.6645241   1.6810434  24.9169993  88.0932522
  23.8012385  47.2652578   6.4270252  24.0358043  47.7854490   7.1955383
  24.5954180  47.2556973   5.8927792  38.5834956  11.2187898  94.2176342
  37.6298189  11.1380017  94.2032719  38.8991356  10.3179288  94.2887115
  55.1156378  70.4133511  17.8572166  55.4632092  71.0258245  17.2089124
  55.5381775  69.5798445  17.6499414  67.7685356  82.1574974   1.2633771
  67.8012657  82.3351288   2.2033820  67.4781322  81.2475109   1.2015498
  35.0266004   2.5357145  71.9274664  35.4850888   1.7884624  71.5432358
  34.9157763   3.1483674  71.2004137  22.2387719  63.6140013  52.4533844
  22.3535085  64.5599174  52.5445223  21.4450073  63.5186243  51.9270086
  17.1377861  17.3922455  67.6201439  18.0345666  17.7055264  67.7379274
  16.9918156  17.4336183  66.6750431 103.3378601  17.8044677  71.3238716
 102.6259136  17.8969014  70.6907654 104.1179466  17.6615214  70.7878971
  21.2162471   1.2478109  88.5732937  21.8250751   1.5202928  89.2598152
  20.3922153   1.0882550  89.0334606  64.5065022  89.2903709  21.4739895
  64.1775560  88.9305401  22.2977304  65.3092718  88.7984467  21.3013601
  67.1973085  44.4055700  11.6527200  68.1405115  44.4673014  11.8036664
  67.0691872  44.7802067  10.7812476 108.3708477  18.7952721  75.4435778
 108.8470173  18.6004627  74.6363974 108.6397457  18.1072366  76.0522890
  78.2250452  72.8782415  19.4846416  78.4224892  73.6977434  19.0311372
  77.2709608  72.8708935  19.5615077  94.1222858  13.8277638  76.4993000
  94.0747356  13.0369067  75.9621620  94.6593475  14.4328141  75.9877157
  27.8451753  19.3559706  61.9715834  28.2228947  20.2152109  62.1593761
  28.6020732  18.7872279  61.8306303  51.8801403  18.8689601  40.7117891
  51.2857771  18.5731173  41.4013147  51.8743420  18.1590688  40.0697184
 109.0686131   4.7046593  91.6709709 109.8935413   5.1858801  91.7354107
 109.0607166   4.3614158  90.7774639  31.6960096  18.2377863  65.4405594
  32.5498724  18.4656513  65.8082962  31.6144681  17.2958636  65.5901098
  14.7749662  46.4107561  72.4670410  15.6785679  46.2053776  72.7069426
  14.8020625  47.3279524  72.1945524   5.6692553  20.2251315  89.4378662
   4.8800761  20.6841683  89.1502666   6.2990296  20.3654122  88.7308025
  16.6112292   5.1299697  81.8328381  17.4838650   4.9783480  81.4698696
  16.7005014   4.9267954  82.7639580  21.4617920  11.6091907  69.9002266
  21.0959578  10.7252121  69.8689508  20.6973982  12.1830952  69.9508858
 107.0231438  95.1682949  80.3278255 106.6848373  95.1889706  81.2230015
 107.8835964  95.5834007  80.3873158   1.7060409  28.1012297  75.4411936
   1.5692618  27.2503638  75.0245953   2.6490009  28.1409335  75.6008244
 115.6712151  28.5356617  89.3968105 116.4228344  28.3550715  89.9613380
 115.2011108  29.2406034  89.8421097  17.4331093  24.6903801  73.3049965
  17.9469359  24.3521476  74.0383577  17.3913991  25.6345057  73.4570456
  31.4854908  77.0492315  16.7695796  31.9299912  76.6373253  16.0286450
  31.7518353  77.9676962  16.7281854   4.0511253  21.8991399  67.7625561
   3.5403141  21.2096834  68.1867647   4.7030434  22.1510768  68.4165907
  55.4560995  75.7894182   7.8575832  54.8806143  76.1168766   8.5488307
  55.3924751  74.8366690   7.9242861  94.9420261  69.7925377  12.5495183
  94.2780399  70.2654886  13.0511796  94.5704269  69.7184515  11.6705120
  27.9192352  26.0191488  88.5957146  28.7673426  25.5912066  88.7132454
  27.5005627  25.9609962  89.4545364  30.9750772   2.8616682  70.6496048
  31.7652392   2.4042700  70.9371138  30.9692121   2.7548593  69.6984005
  92.1466446  14.8473108  92.5281334  92.0289135  14.1331363  91.9017792
  91.3457870  15.3661847  92.4530697  88.6058807  93.4146976  46.9770098
  88.5154533  93.4143257  46.0240889  88.7063408  92.4913502  47.2084284
  39.2678761  27.7406216  77.2988319  39.3974304  27.6711726  78.2446766
  39.7646022  27.0079327  76.9346046 114.4665051  14.8668635  53.7225676
 113.8126087  15.5058193  53.4390306 113.9547729  14.1541481  54.1051865
  56.7359829  90.1473427   7.0070809  56.9424582  89.5008469   7.6820940
  56.9819880  90.9866428   7.3960364 113.4070301  90.5420017  86.1751652
 112.8449154  91.1756516  85.7293415 113.4444332  89.7939873  85.5790901
 113.6520863  19.9277925  89.9567127 112.8042889  20.2110553  89.6143150
 113.5523129  18.9857531  90.0939751  13.6841881   3.1282583  89.0809250
  13.2305837   2.2867081  89.1285419  13.5468388   3.5234341  89.9418545
 104.6150112  71.3584900  40.9153938 103.6820602  71.3014746  40.7090569
 104.6493244  71.8514347  41.7351866   1.3904914  44.8607206  74.9144983
   1.5501548  45.1701641  74.0228796   0.5267193  45.2077723  75.1373959
   0.7690798  27.6446199  49.5483732   0.2943184  26.9341683  49.1169882
   1.6528919  27.5980997  49.1837549  31.6408324  24.8740244  92.7738762
  31.3473606  24.0186381  93.0875969  30.8757496  25.4407191  92.8725433
 104.7035694  41.5559435  64.3655396 105.1537609  41.9025517  65.1358795
 105.0626945  40.6756878  64.2541218  53.6116934   0.5331535  83.8950729
  52.9314613   0.6478472  84.5586777  53.8899088   1.4236289  83.6808777
  44.5957613  65.3996134  10.1562107  45.1291609  65.7919645  10.8474231
  44.6482182  64.4577599  10.3186774  50.6728220 103.5455418  62.3861599
  51.4740658 103.4521770  62.9014492  50.6598902 102.7728367  61.8213654
  94.5367908  26.8904710  79.0122747  94.0658855  26.1903071  78.5603380
  95.4580784  26.6382289  78.9503860  74.3253851  79.2852640   3.2983702
  73.4661818  79.5919752   3.5880718  74.8393631  80.0847626   3.1849372
  38.0789876  89.8818302   4.4008794  37.6829100  90.3032970   3.6381724
  37.3806930  89.8660564   5.0553769  10.1833248  24.4336009  88.6742973
  10.8912063  24.0014172  88.1964397  10.5558264  24.6217084  89.5357418
   8.6547446  22.2067451  82.3926926   8.2787693  22.3400998  81.5225792
   8.1300032  22.7632189  82.9682064 102.7588272   2.5620198  83.1660080
 102.0456600   2.7544659  82.5572491 102.4804688   1.7647421  83.6166763
  32.3256063   0.6507836  92.0731163  32.3518062   0.4867342  91.1304474
  33.0950069   1.1942461  92.2431278  29.8335433  38.2039404  59.7892189
  29.8618865  37.3262310  59.4083595  29.0048671  38.5716486  59.4821072
  31.1416793  89.6612167  12.2342193  31.3115644  89.5087147  11.3046408
  30.9206247  88.7973309  12.5821710  90.1746082  16.7035711  50.8972740
  90.4527760  16.9048786  50.0037766  89.4915771  17.3470068  51.0861874
   8.9375246  10.5663967  50.4825926   8.1178963  10.0807524  50.3899050
   9.1354120  10.5259264  51.4182377  18.5425353  16.5405548  74.8540783
  18.3422494  17.2516859  74.2454624  17.8948867  16.6336894  75.5527258
  61.7245579  80.8425140  -0.1441856  62.3611784  81.4261341   0.2685329
  61.6427660  80.1083946   0.4645887  28.9702010  46.5027094  71.2596703
  29.7140670  47.0257139  71.5585947  28.9593554  46.6225338  70.3100586
  13.5531723  36.9682884  80.6156158  12.7557898  37.3398209  80.9929466
  14.0467656  36.6450667  81.3693619  70.7569790 100.3010464   3.8044876
  70.3064251 100.6790543   4.5596972  70.2731752 100.6307793   3.0472326
  33.8910961   2.0917590  76.4370775  33.9438200   2.6425314  75.6559849
  34.7267675   1.6254565  76.4581919 102.9768467  47.8608274  68.0737448
 102.5280190  48.0087185  68.9061642 102.6647568  47.0041656  67.7822590
 115.4291439  48.3216763  77.7805996 115.9120750  48.4927034  76.9720411
 116.0921478  48.0018997  78.3924866  53.0918407  38.7826633  54.8955822
  52.8044987  38.5438681  55.7768536  52.3236942  38.6329818  54.3444204
  82.5549507  72.9184008   2.9241264  82.1424866  72.1081209   2.6248819
  83.4873867  72.7913618   2.7490249  28.4583402  28.9142561  73.5176992
  29.3144417  28.9182210  73.0895615  28.6378312  28.6158776  74.4093227
   2.3570690  36.2543011  88.9188671   1.7547977  36.9981861  88.9071846
   2.9244959  36.3936043  88.1606770  12.6741326  31.7338443  66.7795086
  12.4480999  32.3587060  66.0905313  11.8435574  31.3146496  67.0045662
  42.7621365  85.4289055  14.4947588  42.4106264  84.9821949  13.7246132
  42.0558357  85.3864956  15.1394105  40.9308481  22.0979905  47.9120445
  41.3294029  22.9612350  47.8016233  40.5401230  21.9038224  47.0600700
  67.3183918  48.0666876  13.4746814  66.8453979  48.8976765  13.4303546
  66.6348600  47.4084234  13.6000133  30.5119395  25.9701061  79.4228506
  30.5345821  25.3901768  78.6616659  29.6274233  26.3359571  79.4189930
  33.8336420  11.7345583  57.1109295  33.7509584  12.6193798  57.4665785
  33.5107732  11.8063247  56.2126875  20.8393621  33.0473948  70.1879930
  20.1706743  33.0631495  70.8727121  21.6499066  32.8326941  70.6496763
  14.4480884  35.8291101  56.6611671  14.0262222  35.9429193  55.8095169
  15.2885580  35.4180026  56.4590979   2.7309102  55.2702570  74.9360895
   3.0113971  55.4443216  75.8345652   2.5716454  56.1371136  74.5627022
 115.8278179  35.8337212  93.4774113 115.6795120  36.6065478  92.9324532
 115.3495502  35.1328683  93.0343533  20.1576114  19.6532249  75.2869272
  19.8533225  20.5261421  75.0386238  20.2415800  19.1837788  74.4569874
  53.6220884  33.7641430  59.9625969  53.9106131  34.6528244  59.7546768
  53.3923244  33.7980199  60.8911943   1.5866809  39.7311831  88.7166500
   1.2470430  39.0329456  88.1568813   0.8352888  40.3049517  88.8664150
  35.1904678  33.8936758  92.1706009  35.6532097  34.1324687  92.9737663
  35.5152106  33.0186534  91.9582081 110.4170704 105.0539970  80.3304768
 109.7866631 105.0495625  79.6101952 111.2351894 104.7537041  79.9345827
  45.1500988  63.8970661  75.3810167  44.7436190  64.0874434  74.5355797
  44.4535875  64.0457535  76.0205460  76.1411428  94.8064613  22.0425081
  75.5637312  94.5902157  21.3103437  75.9553432  95.7264614  22.2304320
  40.7921791   8.3027428  69.2944956  41.5455818   8.8499284  69.5163107
  41.1135340   7.4054462  69.3829298  49.7645712  36.0100436  83.8596153
  49.2994738  35.1737070  83.8382244  49.5750713  36.4112473  83.0114651
  26.3283014  55.8543205  84.8858070  27.2359419  56.0763359  84.6781254
  25.8142161  56.2837553  84.2020416  87.6190376  62.8429270   9.9638247
  87.4987793  62.8587198   9.0143394  86.7717171  63.1139898  10.3171039
  50.7022381  50.6221056  58.7889814  50.7936192  51.5662670  58.6607695
  51.5780973  50.2723074  58.6254358  40.3320360  26.3529325  82.1057701
  41.1118507  26.8784738  81.9270897  39.7593760  26.5112662  81.3552856
  49.4084930  34.9220610  76.8365765  49.9236250  35.6712580  76.5372849
  49.9451351  34.1599989  76.6186094  53.2098246  39.5044446  88.3922577
  54.1457701  39.5411134  88.5894680  52.7818394  39.7204828  89.2207432
 102.8578281  54.8561621  70.4123831 102.4692059  54.0059137  70.2067757
 103.7920284  54.7408342  70.2385855  28.9681602  19.3986642  71.2044573
  28.9923787  19.9029136  70.3912067  28.5226178  19.9717259  71.8284178
  51.4736557   5.4345042  90.3752804  52.0144606   5.0612801  91.0713100
  51.5916729   4.8392528  89.6350193  18.7533641  17.8984487  86.5650558
  18.1121266  17.5167811  87.1645355  19.2878449  18.4688628  87.1174908
  32.6397777  26.0266209  88.4379482  32.9902411  26.4222765  89.2359829
  31.9587684  25.4287386  88.7461567 106.9087887  21.3829160  48.1592655
 106.3962364  22.1850300  48.2599306 107.8120995  21.6858697  48.0671358
  58.7282324  20.9325457  32.5403881  58.9709091  21.6920757  33.0699682
  57.7961254  21.0543513  32.3599100  10.4248095 106.7679310  76.0930014
   9.9088836 106.6461277  75.2959967  10.1041210 107.5906467  76.4625072
 101.5892601  89.5743370  66.9739342 100.7886696  89.3667126  67.4557877
 102.2087765  89.8539162  67.6479292 106.3133621   5.1194257  46.0514450
 106.7765141   5.4176807  46.8342400 106.6950798   5.6307113  45.3379202
  87.4382019  99.6908283  63.5425186  86.6374493  99.4105530  63.0992699
  87.9179001  98.8788986  63.7065315   4.2839310  23.8164687  91.3763332
   4.0892741  23.1149793  91.9978333   4.7427666  24.4764423  91.8960857
 102.2951221   6.4778346  14.1062319 101.4264488   6.0774058  14.0704262
 102.7890873   5.9246683  14.7114098  82.9548550  11.7380476   0.7085042
  83.1496429  11.8457627   1.6394648  82.2261620  12.3369098   0.5454183
  14.0778112  11.2891984  10.9801424  13.5677814  11.1136687  11.7708957
  14.9433863  11.5386200  11.3038707  62.2746706  82.7530003  31.7517090
  61.9648504  82.4841404  30.8868599  63.1925154  82.4821281  31.7721939
 106.0039043  32.1692514  81.0812473 106.3716412  31.3334751  81.3684464
 105.2000523  31.9311452  80.6193352   0.4584685  33.9075923  79.9476385
  -0.1845662  34.2041564  79.3035984   1.2952745  34.2369938  79.6197939
  16.3487101  46.5472078  43.4754992  17.1506214  46.5367031  43.9980459
  15.7152617  47.0166159  44.0182972 102.0451641   6.0959166  73.1994438
 101.6199207   6.9036484  73.4874821 102.1692848   6.2132883  72.2576094
  24.9931216  18.5090494  77.1568918  24.6851587  19.0458310  77.8871346
  24.4876552  17.6990652  77.2251654  27.5566173  24.8563957  68.3600712
  27.8295517  24.3407512  69.1189194  28.3700991  25.0402737  67.8903198
 112.4923134  22.0857263  79.2089605 111.7527294  22.2555614  78.6255264
 113.0009174  22.8964734  79.1931963  33.9623356  39.5367360  88.1198025
  34.0683365  39.5014596  87.1691418  34.2453098  38.6745811  88.4245014
  32.5492358  45.3971958  46.9593382  32.9118848  45.4212999  46.0738230
  32.9893041  46.1129141  47.4179411  75.0607109 106.4873028  15.7392323
  75.4113388 105.6578064  16.0636032  75.2883244 107.1246243  16.4161777
  29.6025276  50.6054115  83.2446480  28.9879894  50.1344967  82.6817894
  30.2711034  49.9567175  83.4647274  59.7548342  28.7731910  61.8881702
  58.8000584  28.8365149  61.9132280  59.9290609  27.9806042  61.3805485
  96.0752010  94.7541618  29.9555230  95.7748222  95.6534386  30.0871062
  96.5592289  94.5440388  30.7541442  17.8383219 109.5896435  84.0960407
  17.3656023 108.9447880  83.5698032  18.5225356 109.0848446  84.5356560
  15.6499624   0.8806532  55.0112152  16.0989344   0.6088807  54.2107153
  14.7402692   0.6144058  54.8777914   9.3794924  27.6630235  64.1725063
   9.9576610  27.3824549  63.4631205   9.9549252  27.7423382  64.9333096
  69.0191364  72.7476549  29.6259212  69.2993116  72.6652765  30.5374837
  69.4175625  73.5646009  29.3257833  50.2248526  49.7752619  61.4544344
  50.7727480  49.9801445  60.6967640  49.9162483  48.8837099  61.2927723
  16.1890626  31.5968442  85.0693607  16.9002783  31.3087726  85.6415653
  15.4823828  31.8377709  85.6683540  57.4517107  96.8279934   1.3787043
  58.2292271  96.3124466   1.5929864  57.7366924  97.7378178   1.4637151
  41.8386889  39.7824168  84.8391342  40.9015512  39.8060679  85.0326538
  41.9594669  38.9759517  84.3378735  32.0837498  81.9041061  52.6590729
  31.4848351  82.0753765  51.9322968  32.8140903  81.4303970  52.2610331
  96.1094666  74.7099066  14.5509470  95.4677486  75.3896189  14.3449974
  95.5829906  73.9346743  14.7460413   5.7816011  19.1416037  67.4093819
   4.9399459  19.4972324  67.6946497   5.9378749  18.3989120  67.9926634
  71.3196611  50.9423780  24.0382719  71.8498993  51.7391586  24.0532351
  71.4125776  50.6095743  23.1456137  38.8841486  27.6875734  90.5767059
  39.5064783  26.9605684  90.5566692  38.0271316  27.2673225  90.6484222
  69.8192549  12.9902935  48.9742374  70.5530834  12.3837149  48.8753128
  69.3182707  12.8942645  48.1642818  75.4859543  99.7363949   8.7718087
  76.2301588 100.1605129   8.3445895  75.8751106  99.0242290   9.2793560
  68.7086248 102.8735447   5.4663879  67.7656698 102.7857971   5.3272045
  69.0238619 103.3331108   4.6881512  40.2267551  46.6238070  56.4992714
  39.3078828  46.3556767  56.5027237  40.4629230  46.6814232  57.4250889
   9.6853590  20.7351589  77.9119968  10.5694306  21.0975981  77.9693413
   9.7158009  20.1478386  77.1567774  22.6855493   7.4225974  91.9617176
  22.8553033   6.4855421  92.0583725  23.0422497   7.8141177  92.7590370
  13.2728779  43.5491085  60.4990530  12.3681402  43.6195946  60.1945686
  13.1983566  43.4302998  61.4459229  40.2797318  30.7305312  77.8042793
  39.3365216  30.7529879  77.9657841  40.5845499  31.6058755  78.0432129
  40.8405209  17.8464615  85.3886318  41.4251137  17.2688401  84.8978806
  39.9615955  17.5944901  85.1053810  16.3680327  12.9154134  81.4550686
  16.6394889  13.5891044  82.0785141  17.0546806  12.2505307  81.5068340
  50.4581165  44.2252302   1.4275356  50.7155943  44.8384047   2.1159814
  49.8190022  43.6490250   1.8467572  55.0723362  95.5719948  10.1847744
  54.9074507  94.9337387   9.4907445  54.3013191  95.5165195  10.7492995
  12.7029741  17.9296172  78.7060785  12.5406682  18.8469982  78.4863043
  12.6481497  17.4693727  77.8685808  42.6446009 107.2537327   1.6543229
  42.3901415 107.1309376   2.5688732  42.7182102 108.2025433   1.5515186
  60.1564121 108.1409454  19.4493294  61.0217667 107.7975941  19.6718359
  60.1682758 109.0440369  19.7663748   7.0082456  39.8463225  55.0641298
   7.4101108  40.3577137  55.7664251   7.7308005  39.3400335  54.6928930
  52.8077316  38.3604693  50.6557941  52.5234699  38.2184219  51.5587091
  53.7634420  38.3271766  50.6975269  21.7683315  37.8497005  45.4577494
  21.8318605  37.5229335  44.5602989  22.6321530  37.6831698  45.8349943
  28.0878544   3.1923169  68.6828804  28.3586669   3.1470361  67.7659082
  28.5613084   2.4772528  69.1080379  15.5502188  30.5591178  53.7421322
  14.6836567  30.8418584  54.0342951  15.3742397  29.9493217  53.0256081
   4.5473418  27.7287316  89.3247032   4.3715310  27.9752541  90.2327538
   4.1628113  28.4353161  88.8059521  84.1750813 100.5183315   2.3586316
  83.9451122 101.1191654   3.0673915  84.2695713 101.0802174   1.5894888
  86.2720299 102.4199104   0.0495883  86.2882996 103.3726597  -0.0411349
  85.3434277 102.2030544   0.1326770   5.8803076  94.5244122  18.3502400
   5.4640436  93.8019753  17.8800917   6.0393697  95.1873589  17.6783502
 102.7181149 104.2933273  93.3890820 102.9095745 104.8301411  92.6200485
 101.7831993 104.4252014  93.5464859  55.7636213  26.5084100  92.5557137
  56.2721395  26.8863654  91.8382263  55.2223825  27.2315264  92.8725624
  92.8778648   0.2035154  53.1694746  92.2075653   0.5601504  53.7523460
  92.5560093   0.3953309  52.2886515  88.8654041   3.3243841  83.0663109
  88.0299568   3.5061604  83.4966946  88.6542225   2.6706028  82.3998260
  42.4082613  22.2751641  74.6922922  41.9161224  22.3675179  73.8765097
  41.7680311  21.9438887  75.3220510  21.3722491  41.4239168  67.5012398
  22.1182704  41.2003183  66.9447422  21.7496014  41.9458151  68.2093763
  49.9451160  70.0123739   8.0530274  49.7503138  69.1583729   8.4389883
  50.6180716  69.8308229   7.3969746  78.5784864  59.2893314  15.6541693
  78.3977699  58.3503008  15.6965685  78.6127472  59.4846010  14.7177243
  38.3915949  51.1595440  76.6609621  39.1337585  51.6722965  76.3407898
  38.0903363  51.6327620  77.4365520  25.6281567  22.6879621  70.6581068
  24.7983432  22.2233820  70.7667589  25.7981062  22.6576924  69.7166014
  62.7956057 105.4240799  25.8789802  61.9817638 104.9202251  25.8838391
  62.6673985 106.0926628  26.5518737  47.1671486  12.3318160  86.4713001
  47.7072287  12.1193612  87.2324848  46.3079882  11.9632685  86.6768360
  43.1685638  86.3739777   8.7106955  43.0115700  85.4389381   8.5792184
  43.4933567  86.6835213   7.8651643  24.5605636  51.0181093  82.7477074
  24.2828274  51.5518332  82.0032310  23.7500858  50.8229542  83.2180977
  61.9272327  80.7718182  10.0011122  61.6434050  80.7572174   9.0870768
  62.8550339  80.5388165   9.9675536   9.1079974   8.1785941  32.2430515
   9.0000933   8.9018208  32.8607345   8.2269406   8.0192387  31.9045591
   4.7333887  29.3008780  72.7381659   3.8254327  29.0704823  72.5412798
   4.7573143  30.2556872  72.6749563  34.6763539  80.7871723  63.4463453
  34.2821002  81.2398434  64.1919231  35.3891206  80.2742004  63.8272047
  33.4590793  86.4392948  15.3130937  34.3957901  86.3823414  15.5016708
  33.3145118  85.7943821  14.6206939  60.8775949 103.5789871  26.2957525
  60.0007772 103.2142353  26.4156580  61.1752129 103.2176304  25.4608393
   6.3128668  83.3849430  90.9518242   7.1535820  83.8190746  91.0966110
   5.7851124  83.6248398  91.7135048  24.1151786  68.4863424  13.7118423
  24.0065765  68.1050110  12.8406215  23.2234836  68.5693932  14.0497959
  95.4868126  36.3172388  38.1657577  94.5603943  36.5197921  38.0355430
  95.9453297  37.1171188  37.9084897  54.0397453  80.0954342  74.9045277
  54.8116350  80.4979134  75.3025579  54.0583467  79.1883659  75.2096844
  50.1123047 102.0034599  17.5110614  49.3597555 102.5946712  17.4918735
  50.3583288 101.8990040  16.5919340  37.7412629  32.0179820  73.8695908
  38.3052945  31.3294673  73.5173893  38.1312370  32.8326154  73.5525322
  49.2003965  28.3336234  81.1860275  48.7827015  29.0869927  81.6034031
  49.5450020  27.8168774  81.9143486  41.4607668  90.2539921  13.2008302
  41.7818022  90.3278351  14.0995598  40.6033278  90.6791496  13.2170904
  32.6211143  37.7030611  57.9118490  33.1511068  37.9639053  58.6650419
  31.9931102  38.4170628  57.8020954  46.9414520  29.7778201  68.2457590
  46.5073395  29.7134328  69.0964222  47.8755093  29.7952414  68.4542370
  84.2214489  16.2166011  88.8291931  84.5584011  17.0044720  89.2557621
  83.8518047  15.6971467  89.5431709  34.1314650  58.2080555  93.8760376
  34.6446323  57.4970722  94.2599487  34.4843626  59.0020561  94.2776012
   8.1846482   3.5006934  46.1593294   8.6686069   3.4330222  45.3362656
   8.0518067   4.4405964  46.2824869  48.4374046  61.3223505  80.3059006
  49.0928793  61.9824362  80.0803661  48.9063263  60.4898405  80.2486992
   0.4632447   7.7613080  68.3734655   0.9766917   6.9629180  68.4966660
   0.1238273   7.6924849  67.4811172  35.2292323  35.5763006  85.1869011
  35.6270099  34.7147655  85.0613403  34.5242119  35.6111145  84.5403957
  14.1537607  39.2514729  91.6981220  13.3084190  39.1838431  92.1420288
  14.5458937  40.0505590  92.0501518  89.4027996  89.6096897   6.7292976
  90.2100277  90.1049042   6.5900850  89.1121960  89.8664570   7.6044291
  17.4984193  62.8950739  74.5631123  17.1352923  63.3211279  75.3395462
  18.3110595  63.3694601  74.3875885  68.7045002  51.5298033   2.2738485
  69.5322275  51.8951225   1.9613644  68.1284571  51.5538406   1.5097636
  65.3231239  77.2547865   2.1345729  65.8951044  76.6108370   1.7169626
  64.5009089  76.7865801   2.2793825  49.9002171  26.9503260  89.4892311
  50.4870462  27.3038435  88.8207340  49.0450859  27.3262811  89.2803288
  27.4019146  45.5289412  63.8876295  27.5905442  44.5925808  63.9499426
  27.7625418  45.7900429  63.0402803 100.5770683  93.7739944  82.4039555
 101.5279102  93.8414478  82.4909973 100.4449368  93.1065655  81.7306614
  81.2859726 105.2242661  66.9410086  82.1774483 105.4557228  66.6803551
  81.1098385 105.7729053  67.7053404  28.3957696  10.7435405  77.9454470
  28.1464195   9.9244982  78.3734989  27.5646639  11.1848688  77.7701664
   9.9098861  45.6332827  57.3599768  10.0314665  46.4687061  56.9088459
   9.5326406  45.0555229  56.6965675  43.8599253  27.1346545  89.4399738
  43.0812740  26.5791249  89.4763756  44.5528841  26.6016102  89.8297119
  15.5806243 103.2989216  65.5497456  15.4621506 104.0895557  66.0761356
  16.4725506 103.3691311  65.2094936  59.4534492  95.1012039   9.3220973
  59.0471458  94.5826149  10.0165093  60.2818108  94.6558475   9.1440278
  53.4869146  96.4344692  21.0540962  53.2405949  95.7250309  21.6476130
  53.7542772  95.9912109  20.2489448  71.1096096  99.1896534  75.5330992
  71.4184237  99.5665550  74.7091961  70.4414272  99.8019886  75.8410263
  69.0465069  74.6725178  12.7561677  69.3931770  75.4195595  12.2683418
  69.6013308  74.6161699  13.5341311  18.4763217  55.3927135   4.8432130
  18.8313901  54.9897289   5.6355262  19.2301166  55.8141613   4.4304076
  43.9376450  38.1237435  71.7947674  43.9806747  37.4813509  71.0864496
  44.7679853  38.5967708  71.7398787 115.4622841  88.5373211   5.5603939
 114.5691204  88.8152313   5.7634926 115.8712387  89.3106461   5.1718557
 108.3282185  33.4609818  61.5116453 107.6902008  32.7768612  61.7144680
 108.1875896  34.1268182  62.1847916  21.9170141  20.0008893  86.3362408
  21.2222099  20.5119467  85.9211540  22.6287270  20.0000119  85.6961727
  11.2346554  68.6013651  79.4525576  10.9886229  68.7025690  80.3720474
  11.4823103  67.6803732  79.3708563  95.8800793  91.6312408   5.0469881
  96.6186237  91.2917614   5.5524963  95.3008652  90.8776569   4.9336070
  52.9610729  30.6869912  81.0737324  53.6767244  31.2389207  80.7583809
  52.1959114  30.9814930  80.5797482  56.5882778  85.5622768  21.9438410
  55.7124329  85.4206562  21.5845823  56.4384317  86.0434532  22.7576232
  63.9758539  60.7750368  20.3807616  64.1203260  59.8546886  20.6005764
  63.5003471  60.7511616  19.5503652  21.6914010  33.0699730  92.7998066
  22.5642514  33.4426379  92.9242516  21.6256905  32.9238200  91.8561077
 113.5009861  62.6598120  55.9690714 112.7334023  62.5706863  55.4041815
 113.1720543  62.4811935  56.8500566  88.5550594 100.1236343  93.2926655
  87.9724979  99.3675232  93.2208920  88.8317776 100.1266670  94.2089844
 114.0025234   7.6425719  81.2209702 113.8669300   7.3407853  82.1191788
 114.9502468   7.5986499  81.0940361  49.5048428   9.2925477  87.2418690
  48.8856030   9.9129111  87.6264763  50.3086042   9.4115961  87.7478600
  60.0558424  85.0059700   6.4221716  59.6390867  85.1428318   5.5714005
  60.9213924  84.6558285   6.2113196 102.0887375  40.4333258  54.6223688
 102.3019218  39.9861264  55.4413843 101.6041183  41.2127495  54.8941755
  11.1024833  64.9450922  35.7123590  11.1273074  65.7891607  36.1631012
  10.2483797  64.9292040  35.2805185  21.1932158  23.3349156  62.8741121
  20.7262015  23.6779141  63.6360073  22.0642138  23.1163383  63.2054949
  60.5368948  58.4421730  20.1634002  60.1957130  59.1461897  19.6118712
  60.3994226  58.7513590  21.0587978  48.4618187  77.2856760   6.6295445
  48.5359240  76.4371777   7.0663387  48.7308216  77.9209518   7.2930944
  58.5114622  80.8213520   8.9012235  58.3046055  80.9404373   9.8281878
  59.0506124  81.5797615   8.6767834  90.3266144  31.3555241  48.2647991
  90.2222347  32.0035672  47.5681114  90.9035587  31.7784357  48.9008141
  54.7391462  81.2110233   7.8384775  54.2742777  81.3921070   7.0215690
  55.0519753  80.3115749   7.7417260  52.5485945  90.0750256  20.2452326
  53.2033396  90.2305508  20.9259343  51.7257023  90.3749180  20.6314254
 103.9367390  46.8919516  42.3210239 104.2129517  46.1543846  41.7770290
 104.5841312  46.9258070  43.0252743  37.4465966  47.9114294  87.1795559
  37.6210356  48.3038998  88.0349922  38.0902386  48.3131742  86.5959835
  44.2524958  47.8456402  69.4229507  43.9768982  47.0488071  68.9698124
  43.6511755  47.9199266  70.1639795  98.0281162  62.8758812  11.4810908
  97.3946381  62.2429848  11.1429024  97.5106907  63.6614990  11.6580033
  67.8603125  84.9197102   1.1737109  67.7953720  83.9647198   1.1707392
  67.3551035  85.1917458   1.9398636  73.4791613 107.2452831  10.0107288
  73.2130146 106.6498661  10.7113516  72.7273607 107.8255463   9.8910528
  22.9636908  31.3738394  56.1889267  22.3104548  30.7946992  55.7963514
  22.7321219  32.2464657  55.8709192  22.8984499  47.6305199  76.1140776
  22.4449325  47.8736115  76.9212103  22.8878951  48.4275198  75.5840683
  35.0570583  34.2702866  61.8229389  34.7220874  33.6245346  62.4450588
  35.1532030  33.7856317  61.0031271 108.3378506  46.8767309  62.0219660
 107.7614307  46.8599081  62.7859592 108.2536316  47.7659893  61.6779232
 108.1476212  13.7010431  61.8124247 107.2003555  13.8385952  61.8087339
 108.5135746  14.5601761  62.0226526  34.5329022  42.0152473  94.4195938
  34.2108464  42.4939442  93.6558151  35.4143119  41.7353058  94.1726494
  30.9208584  68.3198977  73.7304783  31.6340661  68.6807728  73.2038546
  30.7723951  67.4470758  73.3666468 115.0522232  13.1929588  77.9296923
 115.3220367  12.3304558  78.2451725 115.7474041  13.4555542  77.3263693
   2.9399157 101.2223911  62.8997850   2.9848680 100.5455303  63.5751104
   2.0651463 101.5989208  62.9959154 107.8177071  23.0510139  87.9804611
 107.4124813  23.6284065  88.6274910 107.4305534  23.3168960  87.1464062
  40.3932142  85.3568363   6.0112959  41.1861897  84.8233318   5.9584600
  39.7226334  84.8333073   5.5725896  21.8868828  23.7942100  69.8308659
  22.4865246  23.5175085  70.5237579  22.2483945  23.4082603  69.0330076
  32.4498439  34.1956520  72.4388838  33.3181024  33.7927556  72.4444103
  31.9253421  33.6266327  71.8755484  22.5713587  29.2968297  84.6238327
  22.3195839  30.2188754  84.6755219  21.7490339  28.8323784  84.4679642
 109.7222137  86.6995907   5.8488196 110.4934025  86.1414433   5.7489145
 109.9746990  87.5310516   5.4473776  29.5217919  30.5482769  69.6386623
  29.9692082  30.0615215  68.9464760  28.9631033  29.8987389  70.0655127
  49.7570992  36.3928604  33.5493779  50.3578377  35.7640815  33.1494045
  49.4692326  36.9449282  32.8223372  38.6515307  34.9310207  54.5854378
  38.3424115  34.2134666  55.1384258  39.4522166  35.2350140  55.0128937
  48.6554050  31.6473436  45.9459114  48.4132242  31.0850930  45.2100754
  49.5936108  31.7994428  45.8324718  45.2838993   1.9844092  90.9319973
  46.0444975   2.4811432  91.2336159  44.5364332   2.5505072  91.1244965
  11.8680656  32.8339338  83.0828857  11.7993057  33.6367226  83.5996437
  12.4910891  33.0486059  82.3886299  38.0646229  43.4633017  55.1811361
  37.8701782  42.5285387  55.1130009  37.6106811  43.8572884  54.4361877
 107.7327156  21.3365722  68.5848188 108.1208229  22.1847653  68.3699274
 108.2644844  21.0064459  69.3090296  89.9077415  41.1165714   9.5712489
  90.1531887  41.8352556  10.1538980  89.8674679  41.5158510   8.7022340
   9.2285514  41.6780615  81.1753941   9.4971895  41.1303616  80.4377747
   9.2544281  41.0913610  81.9312668  32.9163265  53.9155245  91.4580727
  32.3996854  53.8268137  90.6571674  32.8931713  54.8518467  91.6555500
  91.7696476   3.5396257  19.4702768  91.4374447   2.6546362  19.3197107
  91.6966343   3.6651182  20.4164028   2.5960541  61.6921997  85.8693600
   3.4112269  62.1797848  85.9876347   2.0594445  61.9362116  86.6235161
  28.1296325  49.2416620  58.9311171  27.2169828  49.3864918  58.6814594
  28.6365032  49.5817471  58.1937838 103.7570477   5.7390362  16.5672040
 104.6109772   5.8702773  16.9792867 103.8770866   4.9728560  16.0061407
  33.5457373  40.4792738  70.8710432  34.1041565  40.9115982  70.2249002
  32.7715707  40.2100468  70.3766584  27.1638989  20.9850883  72.2863293
  26.7110872  21.6957283  71.8322515  26.4792895  20.5520940  72.7962828
  25.0132322  66.6541147  60.7524633  24.4336104  67.0761919  61.3865948
  25.4065776  67.3796320  60.2675581  47.8435707  66.7248535  88.8497257
  47.1807814  66.9937849  88.2136250  48.6433315  66.6229773  88.3337498
  98.8117886 108.4910011  22.8047085  99.4836712 108.1592274  22.2091150
  98.5584068 109.3359566  22.4331212  69.9568558  33.0300093  90.2257729
  70.0709486  32.0997953  90.4204845  69.0542316  33.1007409  89.9151325
  53.8513708   2.2981551  65.5203485  54.1086006   3.0619550  65.0039387
  53.1155109   1.9202255  65.0387812  21.9967747  55.9314919  90.4640961
  22.8334165  55.8536530  90.9225750  21.4017153  56.3061523  91.1135292
  15.0120926  54.1818142  92.5781631  15.9472322  54.1379499  92.3786068
  14.7688603  55.0878620  92.3880482  75.0424623  19.1903186  53.1239319
  75.9539604  19.2453945  52.8369331  74.5314932  19.3259656  52.3259735
   6.0018027  39.7400641  62.1817923   6.6114396  40.2371168  62.7272415
   6.3084829  38.8353968  62.2431040  12.0279276 106.5501022  79.9337196
  12.1107292 107.4032307  80.3598022  12.9052162 106.3630867  79.5996189
  22.7382040  67.7885532  75.4799223  23.1116271  66.9179535  75.3426552
  23.4016037  68.2564783  75.9870529  25.3280520  27.5843549  81.4679623
  24.7982001  28.3680630  81.3220596  25.1264572  27.3227882  82.3663902
  25.5912232  57.9402161  68.5544109  26.0309720  57.2429180  68.0679655
  25.1697373  57.4917603  69.2875290  43.5666180  68.8102388  86.3090515
  42.6271534  68.9832878  86.2483501  43.7313938  68.1453943  85.6404209
  68.9674234  96.1675930  13.5858393  68.8022041  95.5665207  12.8594518
  69.9214315  96.2021828  13.6558461  42.6207733  43.3224010  77.4983597
  42.7854252  43.7348986  78.3462811  42.8502226  43.9944124  76.8565035
  35.8967233  46.9590282  71.1513042  36.6362047  47.4104166  70.7443047
  36.2939000  46.2298584  71.6275311  37.1462226  46.4277887  84.6361160
  36.3242340  46.8392515  84.9030781  37.8201365  46.8990755  85.1259708
  35.6154275  64.1940069  61.3332987  35.0423574  64.8357677  61.7527819
  35.0179672  63.5382175  60.9738302  60.3145266  92.5466156  19.0167344
  60.0358772  92.6837254  18.1113124  61.2378120  92.3033428  18.9489591
  83.1252861 105.4269505  58.1040621  82.7549362 104.9526215  57.3596954
  84.0642643 105.2464294  58.0599117  45.3472900  46.0770893  77.0661736
  46.2959719  46.0243464  76.9501829  45.2109814  45.9180641  78.0001783
  92.5547791  22.8922510   7.9954451  91.7225647  23.3629632   7.9498297
  92.4817562  22.3523545   8.7824714  71.3957930  30.2535367   3.0633119
  71.4336824  29.7951770   2.2238462  70.4920483  30.1400614   3.3575851
  37.7830935  17.3581886  66.7514324  38.7121964  17.4011648  66.9776011
  37.3277521  17.5001395  67.5813437  53.7572145 101.3324738   3.1603310
  54.3818951 101.0941792   3.8453275  53.0175734 101.7142677   3.6329773
  51.4163733  11.0590148  85.0489998  50.6979465  11.4597511  84.5596027
  51.4040375  11.5013611  85.8977699 115.0631237  61.8688631  43.6032486
 114.2861557  62.4105072  43.7416983 114.9840450  61.1670160  44.2493057
  86.4011478 102.8457642  16.5803587  86.8337154 103.3071518  15.8618641
  86.1852360 101.9866180  16.2177467  12.4829900  31.8860340  72.2915363
  12.4836934  31.0030007  72.6609755  11.8572271  31.8426657  71.5685081
  22.5647426  81.2000275  71.7810535  22.2463751  80.6490993  72.4961424
  22.3391318  82.0914936  72.0468140  55.4644918  78.2489681   3.0851111
  55.8084822  78.1210327   3.9691573  55.3146744  77.3627663   2.7558267
  19.6906233  40.1129866  56.6940880  20.1920700  40.0628185  57.5078869
  20.1242518  40.7996988  56.1875105  18.2185936  29.2359042  65.4831028
  17.4394596  29.7854924  65.3986406  18.4207320  29.2490911  66.4186239
  19.8554718  57.0232534  68.2793903  20.6945992  56.8097210  67.8713465
  19.8690772  57.9759979  68.3706427  70.1788902  16.7884576  17.1405435
  69.3429899  16.4688480  17.4801755  70.1904631  17.7179897  17.3687243
  61.7015696  86.4372349   3.9225176  61.8629694  86.7593765   3.0357215
  60.9073496  85.9086895   3.8444921  32.0831561  61.2188101  90.0383663
  31.5340662  61.4509106  89.2894650  32.7489853  61.9057941  90.0692272
  92.4485016  61.5662479   5.7521546  92.2860146  62.1799850   6.4685041
  91.6006088  61.4758539   5.3172427 111.2659645  59.7945070  87.2857761
 111.4962196  60.6961679  87.5098991 110.3133678  59.8065948  87.1928501
  37.1539712  36.2039399  52.7675867  37.5959635  35.6269479  53.3904457
  37.6796770  37.0038533  52.7674627  27.5055456  45.4723072  66.6493940
  27.2043300  45.6854200  65.7661724  27.3604131  44.5297003  66.7310238
  21.9912887  15.4768860  88.8895035  22.2178912  16.2508285  88.3738518
  21.6096783  14.8698795  88.2553577  44.5109320   9.8887444  84.0314484
  44.7311687   9.2209333  83.3820248  43.5818148  10.0670969  83.8859844
  67.3645353  70.0956869   4.8613352  66.8079615  69.5559740   5.4227346
  67.9954767  70.4936981   5.4611123  44.8408699  84.2754269  17.7640319
  45.6664944  83.8332462  17.9616547  44.9444056  84.5850754  16.8642390
  48.2981825  55.7604980  93.6587048  47.6775408  56.4053106  93.9982033
  49.1114616  56.2508535  93.5388470  27.4758410  32.6733923  69.4178581
  28.3033609  32.2111440  69.5511627  27.1580243  32.8554368  70.3022099
  37.8562427  21.0714269  85.2991676  37.9909968  21.9757247  85.0157642
  37.0856571  20.7800007  84.8118210  29.0146685  38.9872432  48.0319166
  29.5287704  39.0645933  48.8356256  29.6532559  39.0979981  47.3275232
  53.8729811  75.3730583   2.5176892  53.3731937  75.1303434   3.2971317
  53.3418941  76.0465527   2.0927367  26.1925888  34.7268820  77.9788446
  26.5352559  34.4335961  77.1345711  26.7624593  34.3113923  78.6260271
  70.7905722 100.8976269  91.9711685  71.6411209 100.4624653  91.9126129
  70.1560020 100.1813126  91.9923306  20.7485914  62.0522833  50.3374147
  21.5190554  61.5516186  50.0691700  20.1929355  61.4148283  50.7858849
  35.2526784  68.8775063  80.6357479  35.7230020  68.4648418  79.9113655
  35.9408212  69.1595221  81.2383747  32.8609180  46.6300774  78.0591440
  33.5567498  47.1834373  77.7044058  33.0572009  45.7547998  77.7250814
  24.2073894  34.2376971  87.4152851  24.1436362  33.6491275  88.1674480
  23.6010003  33.8707542  86.7719555  20.7566786  24.0175200  74.3175697
  20.9773993  24.9238610  74.5321894  21.5509820  23.5232043  74.5199728
  44.1557074  57.1373653  92.2481060  43.3531094  57.1014166  92.7684593
  44.2070723  58.0453396  91.9494820  13.9211869  34.4120455  76.7026472
  13.9092267  34.3695068  77.6588249  14.8376429  34.5779753  76.4817238
  79.6067333  94.4931221   7.7654558  79.1250658  94.2616081   8.5595798
  79.0231848  94.2417812   7.0495421  46.1329126  41.6836262  32.6612353
  46.3075829  40.7458115  32.5823188  45.9651852  41.9723368  31.7641592
  54.1464043 104.9097824   3.5370633  54.6190119 105.0698280   4.3539244
  53.2296515 105.0799751   3.7534603  29.2616534  77.0322132  75.7015562
  30.2003384  77.1761036  75.8215475  28.9354491  76.8347931  76.5795326
  34.5422506  46.1863565  62.7493668  34.1201448  45.6139469  62.1087360
  34.3284607  47.0722389  62.4565554  14.5588112  67.5956631  86.3777065
  15.2799511  67.1484947  86.8206882  14.8442495  67.6663017  85.4667950
  96.4804840  39.9628115   1.3816956  96.6129208  40.5413103   2.1327195
  96.4620209  40.5509090   0.6266906  74.7748756  96.3488007   6.0009378
  74.3340445  97.0794868   6.4345288  74.0876055  95.6942940   5.8764112
  39.0040302  63.3720732  87.2824764  38.7701368  62.6414919  87.8549957
  38.1681418  63.6767912  86.9293880   8.2245076  29.5572782  61.4706135
   8.0267620  29.1459966  60.6291962   9.1132951  29.2672491  61.6759682
  17.1291316  45.0867987  52.2957993  16.6814256  44.5508337  51.6411781
  16.6944027  45.9381485  52.2463036  22.5967121  23.6858130  54.8007584
  23.1326795  22.8927994  54.7907066  21.9177580  23.5243368  54.1456413
  44.5552254  50.5737734  63.4242916  43.6090994  50.4577780  63.3369637
  44.8016167  49.9964619  64.1469526  42.0996571  32.0915246  35.2068686
  41.3089371  31.6757464  34.8631835  42.7567577  31.9579005  34.5237923
   6.7475826  11.7798066  89.4556618   7.0126206  12.6676512  89.6959114
   6.0018486  11.5901387  90.0249958  45.6616402  41.8829107  67.1101809
  45.8438492  41.4828062  67.9604435  46.5002060  42.2537184  66.8353319
  67.5135517  90.6416607   9.4199610  66.9236898  90.2755833  10.0789618
  68.1072092  89.9225330   9.2039639  86.6350842  77.4295282  22.7264118
  85.9382629  77.0842600  23.2844973  87.4323559  77.3232937  23.2453585
  42.9056168  83.8172531   5.8744889  43.3828068  84.6335220   5.7253742
  43.5504389  83.1293106   5.7096577  40.3822279  42.4283028  80.5570889
  41.2641335  42.7667809  80.4024601  40.2778530  41.7284346  79.9124813
  33.3240676  80.6524372  83.3873653  32.8900933  81.1545467  82.6976013
  34.1150403  80.3088474  82.9719830  39.2692256  49.1961193  80.0469303
  38.5962510  49.6604633  80.5446434  40.0579119  49.7271919  80.1572418
  31.5134859  59.0038538  70.4389811  31.3451242  58.0651760  70.3566980
  32.0433450  59.2203093  69.6717644   1.8848708  43.7860298  82.0833778
   2.5694847  43.1213999  82.0072269   1.9947761  44.1432095  82.9646206
  36.0417867  49.6960020  78.8734674  35.9832644  48.9608002  78.2633114
  36.2125683  49.2892456  79.7229433 101.3433552  98.4417439  11.6216147
 102.0594215  98.7066555  12.1989334 100.8642197  99.2518044  11.4470685
  31.1309981  70.6843233  92.7868366  31.2428594  70.8373928  91.8486023
  32.0162153  70.7428551  93.1462860  26.5561223  35.4155278  57.7028561
  25.9707475  34.9624348  57.0959997  26.5307307  34.8864603  58.5001516
  33.8663244  18.0381346  58.1504154  33.9394784  17.5802386  58.9877987
  34.2475820  18.9005792  58.3149290  76.3937140   1.5144946  66.3983488
  75.8766747   0.7269382  66.2290621  77.2943974   1.2564051  66.2024212
  55.3005934  94.2007160   4.5639569  55.6991148  94.6564865   3.8225481
  55.1185179  93.3206940   4.2343330  24.5236921  67.3217010  78.3606052
  24.5457673  66.6473627  77.6816273  25.3194571  67.1733522  78.8714647
  36.3314557  15.8057666  86.5167236  36.9905329  15.9583127  87.1939087
  35.5008054  16.0303640  86.9360161  46.2301493 108.8996792   8.1508338
  47.0830011 109.1470242   8.5081744  46.2163877 109.2855835   7.2749805
  51.4512157  22.9559875  63.2732248  51.2325907  22.2173762  62.7049923
  50.8661604  23.6582303  62.9889774  26.1527991  35.5840588  93.6643887
  26.7257619  36.3506866  93.6794376  25.9384060  35.4633999  92.7393436
  33.1209970  45.0081444  87.5482655  33.4707761  45.1028728  86.6623116
  33.8654089  45.1934624  88.1207466  14.2911637  45.5926991  87.4785709
  14.3081856  46.1880493  86.7292404  14.5896447  46.1261749  88.2151508
  21.9292617  43.7462091  69.1425848  22.5932622  44.2530155  69.6100092
  21.6681457  43.0647135  69.7619534  38.4419847  35.9783769  75.2133274
  37.7734399  35.7239461  74.5772886  38.1011319  36.7792249  75.6116915
  50.8365393  55.4546165  58.4731340  50.0256157  55.4990244  57.9665089
  51.5293598  55.4193211  57.8136015  24.3151116  64.3741322  58.9182425
  24.1229391  64.6393204  58.0188084  25.1458406  64.8036528  59.1222811
  20.8823204  56.1789227  87.9487801  21.5331507  56.6609573  87.4385834
  21.2839699  56.0738850  88.8112640  18.3775818  19.0813196  78.7838459
  18.4724104  18.5010374  79.5391655  19.2182386  19.0228474  78.3298540
  44.9039698  37.1658778  80.7992744  44.9636364  37.3911619  79.8708773
  43.9993668  37.3689556  81.0373592  91.1472702  40.4856443  65.9486103
  91.9091129  40.6603956  66.5011454  90.5398655  41.1987066  66.1456680
  45.3158712  31.4204907  88.9205360  44.7372532  30.6599116  88.8661861
  44.8596096  32.1040893  88.4298801  92.5302219 108.1758881  81.3919067
  93.0627632 107.6484680  81.9872856  93.1358528 108.4404373  80.6994820
   9.0253758  51.9224882  30.7703710   8.5627210  52.1032190  31.5886140
   8.6347306  52.5239658  30.1364541 107.1674633 100.0028324   1.8829031
 106.3361073 100.4018688   2.1395247 106.9238758  99.1458797   1.5328680
  32.8280973  27.2092223  85.6548786  32.6759219  26.6005683  86.3778019
  33.7761736  27.1933842  85.5239868  17.4872756  40.3464127  55.0601816
  16.8316245  40.6482553  55.6888676  18.3143854  40.3828859  55.5405903
  50.2300835  73.9666319   1.4317857  49.8440027  73.0997372   1.5569575
  50.7280397  73.8917828   0.6177401 107.3000717  58.1769991  55.5005264
 107.1471024  57.3842096  54.9864101 108.0922890  58.5585785  55.1223326
  59.2284393  52.6781034  18.2342649  58.4087801  53.0184793  18.5927868
  59.5096064  52.0162153  18.8659966   8.2495999  34.6124935  81.7324638
   8.5216969  33.6965036  81.6762447   8.2072300  34.9060559  80.8223820
  48.8324451  77.2154617  65.1820469  48.6780739  78.1534290  65.0697088
  48.2243538  76.9537592  65.8733988  47.0021296  46.6001749  53.4028149
  47.7651119  46.0952568  53.6841536  46.7047119  46.1608648  52.6060820
  25.6738424  53.7115574  75.7982635  24.9604416  53.0888653  75.9380674
  25.3075433  54.3658066  75.2032709  38.5502481   9.4764084  88.3673191
  38.8491631   9.8418790  89.1999722  39.0456605   8.6630529  88.2711411
  22.4796462  49.8319626  74.6850204  21.5302587  49.7680759  74.5810318
  22.8254580  49.7236109  73.7990713  56.2549257  25.2122974  70.9429264
  55.6035805  25.5307508  70.3179693  57.0752382  25.2023411  70.4497480
  36.7841268  21.3106298  60.5318880  36.2236285  21.9395328  60.9863710
  37.3234129  20.9269762  61.2234211  16.4299583  44.6999168  90.0703716
  17.3206913  45.0008965  89.8908234  15.8946359  45.4917574  90.0189209
  13.1252134  37.6378512  83.7196922  13.1421447  38.5846281  83.8595295
  12.5889206  37.5211239  82.9354763  16.6630661  72.7737665  83.6101151
  16.2067378  72.3122644  84.3136787  16.1290777  73.5514688  83.4480476
  20.5216765  21.8251204  60.5194473  20.7508326  22.2767019  61.3317204
  20.6217027  22.4907804  59.8389101  24.3059850  66.0553408  86.0017586
  23.4434700  65.8190203  86.3430023  24.7424030  65.2166510  85.8521843
  10.8259404  43.8110065  60.1978111  10.8328640  44.7665405  60.2538824
   9.9187088  43.5900068  59.9872828  48.4044933  11.4416921  50.1254702
  47.5253010  11.4419401  49.7469854  48.3750200  12.1200860  50.8001137
  37.0669317  36.3012314  62.1661186  37.7471876  35.6452012  62.0141077
  36.2453866  35.8338189  62.0150518  54.5074749  46.3143444  64.9282217
  54.5225191  46.7213726  65.7944393  54.6729660  47.0360184  64.3215704
  70.7274151  88.0087280   0.6600019  71.5884113  87.5921917   0.6975256
  70.1555347  87.3426628   0.2785034  21.0922885  18.5850382  64.9737692
  21.0768008  18.2298434  64.0850449  21.6696024  17.9944873  65.4577017
  10.6472552  30.0154138  82.8960705   9.8822707  29.6164465  83.3106232
  10.9458816  30.6716561  83.5256767  58.3552408  60.9016752  93.9819908
  58.7954235  60.7572937  94.8196125  59.0486765  60.8115625  93.3283424
  51.6202545  16.2874925  39.5623636  52.1961594  16.2582207  38.7983561
  51.1180639  15.4739821  39.5150590  19.6435022  62.1876335  47.4720001
  19.9774635  62.2386074  48.3676004  19.1898417  63.0197525  47.3378181
  27.2969341  39.6301842  94.9712467  27.1017146  39.2126632  94.1323185
  27.7905703  40.4165030  94.7383118  55.3061867  90.9391785  25.8340287
  54.6816444  90.3212070  25.4541683  56.1386299  90.7290173  25.4108191
  43.2481670  59.3107319  59.1535044  42.5166607  59.9213648  59.2443943
  43.1208420  58.6776018  59.8600197  25.4818034  44.4904852  93.9328289
  25.4732895  43.7398386  93.3389568  25.8653045  44.1516018  94.7417259
   0.9256618  95.5827904   7.6618052   0.3909843  95.7614517   8.4353882
   1.2262399  94.6818924   7.7812612  41.0804510  31.5921807  71.0418653
  40.5138922  31.2686729  70.3414488  41.8908215  31.8424058  70.5981159
  20.9427142  41.6337156  85.8378506  20.8049798  40.7170725  85.5990601
  21.3648915  42.0202446  85.0706482  35.7595634  22.3777199  71.9285345
  35.4991722  23.1852746  72.3715734  36.1559844  22.6716208  71.1083460
  34.0484810   3.1514865  53.5327673  33.1069589   3.2421908  53.3860064
  34.4310403   3.1757671  52.6556778  34.2304349  69.1679621  90.8791351
  34.4112134  68.3149099  91.2739182  33.9777803  69.7241974  91.6160107
  37.7650595  34.3219829  86.4647961  38.4474802  34.3397284  87.1357822
  38.0073619  35.0216508  85.8581829  47.3768139  73.4808826  59.5460796
  46.9911814  73.6194944  58.6810303  47.2302151  72.5525761  59.7277069
   1.5195464  20.0243592  44.9277735   1.9420129  20.5246186  44.2295694
   2.1229416  19.3024993  45.1040220  31.7360687  70.6543922  88.5875416
  32.0119023  70.4368067  87.6971436  32.5544763  70.7679129  89.0708160
  57.1549368  43.2199574  87.1220207  56.3203669  42.7942610  86.9257832
  57.0855761  44.0828180  86.7134953  23.7755108  29.8455977  91.5967655
  24.3898559  30.5595851  91.4263725  23.9617014  29.2013049  90.9137917
  71.1509466  92.0354748  23.6950898  70.6976223  92.7921486  23.3233619
  70.4661369  91.3755703  23.8036656  48.4697580  33.0957556  71.2006855
  49.2971516  33.1549716  71.6783237  47.9378080  32.4904037  71.7172194
  93.8290119 101.7614174  70.7731056  93.4294605 100.8963680  70.6820583
  94.6416378 101.7040062  70.2705336  11.3632250  17.7120209   2.0738192
  11.4086318  16.8389201   2.4635158  12.0280814  18.2177734   2.5411654
  28.9230609  35.4550695  85.4832363  28.8748193  34.5017719  85.4116249
  29.3679452  35.6104636  86.3164043  26.8311453  74.4428492  23.6949778
  26.6832185  73.5005999  23.6142445  27.1257138  74.7143984  22.8256559
  32.2951412   8.7490046  41.6304398  32.0157242   7.8531265  41.8190098
  33.1607270   8.8196623  42.0329332  77.3500204  92.5946236  38.6507487
  78.1376219  92.0544243  38.7146997  77.5819206  93.4097958  39.0956688
  42.6435089  42.3668051  55.8934164  42.5886059  43.2946253  56.1222506
  41.8096781  41.9983721  56.1853313  43.0613184  34.2134476  76.2671423
  42.8423309  33.7391114  75.4650974  43.2998276  33.5291839  76.8925476
   1.6152856   6.1901480   2.7942818   1.3610798   7.0332217   3.1695658
   2.5349766   6.3025159   2.5539196  48.2013988   7.7538544  85.2071190
  47.2689724   7.6514453  85.3977013  48.4893513   8.4561038  85.7903576
  35.4677820  50.3262186  85.5544281  35.4150581  49.9041986  86.4119530
  34.8537683  51.0584545  85.6096840   6.8686473  46.5592957  81.6115379
   7.1705085  46.9365358  80.7852173   7.3499084  47.0406294  82.2845459
  35.7428551  32.7760243  84.6872520  35.3107047  31.9885015  85.0178432
  36.6463590  32.7001524  84.9941063  98.9672565  97.7329922  81.7624950
  99.2882252  97.2747993  82.5391960  98.2247639  98.2481289  82.0780563
  75.6772852  88.8800526  15.9692156  75.8014917  89.7440338  15.5763519
  74.7492886  88.6872864  15.8354616  20.3603721  62.1710777  85.6817055
  20.5935407  62.7760172  84.9774933  20.6203318  61.3101864  85.3538036
  82.2414970  83.4480572   9.9792647  82.8977394  83.9703083   9.5179224
  81.4305782  83.9486217   9.8893434  40.1573610  31.2499166  58.3068657
  40.6689262  32.0554399  58.3821630  39.9780917  30.9945631  59.2117882
 103.6567020  46.2549353  59.0764332 104.1774273  45.6301355  58.5717535
 104.3037891  46.7890263  59.5371532  26.7551637  66.6865587  81.2623596
  27.2725201  67.2876072  80.7263374  26.1782813  67.2558498  81.7716217
  37.1604848  38.5686612  81.5742016  37.1580887  38.6095357  80.6178761
  37.4997950  37.6966214  81.7758083  41.6393995  77.2123146  68.5315132
  42.2085571  76.4428043  68.5434961  41.5948009  77.4914980  69.4460106
  18.9627361  21.3335347  72.8383303  18.4812582  21.5372753  72.0365191
  19.8838151  21.3699579  72.5804138  40.2541971  49.8471975  69.7971725
  40.1168442  49.3199825  70.5842018  39.8231387  50.6801271  69.9886131
  14.8597920  68.3689308  58.5264492  14.4551420  68.2341862  59.3833828
  14.6683824  69.2819738  58.3120966  72.1166468  71.9771719  10.6791282
  73.0427361  71.8811989  10.9013486  72.0755911  72.7850962  10.1674569
   3.7744468  19.2215967   3.5380352   3.4805295  19.7483850   2.7948403
   3.2261074  19.5098937   4.2677206 108.3231544  29.8328781  68.1396055
 107.9276848  28.9924908  67.9081249 108.9296246  29.6245456  68.8502598
  17.2025633  27.8574610  51.1415625  17.7280641  28.3501387  51.7719221
  16.3699436  28.3281732  51.1040783 110.8101654  46.1270523  58.8981009
 110.0968456  45.6179905  58.5130501 110.6481647  47.0244646  58.6071777
  16.4922571  33.4383249  78.6023235  15.7543695  33.8033295  79.0907192
  16.7105722  34.1125274  77.9588795  17.2473216  29.0346122  87.1389580
  18.0054772  28.5016179  86.8994808  17.5924647  29.9247622  87.2078037
  18.9811194  21.6568661  77.6968861  18.4563911  20.9281731  78.0283928
  19.8848474  21.3465881  77.7537584  22.5212049  57.7680254  86.6124916
  23.2433605  57.6469564  85.9959888  22.8803873  58.3368683  87.2933960
  89.9560165 108.6445141  19.7040308  89.0308475 108.4788322  19.8852944
  90.4178524 107.9310226  20.1443410  26.8096972  54.9954510  78.2073927
  26.1737943  54.7058058  77.5532055  26.7483258  54.3439388  78.9059639
  23.7504005  86.5928745  82.3498917  23.5684967  87.5269222  82.4533939
  23.0510092  86.1572456  82.8370285  58.6617470  75.2608585  64.3078899
  58.5158730  74.3209743  64.4154501  57.9254198  75.6709862  64.7615957
  41.6698074  50.9562826  81.4351654  41.4861917  51.5437269  80.7020664
  42.5810099  50.6921339  81.3079929  37.1838546  59.0526628  77.4327564
  37.9308271  58.4875488  77.6300144  36.4870119  58.4481335  77.1774387
   5.1089406  16.6646731   8.3238292   4.9566579  16.5754938   9.2646211
   4.4943854  16.0503173   7.9224288  74.2964029  79.3575573  91.2407207
  75.0889111  79.5485497  91.7423916  73.6043215  79.8394060  91.6935730
  35.8455110  59.8427582  80.1146412  36.5809107  59.4171000  80.5553627
  36.1825180  60.0649738  79.2467260  70.7723999  99.5249462  29.5071840
  71.0849380 100.0216866  28.7510133  69.8596430  99.7942543  29.6100307
  54.4890308  19.3655431  50.8171225  55.1351500  19.9822247  51.1613178
  53.6491585  19.8105431  50.9303522  57.9271221  53.3565092  93.5675907
  58.1450319  52.8125572  92.8107071  58.7348557  53.8322544  93.7611389
  60.5154991  91.5892220   9.8133689  59.6549177  91.6879368   9.4060838
  60.3367233  91.5879822  10.7537246   2.2199136   1.4210366   5.2939677
   2.2748643   2.3250628   4.9842113   1.2829617   1.2252124   5.2963710
  97.4304199  10.7109368  18.6718071  97.4741077  10.2003455  19.4802749
  97.3683357  10.0550818  17.9773784  25.8129883  33.1035829  52.0418549
  25.0016427  33.5228086  51.7551517  26.4933062  33.5022521  51.4992094
  73.9521933 101.8261433  26.0930276  74.8579502 101.7740345  26.3981843
  73.7474155 102.7610397  26.1091852  31.0430551  39.1396785  92.8492451
  31.0250878  38.1936598  92.7044678  31.4214897  39.4977212  92.0462418
  38.4961295  42.1986866  47.8219891  39.3851924  42.5188494  47.6693487
  38.0605793  42.9134750  48.2863235  18.6837804  51.8548489  66.4732885
  18.0084920  51.6502714  65.8264780  18.9872813  51.0007811  66.7810059
  38.3741355  64.2907906  74.5204163  37.8370452  63.5061836  74.4101477
  37.7440834  64.9895239  74.6965885  23.2061553  26.5557456  17.6673448
  23.2471418  27.4337220  17.2882557  23.5380530  25.9812307  16.9774127
  81.9320774 101.0710526   5.2630055  81.5552998 100.3878975   5.8175957
  82.2614002 101.7252827   5.8792496 102.6710510 101.9710445   5.7833683
 102.8153038 102.3687649   6.6419959 103.4427929 102.2164249   5.2730447
   7.7017933  45.2123976  14.4361818   7.3057687  44.9045658  15.2514350
   8.5518038  45.5641699  14.7007012  41.9257498  82.6728535  71.8470716
  41.1752605  82.1512127  72.1314716  42.2630644  82.2091770  71.0806131
  18.8066423  89.8123837  94.2361641  19.6754599  89.5874882  94.5690441
  18.4071076  88.9696312  94.0208530  39.0326214  58.1671715  90.2001762
  39.6506715  58.3194923  90.9150505  38.2268500  58.5988331  90.4841328
  46.0685444  61.8606472  72.5127888  45.6795597  61.3486576  73.2218647
  45.3373957  62.0491028  71.9244528   5.1738638   9.2840219   7.5778776
   5.5261785   8.7398988   8.2821757   5.7696897  10.0317645   7.5319952
  28.8128638  61.5829992  79.6283102  28.9563465  61.6499710  80.5723190
  29.6818018  61.4109278  79.2655849  13.1576467  13.0980086   9.0646482
  13.4857988  12.6592195   8.2797831  13.3825529  12.5055301   9.7820169
  22.9048038  31.1518097  87.9526806  23.2324934  30.2919221  87.6891518
  22.7182078  31.6001153  87.1277905  49.7055578  64.1327143  80.2213669
  49.5412302  64.9543190  79.7585535  50.5879736  63.8781881  79.9515772
  16.7594516  46.2425804  92.9017830  17.0663905  45.4293919  93.3027172
  16.1771500  46.6276121  93.5566998  62.9963827  60.0059557  91.6261768
  63.6967421  59.3536711  91.6420174  63.4429121  60.8403540  91.7698097
  38.7730789  61.4876652  89.5987034  37.8772020  61.5824938  89.9221897
  39.2739844  62.1422958  90.0853062  37.9237604  65.3486824  91.1213207
  37.7822709  65.6426048  92.0212173  38.6263967  64.7021055  91.1882210
  86.7661190 106.5080547  32.4089909  86.0509872 107.1056366  32.6274419
  86.6206360 106.2865353  31.4892101   3.9390248  27.7328563  13.8731253
   4.1508207  26.8106413  13.7285721   4.0532872  28.1421375  13.0154157
  19.1056108  30.1896572  58.3810949  19.0547836  29.3249798  57.9736900
  18.2332122  30.3332615  58.7478828  37.1363616  58.0260229  81.5355587
  37.8038383  58.0547476  82.2210407  36.7838168  57.1373034  81.5816307
  36.8179131  66.5929556  73.4646034  37.0087051  67.4646568  73.1182432
  36.3651013  66.7576885  74.2916775  44.6782541   2.3274025  58.3422899
  45.5198193   2.0577569  57.9744720  44.4634247   1.6428483  58.9759016
  51.1087179  20.6396008  68.5612631  50.8944845  20.5606174  67.6316929
  51.6823483  19.8942280  68.7390280  81.4756107 105.5317307  11.4212704
  80.5420685 105.4509258  11.2258244  81.7978477 106.1744881  10.7894039
 103.5369873 106.4254093  20.2973461 104.0120888 106.0299397  21.0281730
 103.7011433 105.8384228  19.5592892  38.0422044  20.4642820  76.9604445
  37.5639820  20.7752943  77.7290869  38.0516434  19.5116627  77.0535040
 112.5674725   9.5785266  13.3069885 111.9847679  10.3210473  13.4662116
 113.3475971   9.7703928  13.8273895  32.7799225  82.6642132  87.1472359
  32.9571152  81.9143486  86.5793133  32.6645970  82.2833633  88.0178070
  54.3249321  65.7185078  91.0563087  54.4485474  64.7946501  90.8385086
  54.5930433  66.1886644  90.2668095  19.1701496  58.1150627  82.1391201
  18.3973777  57.5504160  82.1240234  18.8818252  58.9033842  82.5991726
  40.3338528  36.0057211  56.2748766  39.7364116  36.4869118  56.8473721
  40.8894110  35.5066633  56.8736458  44.5241547  31.4681005  94.6399021
  43.7337780  31.0459471  94.9765301  44.7729778  30.9402657  93.8811493
  44.9755096  99.1519737  16.1320901  45.3258038  99.4437313  16.9737589
  45.0386238  98.1974030  16.1643291  37.8715825  47.7476358  58.5988283
  37.2625351  47.1920919  59.0853071  37.4407339  47.8954411  57.7569532
  45.1762486  75.5978346  74.1597176  45.1009274  75.0977850  74.9724340
  44.9381971  74.9754047  73.4725904  39.1100264  47.4471998  74.7335577
  38.2597637  47.8788710  74.8169136  39.4737887  47.4616575  75.6188250
  36.8005872  69.6517134  76.4118290  35.9532666  70.0002670  76.6889381
  36.6371155  68.7218237  76.2542915  85.0295067  90.4439354  83.5591316
  85.2772713  90.6266689  82.6527882  84.8703003  89.5002651  83.5783005
   6.3485026   8.3073133  25.5334973   6.1311352   9.1077876  25.0557685
   7.2953695   8.3564395  25.6648827  45.7667732  40.8365631  72.4474430
  46.5814161  41.3385153  72.4222946  45.8896160  40.1477337  71.7942572
  13.4289837  52.0092058  90.5612278  13.8741982  52.0602322  89.7154140
  13.9751196  52.5288439  91.1511040  61.6435242  89.1654778  91.5653896
  61.5132999  88.5801888  90.8192635  62.5145960  88.9437866  91.8945217
  28.6647201  20.7024646  68.8059139  27.9377389  21.2541866  68.5172367
  29.0962696  20.4315782  67.9955959  24.5818377  16.3725924   5.9574980
  24.5856380  15.6495583   6.5847456  24.6923399  17.1567369   6.4952153
  11.9740236  12.6824152   1.4065552  12.4653506  13.0213225   2.1548684
  12.6029778  12.6873100   0.6850114 112.8498173   3.2277295  31.1357617
 113.5349655   2.9132187  31.7255783 112.6899815   2.4943990  30.5417013
 103.8826752 107.4110222   2.3941566 104.2981529 107.9703522   1.7378300
 103.3655739 108.0131340   2.9292354  29.9129486  43.8199186  75.9923029
  29.2355514  44.4655561  76.1936045  29.4300961  43.0582762  75.6713867
  54.7869968  81.8165112  86.4244843  54.7608089  81.5563583  85.5036831
  55.3893948  81.1942768  86.8321323  58.4876728  64.3610811  93.4319878
  57.9616261  64.8181391  92.7757835  57.8579950  64.0989876  94.1035938
  68.5707760 100.8171749  37.2182178  67.7295923 101.1684322  37.5102115
  68.7525511 101.2798119  36.4001989  30.3641653  37.2740769  69.7980309
  30.0315499  36.3992929  69.5971537  29.7393298  37.6284623  70.4306602
  40.7097435  44.0859318  68.9779472  40.7121897  43.1299305  68.9300442
  39.9012399  44.3457985  68.5363293  66.2039614 108.5808754   2.1536705
  67.0025730 109.0598583   1.9322623  66.1577702 107.8791046   1.5043452
  46.2948898  74.0644618  94.6335711  47.0847491  74.2248186  95.1499433
  46.5919599  74.0994629  93.7243099  20.2291179  95.5395317  75.6840515
  20.9817123  95.6783485  76.2589931  20.2927399  94.6205616  75.4239035
  36.4829540   5.6006169  91.1058712  35.7493544   5.7999772  91.6875172
  37.0853496   5.0897479  91.6465759  23.8623428  31.7914081  79.2738819
  22.9148173  31.9251895  79.2508936  24.0717006  31.7205811  80.2052212
  16.8389082   7.8623337   3.1964943  16.7139602   6.9318557   3.0098668
  16.8250430   8.2830149   2.3368043  33.5503864  40.6639338  54.5987177
  32.9288673  40.0821543  54.1611338  34.0299392  41.0831165  53.8841963
  55.3371763  90.8308315  89.2407894  55.6026268  89.9791336  89.5877457
  56.1611366  91.2841511  89.0624046  31.2668347  59.3717766  62.9277849
  31.8156910  58.9306307  62.2794151  30.4139495  58.9442062  62.8503132
  15.4322064  23.5062099  23.6213422  15.7100284  23.7552977  22.7398658
  15.0347090  24.2995310  23.9803243 111.6619873  92.2639847  45.8857346
 111.2093544  91.6714096  46.4859009 110.9603882  92.6766109  45.3820133
  98.8735962   8.6075109  20.3046703  98.6257553   8.5035622  21.2233663
  98.9960003   7.7129251  19.9869215  99.1513062  20.4550815  69.8927832
  99.8302841  19.7871089  69.7977018  99.5881462  21.1783075  70.3426123
  29.4787025  46.2035942  83.3910465  28.7868214  46.2472153  84.0510654
  29.0270162  45.9466410  82.5871849  44.6195316  83.4004021  73.4499073
  43.7888956  83.3568096  72.9762220  44.4011831  83.1297207  74.3416977
  42.2670364  48.1755257  71.5852880  41.3147783  48.2365751  71.5097332
  42.5729465  49.0778399  71.4931822  24.9970579  51.4115858  91.8661022
  24.7770739  51.7986965  91.0187626  24.1692019  51.4003992  92.3464870
   7.0579785  13.0435872   6.0645944   7.1335304  12.4812782   6.8355238
   7.2990316  13.9149070   6.3791221  21.3479662  92.7256203  75.9176016
  20.6467414  92.2600269  76.3733816  21.4180017  92.2840309  75.0712395
  34.3734503  31.6531706  57.8901243  35.1502275  31.1003637  57.9752970
  34.5995045  32.4575019  58.3572245  34.7792912  93.9155197  20.5251884
  34.3320847  94.6399212  20.9627724  35.7093215  94.0777683  20.6831551
 114.4451427   4.5787266   8.3078611 114.3690205   4.1310948   7.4652082
 115.0949001   4.0691179   8.7919503  82.7414036  99.5914078  20.1428318
  82.2122860 100.3715992  20.3088498  82.6236057  99.0513706  20.9243155
  21.2583113  24.3340564  23.5417438  21.0341406  23.9422417  22.6976728
  22.1849728  24.5603418  23.4622097  33.1183982  77.6712275  73.0143547
  32.3697209  77.1999311  72.6488447  33.1978798  78.4540939  72.4693441
  21.1307287  14.0244412   1.7739743  20.5434442  13.8478529   1.0390288
  20.6230998  14.5903754   2.3555775  41.5604353  89.1490746  78.7181473
  41.2650585  89.9948406  79.0552855  42.2912312  88.9065647  79.2867899
  56.0444021  77.9911852  90.5623913  56.8689060  77.5436783  90.3722095
  55.8784914  78.5273409  89.7869968  66.1398935  88.7842941  36.7410874
  65.4558802  88.1312084  36.8888688  65.6656694  89.6100998  36.6442251
  48.8091040  91.6622925  87.9035759  48.6072540  91.8740559  88.8149738
  49.5414400  91.0482311  87.9568958  43.9360952  48.3010721  88.2256699
  43.8829184  48.0811548  89.1557407  44.8731852  48.2924223  88.0307007
  42.4492693  67.9313326  58.9415932  42.0818281  68.5798788  58.3410883
  41.6856241  67.5202608  59.3466854   6.7238921  35.1708221   9.9919319
   6.9173902  34.5476270  10.6922317   7.5475734  35.2546453   9.5115626
  34.4687605  53.4435606  81.2906361  34.4437385  52.9237604  80.4872513
  34.7281408  52.8215456  81.9703770 110.4311562  87.9760170   8.0897981
 109.9044132  88.7483597   7.8842509 110.1840401  87.3336124   7.4246019
   2.7760825  33.8340926  72.6801538   3.4515041  33.1559825  72.6944637
   3.2637507  34.6574354  72.6574135  99.8754692 108.9678097  25.1594687
  99.5137310 108.2656384  25.7001424  99.4868660 108.8294220  24.2957187
  15.9764385   1.9898361   0.8846153  16.8366015   2.1928826   1.2522061
  15.6784558   2.8152239   0.5022886  70.2177334  89.2470169  19.4553363
  69.4268274  89.7580814  19.2835522  69.9761868  88.6674690  20.1778436
  31.4768004  39.1481400  83.3281612  30.5299664  39.1115880  83.1925201
  31.6654611  40.0785303  83.4507084  74.1436100  27.4544072  10.5884743
  73.4544468  26.9103026  10.9695768  74.9128151  27.2817540  11.1313832
  57.0395279 104.5577049   5.2381420  57.8156281 104.9094391   5.6742400
  56.8309832 103.7610626   5.7260954  61.3201141  71.9098377  72.0967531
  60.4917479  72.1196699  71.6654634  61.9289351  72.5793028  71.7846870
  40.6881666  65.1353168  88.3524990  40.2355480  65.9497881  88.5716057
  40.0423288  64.6268940  87.8619576  20.3636622   9.2814541   2.9211164
  20.8706212  10.0243950   2.5936082  19.4555628   9.5833755   2.9003558
  23.1563067  33.7760282  76.5997458  23.7590981  33.1824923  76.1518764
  23.5678649  33.9400053  77.4482536  72.5061369  74.4075871  91.1731148
  71.6166973  74.4910145  90.8293533  72.7195215  75.2815580  91.5000343
  39.9171209  85.5712700  74.4624424  39.2923379  86.2723064  74.6479845
  40.6489086  85.7392979  75.0561476  17.5514364  17.5066316  23.5671782
  18.0877781  17.2319591  24.3109035  17.3650646  16.6957891  23.0938601
 114.3676853   8.1302100   5.8667433 114.1368008   7.3500055   5.3625566
 114.7734833   7.7889687   6.6636860  16.2244916  54.5029211  68.3874369
  15.6357515  54.3067312  67.6586533  16.1666274  53.7347269  68.9555597
  50.6833601  41.8918896  56.3374949  51.4896679  41.5244627  55.9754229
  50.9731579  42.6462269  56.8505478  62.6750088  99.2574787   2.6097241
  63.3587933  98.7135029   3.0005702  62.6760674  99.0149593   1.6837572
  49.5378923  58.3256960  88.8844681  49.2747450  57.4744511  89.2342663
  50.4749060  58.2343197  88.7115765  93.7143993  99.3096828  16.6723931
  94.3165874  99.8320007  17.2022784  94.2337704  99.0406513  15.9146905
  85.7184696  97.4157238   6.6069233  86.0375690  98.1121445   7.1808547
  85.0153160  97.8245735   6.1022997 109.0068626  10.6510341  13.6062694
 108.8378620  10.2997673  12.7320373 109.2314243   9.8841512  14.1332364
  23.9992070  27.7282476  54.3332386  23.4033561  27.8538966  53.5947227
  24.8735189  27.7798653  53.9470434  36.9192815  79.5136976  65.4781437
  36.9967294  80.4559040  65.3282261  37.0934772  79.1200256  64.6232128
   9.9483371  20.2663040   1.5080602  10.7549071  20.7531905   1.6772255
   9.9940234  19.5145094   2.0987804  19.8937893   3.6589333  19.4618857
  19.3713474   3.2102370  20.1266837  19.4000411   4.4553536  19.2665410
  26.8565035  57.2053242  80.7678318  26.3984203  56.5520763  80.2390003
  27.7820921  56.9771862  80.6814098  12.7358866  30.1107883  34.8800778
  12.6164734  30.5794120  35.7061315  13.4175360  29.4653726  35.0672245
  25.7244968  39.5797491  55.5532217  25.1217914  38.9025879  55.2459192
  25.2121973  40.0894165  56.1809301  45.4155684  57.6024914  77.9444551
  44.9215126  58.3873081  78.1815338  46.0739756  57.9126596  77.3227406
  13.7747800  38.3797026  89.1895580  14.5208287  38.4724689  88.5970688
  13.9831293  38.9515066  89.9283791  41.0562658  46.1333942  90.4164219
  41.0835028  45.1783276  90.3586102  41.5437460  46.3390541  91.2141132
 108.3887005  13.6726439  18.7253094 109.2531013  14.0250397  18.9371455
 108.0274296  14.2903769  18.0896056  39.5686197  52.7080202  66.5316439
  39.0050936  52.0571327  66.1132956  39.0892982  52.9700279  67.3176670
  21.9342470  65.5803204  83.1568432  21.8169975  66.2325382  82.4661255
  22.8833532  65.4966640  83.2486534  21.8866706   2.9523683   9.8475814
  22.1075344   2.6733899   8.9589751  20.9494114   3.1435627   9.8125988
 104.0287876   1.7576897  17.9283810 104.0500736   1.4189890  18.8234019
 103.1599903   2.1499148  17.8413153  18.4156871  14.0850127  14.6539748
  19.1694891  13.5715997  14.3634224  18.5400307  14.1796887  15.5983293
  43.2126188  88.6761475  63.8543510  42.7587032  89.4295311  63.4767342
  44.0534258  88.6495209  63.3976603  83.5811424  64.6044064   3.6080378
  84.3783665  64.0816784   3.6941844  83.4946442  64.7559643   2.6668793
  44.0338230  35.1008844  66.1379528  43.2689810  35.4589629  66.5885401
  44.2871094  35.7835221  65.5165958 111.3489723  15.3368366   7.8769410
 110.4519176  15.5441463   8.1387681 111.2655544  14.5496285   7.3388183
  41.0462189  57.1624994  66.9779539  41.2925482  56.9801235  67.8847551
  40.1149178  56.9456530  66.9345045  43.4490395  57.6303244  80.3418446
  43.0867290  58.1494617  79.6238804  43.6449194  56.7803192  79.9476957
  24.4723201  83.9744854  79.7699356  24.0268421  83.1920815  80.0949478
  23.7724566  84.5118904  79.3989706 102.6903439  22.3371387   4.9914789
 102.8486824  23.1704330   5.4350764 103.0896759  22.4456143   4.1283467
  39.5928073  39.1825342  48.4128237  39.6934342  39.5427012  49.2939520
  39.1295862  39.8646879  47.9266977  86.9832134 104.0207958  12.6687455
  87.6748753 104.6261311  12.9359555  87.2660637 103.1704235  13.0050576
  24.0232301  31.1330891  73.1072235  23.8387704  30.1938319  73.1082535
  23.7323618  31.4333534  72.2461367  19.1850591  19.3499482  35.1377726
  19.6169531  18.9250588  35.8788323  19.5950127  20.2132726  35.0844717
   2.6600522  83.4693527  48.7795925   2.9127827  83.2728672  47.8775120
   2.3223232  82.6407623  49.1196060  56.3820839  82.3154163  68.1179523
  56.2150383  82.4206352  67.1813345  55.5293131  82.4532032  68.5302973
   8.2856303  12.9254842  31.8083763   7.7512276  13.7012506  31.9781756
   8.2413125  12.4215639  32.6209855  50.1722002  80.5380440  88.7802029
  49.9993944  79.6643305  88.4295082  50.0883245  81.1201668  88.0249977
  24.0833855  30.8844113   9.0150142  23.9218807  30.2747798   9.7350818
  24.7864032  30.4767942   8.5092032  14.0819037   6.6490859   1.2648757
  13.5049129   7.1565980   0.6941355  13.6097121   6.5948886   2.0957361
  28.2209706  32.6615548  85.9909439  27.8734231  33.0067873  86.8132877
  28.7377977  31.8989110  86.2507439  44.0645933  14.5494580  13.4775186
  43.1613350  14.6737862  13.1861424  43.9980841  13.9347386  14.2082214
  32.5952435  12.5935698  12.4629664  31.9892550  12.3233211  13.1528783
  32.7033925  13.5354841  12.5946176  49.7572803  88.7749767  73.5575771
  49.2553854  89.3766117  73.0076933  50.4875898  89.3009853  73.8834476
  50.0727606  67.6858521  84.4187641  49.5858955  67.0168543  83.9374828
  50.4762268  68.2245636  83.7381458  15.7467902  16.8035579   9.4119722
  14.8661029  16.4300990   9.4459122  16.3272548  16.0654867   9.5978320
  61.8863630  72.7269125  62.5885057  61.3005161  72.1143961  63.0332994
  61.4020300  72.9981947  61.8087244  58.8934755 103.9846039  23.1173539
  58.1003952 103.8384533  23.6330080  58.6239386 103.8247776  22.2129011
  29.7510576  33.5126829  43.1803989  29.0713835  34.0124726  42.7282000
  30.3778958  33.2851267  42.4937248  19.3935931  53.9244843  88.7946606
  19.9342012  54.6727371  88.5415077  19.3659651  53.3734226  88.0124855
  62.4274826   5.4187292   6.2715417  62.3294640   5.1468503   7.1840686
  63.1157875   6.0835880   6.2923294  33.9800024   1.5359388  14.6770871
  33.0478382   1.7134878  14.5514655  34.1313076   1.6979131  15.6082702
  31.1675501  26.2243629   2.4883167  30.9259033  27.1347809   2.6585513
  31.2863135  26.1814857   1.5394813  50.1493454  92.2931194  79.5629025
  49.8277187  91.6313934  80.1751995  50.1640940  93.1035328  80.0720596
  14.9677181  29.8778057  12.9117000  14.0529025  29.6882057  12.7033830
  15.2418447  29.1505075  13.4703803  99.3406677  26.0182238  11.7854929
  99.6804047  26.9128489  11.8068266  98.6578751  26.0372400  11.1149216
  67.9615641 103.5177040  87.6926517  68.6131716 104.0391731  87.2239113
  67.2870588 104.1481018  87.9454041  22.8366375  24.2551780  12.6405549
  23.4926009  24.7630095  12.1630108  22.0203710  24.7387362  12.5136244
  20.0363898  40.5216074  23.9166188  19.6678972  39.9004006  24.5447469
  19.3146420  40.7133293  23.3178234  50.7133961  83.4323883  82.0462894
  50.6086969  84.0340996  81.3092613  49.8941994  83.5081577  82.5355816
  38.4217024  46.5177584  10.2164042  39.2033815  46.2364340  10.6918681
  38.6519241  47.3776388   9.8645037  48.7891960  65.2487803  94.5587349
  48.2964182  65.1342726  95.3713131  48.1728697  65.0042915  93.8683701
  70.6542873  84.7870255  89.6678829  70.1752949  85.5141640  89.2703056
  71.5762138  84.9997711  89.5229244  88.9788818   8.1069851  91.0750771
  89.8688602   8.2106256  91.4118862  89.0093136   8.4869903  90.1970673
  72.3175526  92.0902729  77.1879911  72.5112200  91.2512016  77.6059341
  71.7663765  92.5512791  77.8203726  60.2336216  60.0237274  91.9056129
  59.6149778  59.5476818  91.3516331  61.0948324  59.7200727  91.6186523
  21.4193606  17.2546005  20.7220507  20.8049798  16.5359449  20.5727100
  21.8217421  17.4072886  19.8670602  36.3168097  55.3058720  58.4934425
  35.3697157  55.4340696  58.5464859  36.5578485  55.6535435  57.6348066
  52.7641630  90.1715469  74.2618847  52.9364443  90.2358055  75.2012587
  53.4971046  89.6606541  73.9183569  40.5221319  52.8597403  76.5225458
  40.5987453  53.7133026  76.9489193  40.8292961  53.0101538  75.6285381
  53.0041838  66.8544292  85.1077461  52.9394722  65.9956598  84.6899509
  52.1344709  67.0071888  85.4771996  69.8506975  87.1998310  48.9198303
  70.1489401  87.3749447  48.0272961  70.5449104  87.5508976  49.4775486
  44.5220709  68.1783056  80.4206181  45.0389194  68.9379501  80.1522160
  44.4938374  67.6209450  79.6429443  95.3818226  98.7685490  11.5799487
  96.2866306  98.4576988  11.6104031  95.3564835  99.3585205  10.8266091
  50.2043152  75.5326843  84.8022461  51.1129189  75.4138184  85.0789070
  49.6934795  75.4236269  85.6043530  40.8373356  74.9010038  71.6913843
  41.6503668  75.4038095  71.7403793  40.1726103  75.4841852  72.0578098
  53.8367939  65.4180527  93.6725140  54.0166664  65.4851484  92.7347660
  53.4356499  66.2568235  93.9000702  51.7895842  72.8784037  90.5316830
  51.1746311  72.2381735  90.1736832  52.0771599  73.3849907  89.7721481
 109.4361877  41.8379688  23.5739803 110.2415657  41.8744564  24.0899897
 109.1094685  42.7376795  23.5759974   0.6878886  36.5271425  26.3113785
   0.3536580  36.1489701  25.4980493   0.0316524  36.2980127  26.9694710
  87.2420311  77.8526115  93.0390644  87.6909542  77.1283197  92.6030636
  87.3175812  78.5845137  92.4268150  24.2605805  42.5857639  30.8564854
  23.4812832  42.9670906  31.2608647  24.1876793  41.6478968  31.0334468
  66.4235115   4.5015556  36.7159057  66.1333370   4.1156054  37.5423884
  65.6607437   4.4381630  36.1411023  30.1681137  74.4097471  64.3142939
  30.8913970  73.9055300  63.9416552  30.1200914  75.1967001  63.7714958
  23.3065724  32.3295259  70.8203745  23.1556964  31.6767478  70.1367474
  23.5108137  33.1335878  70.3428841  38.9789939  40.5299187   3.3966750
  39.3563509  39.6608686   3.5330138  39.7013211  41.1342239   3.5678339
   9.1364425  24.9917555   3.3270761   8.7796932  24.3055606   2.7630752
   9.1356784  25.7766151   2.7791452  48.3805227  13.2291520   3.8075343
  48.5324717  13.5385954   4.7005004  47.4311352  13.2776523   3.6955366
  38.2957840  64.8915911  82.9692650  37.6397824  64.4472218  82.4322033
  38.1211877  65.8235741  82.8382683  52.9298639  74.8925638  79.2063046
  53.8705873  75.0145817  79.3343067  52.7800941  73.9668655  79.3983603
  42.5763464  88.2049847  87.1033478  42.1286821  88.9868546  87.4266338
  43.2802057  88.0539131  87.7342224  17.8156483  81.8640614  79.1265631
  18.2020068  81.6393852  79.9730158  18.5369432  82.2487640  78.6285973
  18.9425051  84.1230297  46.7093992  18.1661034  83.8879299  47.2174931
  19.6166718  84.2934227  47.3671961  29.7172356  11.8444824   4.9615461
  29.9305058  11.9226706   5.8914036  30.0218058  10.9701407   4.7186565
  49.2198467  74.5399570  70.8254290  48.4876156  74.9578190  70.3721523
  49.1223335  73.6080790  70.6296682  30.9885788  51.9484806  76.9277382
  31.2617707  51.3360357  77.6107502  30.0888801  52.1793604  77.1589661
  47.8365564  71.9359350  82.6618767  48.3973408  72.3923731  82.0346451
  47.0003176  72.3995447  82.6171017  28.1227589   9.2977214   4.5689669
  28.0194974   9.7199351   5.4217881  27.9911590  10.0028181   3.9351282
  92.6323223   7.0024109   4.3499994  91.7465496   7.0348322   4.7113574
  92.6174927   7.6252526   3.6233085  88.8029003   8.2153136   7.9426324
  89.2298126   7.5259137   7.4340022  88.5548973   7.7890283   8.7630016
 112.4695396  33.0020952   8.4302711 111.5608501  33.1349492   8.7002373
 112.4194717  32.3453212   7.7357399  50.2864170  80.6280327  72.5722980
  49.8188782  79.9825430  72.0422220  51.2064028  80.3726006  72.5044060
  18.5898173  69.0029001  62.3471689  19.3564498  69.2249918  62.8755474
  18.9163589  68.9836121  61.4475965  70.9522486  70.1708841  66.6682911
  71.5184355  70.9372663  66.5770626  70.5188847  70.2924585  67.5130653
  49.3945599  80.5463409  75.4916191  49.8599005  80.6364727  74.6600151
  50.0576639  80.7268238  76.1579180  16.2466955  50.6709623  54.2906237
  15.6876183  51.1879492  54.8706102  15.6347048  50.2029848  53.7225580
  67.0598221  67.1012783  88.5984421  67.4024153  66.3700342  89.1123962
  67.4409151  67.8793573  89.0053749  40.4359627  92.9448700  46.4758492
  39.6659446  92.3996067  46.3146162  40.6845188  92.7473068  47.3788500
  23.0307651  32.3824430   5.5437201  23.3595943  32.3503494   4.6453479
  23.5597467  33.0577564   5.9684134  39.5618701  64.6883440  67.4184656
  38.6853266  64.7274494  67.0358801  39.6884656  63.7641764  67.6332092
  25.7179666   7.9073012  22.4783254  25.6638145   8.5779464  21.7974925
  24.8349428   7.5406969  22.5241756  98.2873154  96.3398266   3.2251722
  98.9027119  95.8655930   2.6660389  97.7725410  95.6539249   3.6503682
  16.6455853  44.7782373   3.8536277  17.5664914  44.8873425   4.0908179
  16.1659682  45.2596283   4.5277649  17.0268023  58.9278221  19.6128893
  17.3392034  58.0289316  19.5097721  17.7901685  59.4120741  19.9275362
  30.5044746  52.8179073  16.3177276  29.9821520  52.6068258  17.0915854
  31.3451910  52.3868275  16.4713371  49.4984388  56.1619997  83.0206108
  49.3489742  56.7296267  82.2644997  50.4486513  56.1620665  83.1360435
  43.7605333  95.4269409  67.6502037  43.1279325  95.1246548  68.3018732
  43.7240171  94.7677040  66.9571590  28.7334490  70.2029276  59.0423822
  28.5766292  70.6516600  59.8732090  29.4968343  69.6500540  59.2091370
 110.1823044 106.0633850  15.9127784 111.0172081 105.9928036  15.4499686
 109.6551037 106.6477489  15.3679693  46.1435270 108.7555408  89.2331028
  46.0451698 108.0661964  88.5763168  45.3286123 108.7267590  89.7344112
  37.1878076  75.7372952  72.7217817  36.2649679  75.5584145  72.9023504
  37.6243997  74.8950243  72.8490543  43.9091825  52.1419048  90.1762009
  44.7639990  51.8072367  90.4473400  43.8852739  53.0379486  90.5120182
  27.3079443  20.4589844   8.6191797  26.6941595  20.5068898   9.3521225
  28.1360412  20.1908016   9.0173835  52.3576593  63.0397940  90.7911110
  53.2286119  62.6470280  90.7326508  52.1735573  63.3473444  89.9035549
  44.3199253  82.2299385  84.8919582  43.3956766  82.4598598  84.9875259
  44.3710232  81.3185215  85.1799583  36.0403895  91.6958714  73.4385395
  35.8269691  90.7636547  73.4792376  36.9643712  91.7409992  73.6844110
  17.0902491  82.4146748   9.3338114  17.6685762  81.9819641   9.9619299
  16.4470363  81.7454624   9.1000181  14.3703556  38.8713026  15.7029033
  15.0030088  39.0762973  15.0144565  13.5519481  38.7062955  15.2347016
  32.4537206   7.4292427  28.4611917  31.6813159   7.2282374  28.9896035
  33.1443429   6.8762100  28.8264656  32.8692627  64.0079021  89.7772503
  33.0813670  64.9368858  89.8679733  32.2361970  63.9756966  89.0600204
  40.9018707  96.0934639  71.0938311  40.2303457  96.4998341  71.6416931
  41.5606499  95.7814980  71.7142439  72.7514029  73.9019108  84.2563820
  72.8381395  72.9638338  84.0868950  73.3256578  74.0641832  85.0047970
  51.1414957  90.9070206  90.6823635  51.3568544  91.2916851  89.8327255
  50.5440998  90.1883316  90.4753971  47.3911476  62.5307417  85.1161480
  47.1079016  63.1583881  85.7810211  47.0084000  62.8559351  84.3012905
   8.1596076  37.2866940  23.0346918   8.7171239  36.5126228  22.9558182
   7.5068361  37.1832705  22.3422885  34.8973417  18.9386427   8.9465564
  35.2296209  19.6496117   9.4945955  35.4658151  18.1953120   9.1478807
   4.5936918  90.7728004  31.3059640   5.0717634  90.9557533  30.4971337
   5.2716768  90.7290173  31.9802427  65.0371552  81.0865307  88.8423920
  65.4762316  81.9344139  88.7750340  65.7444620  80.4629326  89.0069389
  60.1115370  91.2766838  75.9914494  59.4326019  91.8968105  75.7255030
  60.6804371  91.7797279  76.5741444  65.2566814  79.4088221  64.2667294
  64.7201872  78.6302519  64.1176081  66.1531210  79.0765476  64.3138170
 112.9423809  22.6445222   0.6427577 112.2076988  22.0344710   0.7084446
 113.6750698  22.1817183   1.0492177 109.9701309  10.3560209  69.9697208
 109.0700531  10.1206219  69.7446108 110.3006363   9.6008849  70.4563093
  22.4376583   4.2022604   2.1062188  21.9644642   5.0141692   2.2882172
  23.0053735   4.4166943   1.3659832  52.9485512  72.6838064  80.3917980
  53.2849693  71.8985701  79.9599981  53.6036062  72.8896856  81.0586929
  81.4655972  98.7806606   7.0309246  82.0762253  98.5536957   7.7322519
  80.7780170  98.1171799   7.0879734  22.2012424  84.4132233  93.6731625
  22.9311538  84.8638725  93.2484531  21.6517043  84.1124916  92.9494190
 105.8733177  75.8786726  70.9325886 105.9223652  75.1663160  70.2951193
 105.6113434  76.6424608  70.4185534  57.5868368  86.5738869  77.9789400
  56.7086792  86.4540577  77.6174021  57.4675751  87.1960258  78.6965418
  45.5953407  70.0871706  73.8864326  44.9706936  69.3622160  73.9084911
  46.1424494  69.9087238  73.1215429  13.1014597  11.7449951   6.6748381
  12.7687085  12.0424402   5.8280593  12.6412392  10.9215438   6.8371814
  65.2764988  65.1852274  59.0859985  64.6582413  64.5018911  58.8270664
  65.4896784  64.9826860  59.9969101  58.9788055  72.1997261  82.8419018
  58.6079741  71.3883877  83.1889534  58.7346315  72.1980047  81.9163704
  10.1222205  60.6197023  66.1004114   9.3328345  60.1942062  66.4351606
   9.8483562  61.0157585  65.2731466  21.9977927  54.1603899  79.0505028
  22.3075104  53.6128426  78.3290434  21.9386673  55.0392532  78.6758852
  20.1973891  69.7767925  90.0075817  20.7304955  70.5717039  89.9954510
  20.2341366  69.4776058  90.9160805  60.3578758  79.4644403  76.7402935
  60.4771757  79.1188192  75.8556795  61.2474012  79.5774412  77.0752716
  16.7253816   3.1204718  38.0033064  17.3284078   3.5802671  38.5874104
  16.9541895   2.1962853  38.1020856  78.9256477 101.9770336  11.0058331
  79.6522570 102.5660610  11.2091100  79.3383551 101.1229420  10.8776474
   3.3826965  32.0167089  15.3142655   4.1868648  32.2511721  14.8510468
   2.6809022  32.2329211  14.7002876  31.7779088  24.7316360  20.7762694
  31.7541623  24.8355818  19.8250258  30.9445930  24.3131566  20.9923530
  52.7434731  70.5253744  92.9128742  51.8855858  70.7974625  93.2388115
  53.0688190  71.2857819  92.4310398  55.6005096  63.5180902  89.8191929
  55.5652428  63.6588240  88.8730526  55.8230829  62.5921154  89.9154758
  12.7157009  19.5879614  11.6734123  12.9919100  20.4931784  11.8166625
  13.4389651  19.0603900  12.0122170  27.8008676  11.8773341   3.0459747
  28.0802393  12.5989866   2.4825908  28.3749938  11.9336963   3.8098046
  66.1547661   7.1833378  93.8714314  66.4214659   7.2695029  94.7866821
  66.9664431   6.9891673  93.4027004  36.7597032  69.9699306  68.5500956
  36.5749955  69.0762329  68.8389254  37.6964211  69.9692059  68.3531380
  47.5987720  66.5741253  77.7069569  47.2556591  65.6975174  77.8803301
  47.6912689  66.6111660  76.7549562  58.4766388  76.5451097  90.2797031
  59.2475843  77.0395899  90.5578518  58.6108255  75.6689739  90.6410980
  42.4078465  93.7136650  56.4466572  41.7812634  93.2079315  55.9291124
  43.1606436  93.1311226  56.5474939   3.3125833 106.6573906   7.1094143
   3.4392300 105.9619331   6.4640200   2.6636702 106.3041210   7.7179736
 106.0955238  22.1470594  24.4861579 105.1578808  22.2110629  24.3046045
 106.4444923  21.6260529  23.7629700  19.9992943  11.8340707   9.1171139
  19.9814248  11.6890216  10.0630915  19.1170287  12.1386337   8.9047945
  18.1335056  29.0012503  20.0043964  18.4582615  28.1348920  20.2497315
  18.6180687  29.2222905  19.2090511  51.8448782  54.4092321  85.2072716
  52.1858120  55.0266123  84.5600986  51.3892221  53.7460423  84.6888256
  29.5615149  59.2129374  67.5219536  30.1333809  58.4661913  67.3442650
  29.4731522  59.2255020  68.4749842  18.5864997  29.3077374   3.6361068
  19.3240714  29.8100257   3.9824122  18.9834154  28.6958885   3.0161610
  34.5074606  91.7988968  77.0280600  34.0390182  92.2947979  77.6995277
  34.0577960  90.9544754  76.9965553  82.9426765  95.5687904  79.8608494
  82.1200752  95.2226543  80.2069092  83.3648014  95.9813213  80.6144142
  30.1324844   6.6398388   9.9780601  29.7404361   6.4256698   9.1315007
  30.9488750   7.0882022   9.7573674  13.3936119  28.3245897   5.6962413
  13.6613417  27.9525876   6.5365791  12.4617803  28.5148406   5.8045220
  60.2106237  71.9413090  89.4777203  60.2406168  71.6992664  88.5521126
  60.2743340  71.1084890  89.9452496   1.1614410  96.6843796  12.2289824
   1.4817756  97.0203304  13.0660939   0.3955780  97.2236252  12.0317686
  49.1719198  66.8667555  80.0383568  49.2405748  67.8053522  80.2131557
  48.6586952  66.8101406  79.2323637  59.9375391 108.4527111  53.5871315
  59.6017361 107.7279472  53.0597019  59.8639488 109.2180443  53.0169821
  48.6961460  80.9793282  85.7545376  49.4476175  81.5699577  85.7027626
  48.2017851  81.2867451  86.5143585  44.5858049  79.6340752  58.0960798
  43.7718391  80.1347637  58.0412102  44.4409752  78.8783455  57.5267553
   8.0730814   3.1055745   0.0375905   8.0603588   3.8865727  -0.5156832
   7.5064737   3.3264518   0.7767797  46.3398790  57.8041172  82.6727009
  46.0815859  58.3330154  81.9178677  47.2928286  57.8868914  82.7083397
  27.3195148  57.3138571  94.3280220  26.6077828  57.6878881  94.8474216
  27.7948117  58.0733061  93.9910316  65.5182791  73.4388113  48.8048935
  64.9769211  72.6506710  48.7600899  66.1052036  73.3693552  48.0519485
  38.9413834  91.4614105  58.1951094  38.9759278  92.4138641  58.2838297
  38.2722616  91.3070869  57.5282574  70.1205778  80.9422874  78.0389071
  70.5646610  80.7255077  78.8586807  69.6716547  81.7678928  78.2207584
  91.3669586   1.2231892  22.9548287  91.4319420   1.5906346  23.8363004
  92.1648026   0.7044125  22.8521729   8.3591503   7.7861506  13.9403796
   8.4017354   6.8371618  13.8227463   9.2467725   8.0357009  14.1974485
  11.2564301   0.3245323  22.4354839  10.6238556   0.6910810  21.8176460
  11.9719207   0.0061317  21.8850970 112.0949936   2.1577731  48.1501198
 112.0443058   3.0897227  48.3625603 111.7588425   2.0973229  47.2559261
   9.6151215  32.3255777  25.7889676   9.6609479  31.9837737  26.6818857
  10.4662132  32.1117401  25.4066753 101.4860535  11.3239086  88.9541531
 102.3300076  11.4313579  88.5154819 101.1256599  12.2094679  89.0003300
  44.1938210  19.0675545  20.6567144  43.8298368  18.2666886  20.2794075
  43.4342766  19.5357370  21.0033083  38.9272881  17.3968518   3.8598678
  39.4278765  17.9139721   4.4909209  38.7847710  17.9908144   3.1228948
  45.8690357  59.5474339  92.1633053  46.2285900  58.7720633  91.7323112
  46.0388279  60.2626371  91.5502071  30.5995750  39.7795057  66.2325335
  30.0577021  38.9910102  66.2621975  30.6476998  40.0022173  65.3028488
  42.9040051  71.6477633  76.1743927  42.0879555  71.3153315  76.5482759
  42.9076290  72.5787401  76.3968754  52.6303577  62.9786015  58.4935427
  53.1476402  62.2601318  58.8574839  53.1997776  63.3730268  57.8329182
  32.8899908  58.0733490  89.5560074  32.3671794  57.3913717  89.1343403
  32.4963427  58.8941908  89.2602062   1.8688025   4.6234044  82.1416759
   2.4613979   3.8779855  82.0446491   2.4478702   5.3827071  82.2077942
  35.7615924  72.7847624  79.4378376  36.3696289  73.4157896  79.0527058
  35.1654553  73.3172512  79.9644327 114.6927452  22.6309705   8.1054884
 114.3322754  23.4955430   8.3024806 114.8147297  22.2214937   8.9620399
   2.9524979   1.1713786  20.8055115   3.7322879   1.4407682  20.3201365
   3.2383019   0.4143660  21.3168621  73.5275412  76.1600113  56.2472820
  74.1172838  76.6585827  56.8128490  74.1047907  75.5779314  55.7531166
  48.3023691  26.0476375  24.2616439  48.8532448  25.6847978  23.5680223
  47.9119778  26.8302965  23.8727069  27.6084828  97.6482773  89.8201656
  26.7014217  97.4510479  90.0537777  28.0396509  97.8194427  90.6574440
  34.9530005  33.2307363   3.9771304  34.4533110  33.7108612   3.3168107
  34.3194032  33.0480671   4.6709740  51.4902353  45.7752943   3.6633891
  50.9696007  45.9045792   4.4561404  52.0976925  45.0704956   3.8880795
  43.1599474 103.4635162  60.7220507  43.3792830 103.8982391  59.8979521
  43.7742615 102.7315617  60.7776308  63.9583302  19.7692692  80.3889465
  64.5329666  20.3205848  79.8578405  64.3461418  18.8959014  80.3336143
  90.1321030   6.9821483  74.9046755  91.0817242   6.9246554  75.0102615
  90.0022697   7.0962864  73.9632130   5.1517707  21.3218546  55.0068760
   5.0833666  20.6155729  55.6493092   5.8716947  21.0562634  54.4346857
  89.7577190  94.9100590  68.2851648  90.6148911  94.7495270  68.6797810
  89.1332912  94.7341442  68.9889956  14.4532931   9.9413294  17.8594661
  14.6798992  10.7986403  17.4990499  13.8537252   9.5622110  17.2168005
  41.5974283  48.1137514  35.2577639  41.1684895  48.8120174  34.7631240
  41.8659496  48.5304308  36.0766077  77.2932386  88.2986069  80.0765038
  76.6320801  88.2567310  80.7674026  78.1046915  88.5177898  80.5344772
  90.7023239  93.2589245  56.7368841  90.8041954  93.5880375  55.8438349
  90.4247665  92.3494911  56.6267872   7.5390524  33.7512970  74.9829817
   7.8799951  34.1860890  74.2013502   7.6309061  32.8169203  74.7966003
  76.5236807  69.3853235  56.2797213  76.2826109  68.5928822  55.7999754
  75.8009386  69.5239353  56.8918133  87.2790623 103.1441116  49.0432739
  88.1607819 102.8049946  48.8889742  87.4189186 103.9913940  49.4660997
  65.6452799  20.0729012   7.8387380  66.1819458  20.4749227   8.5218197
  66.0089064  19.1935635   7.7349526  51.9923782  70.5628538  68.3279419
  52.8901291  70.3262520  68.5609674  51.4474106  70.0608492  68.9339399
   2.8013363 104.3663311  87.1224213   3.5123575 105.0024128  87.2003937
   2.8866550 103.8151836  87.9003620  37.3525524  74.6366453  77.6325655
  38.1705976  74.9107790  77.2179747  36.7105198  75.2875566  77.3491240
  46.0936213  86.6122532  62.8567886  45.9354877  86.0480309  62.0999002
  45.4438210  86.3345623  63.5024500   7.0072794  30.2984309   3.4995621
   7.1364224  30.3940415   2.5559455   7.1497512  29.3669343   3.6676374
 113.4512711   4.3184498  92.9985714 114.1521072   3.8084936  93.4047794
 113.7609100   4.4842923  92.1081543  86.8122482  64.1830778  68.4126282
  87.3639393  64.7090626  67.8336573  86.2789345  63.6538076  67.8196001
  55.0892019  20.0491881  11.6237199  55.1832199  20.9346509  11.9749296
  55.7179260  19.5262146  12.1211469  33.0324030   9.7234672  53.0070114
  32.3258257  10.0034463  52.4251223  32.5840306   9.3491888  53.7653685
  58.7845850  55.5149555  33.2811475  59.4127989  55.5686712  34.0013528
  57.9692221  55.2320671  33.6951327  95.4691696  45.6477356  12.3325443
  95.1696396  44.9900675  12.9602265  95.8789158  46.3242626  12.8716707
  33.6700392  35.6170344  16.3944519  33.5898447  36.5224957  16.0945475
  34.4878030  35.6009555  16.8916798  15.9341872 105.5202293  68.2271481
  15.9526777 105.2349949  69.1406775  16.7885566 105.2648926  67.8791714
 107.3367977   7.7831870  88.9173985 107.4832058   8.2451028  89.7428894
 106.9267273   6.9573700  89.1744995  45.3351259  71.7089176  90.7952213
  44.5009899  71.5766478  90.3447151  45.4723167  70.8996820  91.2877083
  20.0417089  20.3775454   3.6662978  19.7143984  21.2087178   3.3224177
  20.7527232  20.1361084   3.0726680  62.8219986  94.9955750  83.9266872
  62.7201986  94.4433117  83.1515312  62.7290249  95.8896351  83.5976791
  50.1504612  70.0062180  77.5410748  49.2768145  69.7306204  77.2635412
  50.2452469  70.8915091  77.1896458 110.8793354  46.6344023  13.2926655
 110.2516174  47.0989799  13.8461769 111.7331696  46.9716501  13.5637081
  59.6563864  65.4176950  26.9774747  60.3122950  65.9438848  27.4347925
  59.6042919  65.8059740  26.1041164  44.2205954  35.0916386  12.6294112
  44.0017033  34.6944094  13.4723377  43.7738657  35.9381270  12.6403260
 102.5474644 104.0817738  86.4847374 102.2300148 103.7605286  87.3286915
 101.8109703 104.5753574  86.1239338  34.1368771  74.5073795  80.7306957
  33.3734894  74.9577284  80.3692245  33.7943792  74.0181541  81.4787483
  76.3594532  75.8066177  93.0865383  77.1260977  75.2336216  93.0994129
  75.9663534  75.6614542  92.2259426  12.6565754  38.9905262   4.5292979
  13.4160078  39.5696855   4.4655123  12.0041668  39.5027685   5.0070035
  50.4170752  83.6374092  75.5294085  49.7126055  83.9969826  74.9902868
  51.1137819  83.4307289  74.9064207  44.4601727  72.1272039  67.7917242
  44.3690681  71.8790293  68.7116957  45.2059269  72.7271175  67.7782059
  52.9442453  27.7179384  21.4254522  52.5093794  27.6083302  22.2710919
  53.8471079  27.4417138  21.5828347  58.9387417  75.2906179  77.7590990
  57.9994583  75.1814651  77.9076433  59.1735792  74.5716810  77.1723986
 104.3743324  61.7230082  21.0719895 104.3242168  60.8336449  20.7216263
 105.3122520  61.8953753  21.1546493  29.4420815  20.1441526  15.7701194
  28.5357022  19.8572254  15.6588507  29.4656825  21.0189867  15.3823864
  45.1623249  56.5499878  87.8611946  45.1493311  56.6826057  86.9133186
  44.3347263  56.9216776  88.1664085 104.7983456  87.0841694  88.1399155
 105.5050755  87.2177505  88.7715244 104.8166275  87.8679276  87.5907230
  75.9488058  81.5653992  82.2414970  75.5787516  81.1437321  83.0170536
  75.9115458  80.8921719  81.5620804  26.1861777  52.7745724  17.7857256
  26.8513012  53.0373335  18.4219635  25.9850335  51.8662167  18.0108082
  33.1180906  25.0986576  37.3987317  32.6881218  25.4462004  38.1801224
  33.2824087  24.1785049  37.6050091  12.6386642  18.6242592  17.6913881
  13.4778631  18.1639457  17.7008390  12.4641979  18.7852025  16.7640853
  36.3264465  62.2526598  81.8043232  37.0648336  62.7371740  81.4351845
  36.0679746  61.6452694  81.1111355  41.5822649  50.1096535  19.0962791
  40.6612921  50.2996254  18.9175463  42.0623970  50.7994509  18.6381495
  26.0223198   0.6343606  15.0462341  26.3827395   0.1236229  15.7711315
  26.2909865   0.1579244  14.2607045  24.4013810  78.5517406  70.9424973
  23.7560344  78.0324078  70.4628563  24.2241716  79.4552183  70.6806755
  45.4156399  89.9651432  78.6326551  45.0266314  89.4407463  79.3325996
  46.1701059  89.4533443  78.3409882  59.1205931  94.3732738  64.4328880
  58.2744312  94.4336224  64.8762798  59.5883942  95.1641941  64.7009182
  23.4772873  67.0752668  93.4726334  22.9551029  67.6202345  94.0613365
  22.8341103  66.6550636  92.9016876  79.9889374 102.0429611  58.4088421
  79.6000671 102.6178265  57.7496433  79.5115900 101.2181664  58.3189440
   1.0134977  12.7991629  52.4046850   1.1597654  13.5506666  51.8301582
   0.2013078  13.0057514  52.8671789  55.1903534  80.6457329  94.7448540
  55.0551176  79.9024963  94.1570187  55.0097847  81.4146805  94.2041683
  78.0057859  81.3936043  79.5340681  78.4552288  81.7512703  78.7683582
  78.2342768  81.9906712  80.2464867  33.5083318  48.5598803  14.8065889
  34.3289900  49.0238714  14.6408641  33.7750959  47.7478600  15.2375114
  92.1962070 107.6898861   8.9495867  92.3410416 107.0346069   8.2670492
  92.2747517 107.2027683   9.7698170  71.6577148  89.8245144  70.2594137
  72.5983572  89.7390938  70.1040840  71.2895203  90.0205708  69.3978930
  89.5159721   3.7818518  79.5720863  89.4872379   3.3203980  80.4102135
  88.8090992   3.3905071  79.0588522  58.6543036  71.7063332  73.6391211
  59.5184278  71.2971067  73.6844635  58.5584211  71.9624710  72.7218246
  51.2396002  90.3092384  58.1253672  51.7450094  91.0127068  58.5327196
  51.2937546  89.5840263  58.7477541  96.7511654   1.5645102  75.2010489
  96.4454651   1.7608945  74.3154907  95.9534550   1.5379596  75.7294273
   4.4202229  19.6192789  10.3082728   4.5879269  18.8016820  10.7769322
   5.2399093  20.1084781  10.3792036  32.0447969  97.8837299  86.4250278
  31.8064284  97.6995182  87.3335838  32.9822230  97.6953697  86.3804436
  32.5605083  51.1522293  16.9340205  32.5043941  51.3717747  17.8640103
  32.7593136  50.2159977  16.9205165  66.9211626  84.0135574  83.3001995
  67.4020863  84.5351696  82.6576519  67.2479200  83.1221962  83.1779671
  42.9786539  74.6174049  67.9967880  43.2732105  73.7304974  68.2038212
  42.2938681  74.4949913  67.3392868   5.2946502  80.4158306  59.6564102
   6.1615515  80.8182907  59.6040916   4.7426999  80.9623718  59.0970516
  90.0819874  88.0846310  66.6262960  89.8892975  88.0219269  65.6907892
  89.2575169  87.8577328  67.0563936  79.6892595  67.9170132  66.8802357
  80.0393200  68.7871647  66.6891193  80.4254150  67.4421024  67.2659492
   2.1164584 107.9642773  85.7939911   1.3427871 108.2337952  85.2989960
   2.8475937 108.3897686  85.3460693  18.3937573  85.2820873  80.6164455
  17.7112687  84.6889877  80.3023148  18.1486595  85.4709148  81.5222645
  82.8682709 106.8359470  60.4694033  82.3221970 107.6016521  60.2913046
  82.7686977 106.2849426  59.6930504   0.5584566  20.6805634  20.9637785
   0.2726323  20.0427771  20.3097391   0.8868453  20.1491356  21.6890192
  28.9246511  40.8915424  31.5554714  28.4767222  40.4884624  32.2991920
  28.8356018  40.2533197  30.8476758  72.2535467  70.5957794  93.3477879
  72.8109169  71.0235691  92.6977348  71.4719009  71.1464596  93.3926582
  68.5183859  95.1921272  84.3932438  69.1276741  95.3682613  83.6763287
  67.9560757  95.9660816  84.4252968  70.3928709  91.0680580  87.6681614
  69.6399736  91.3940907  88.1612015  70.4487991  91.6454506  86.9067669
  36.2813687  59.1334057  71.7343044  36.4264822  58.4535074  71.0763407
  37.1507788  59.3069029  72.0952129  72.2252989  96.6616821  91.7794609
  72.5965643  95.7798290  91.8065357  72.1097994  96.9012642  92.6989746
 110.5700302  35.4270315  35.1435852 110.4329109  35.8648086  35.9836936
 111.3596249  34.9017286  35.2732944  54.8455620  70.1411772  86.9536304
  55.4085970  70.8936453  86.7719364  54.2631721  70.0892735  86.1957645
  49.0651035  30.2508950  18.4140205  48.9748716  31.0742617  18.8937688
  49.4698811  30.5007887  17.5833952  81.2777424 107.7542210  81.7351246
  81.2642097 108.5726452  81.2389183  80.3548050 107.5512123  81.8874741
  23.3227205   7.0409155  22.0455027  23.0965805   6.7010486  21.1797190
  22.4968076   7.3760623  22.3944664 113.3930302  72.6352262   8.1495589
 113.6401749  72.5650692   7.2274792 112.7938175  73.3810091   8.1808448
   9.5066333  48.4985685   4.9331760   8.7040746  49.0149832   5.0069678
   9.3830395  47.9757452   4.1409540  40.9768009  68.0753708  91.2606621
  40.5563641  67.4612856  91.8626213  41.5784550  67.5348949  90.7486725
  74.3130302 105.8994579  51.7048454  73.3883810 106.1463737  51.7215443
  74.5984125 106.0999203  50.8134413  47.5222063 101.0788155  84.3245602
  47.6614618 100.1562309  84.1108608  47.0988417 101.0645962  85.1829243
  12.7596450  27.7410531  17.4502051  13.5838413  27.3959613  17.7934885
  12.5918508  28.5249543  17.9732490  47.4707556  83.5984612  66.1084223
  47.2333097  82.8330326  65.5850077  46.7096329  84.1757107  66.0475540
  65.8122826  85.3669930  92.1660709  65.5570364  85.5605507  93.0680752
  65.7422876  84.4148922  92.0964146  19.4664490  87.2606087  71.6789246
  19.2037785  88.1784439  71.6094971  20.4086590  87.2929955  71.8445301
  86.2073231  17.2238243  27.5212383  86.5787888  17.9011631  28.0864453
  86.7004108  16.4329255  27.7393556  53.9312983  83.6393261  63.1981611
  54.4401979  84.2889977  63.6830997  53.1647253  84.1200161  62.8858519
  63.0587244  75.5079889  92.0957756  62.8811502  74.5690823  92.0396423
  63.5801029  75.6059313  92.8925228 113.4328270   7.6517874  88.4258747
 113.6655712   8.4119213  87.8927040 112.6195526   7.3277199  88.0388355
  58.1196880  80.0105286  67.5360298  59.0115499  80.1894379  67.8340292
  57.6074886  80.7544518  67.8529835  75.7450819  87.6969910  88.2887650
  75.4708624  87.0831966  88.9701557  76.5927982  87.3643780  87.9938507
  18.9832056  80.3616714  57.3197031  18.5269916  80.0072384  58.0829096
  18.9615726  79.6525812  56.6770840  56.9266224  75.9744120  82.0515156
  57.7847195  75.7469845  81.6934967  56.7687559  76.8677187  81.7460346
  76.2141466  98.1054497  86.6260433  75.2973175  98.3018875  86.8185711
  76.5874434  97.8529549  87.4705124   1.4007971  18.4715474  12.6041377
   0.7850461  18.8392484  11.9701982   1.8569471  17.7815032  12.1224749
  91.4248657  68.0661821  68.8529444  92.2583866  67.6104784  68.9704466
  91.3390064  68.1678104  67.9050350  74.6143866 102.7600384  90.6942368
  73.6840773 102.6738644  90.4860783  74.7059822 103.6572838  91.0148335
  67.2605133  80.6116867  83.0861378  66.3788033  80.5354881  82.7214336
  67.1284151  80.6114292  84.0341854  42.1421146 102.4535656  89.9324989
  41.3788462 103.0239868  89.8415470  41.8500566 101.7540455  90.5169678
  82.6093674  81.0807323  46.0481739  82.9196644  81.1787319  45.1479816
  82.7753830  81.9321823  46.4527750  73.2923555   3.4402186  88.4336948
  73.1685305   2.5708142  88.0528641  73.9218283   3.8684180  87.8534889
   6.2136406  65.5738544  19.4519722   6.9073260  66.1768007  19.7193468
   5.9295934  65.8992147  18.5977542  67.8008604  90.4045391  70.0549746
  68.7316132  90.5432415  69.8797798  67.7836990  89.7573471  70.7600117
  27.7633047  80.2680683  86.9039249  28.3384109  81.0325336  86.9367504
  26.8792796  80.6308174  86.9599628  79.6599913  97.5446987  80.1670456
  79.9596786  98.3053970  80.6647968  78.9187431  97.2065735  80.6694889
  53.1864500  71.0699224  61.8505287  52.6920938  70.2543354  61.9321060
  54.1033459  70.7951069  61.8489838  58.5810184  88.6748695  71.6739321
  58.5939074  89.0690517  72.5461054  58.5745382  87.7317524  71.8374062
  34.6962953  15.2708030  25.6045461  33.9546394  15.2680147  26.2096667
  35.3031015  15.9132445  25.9723592 115.9943008  30.5360413  18.8372862
 116.2342358  29.8758268  18.1870735 115.1225567  30.2745008  19.1337526
  69.2086649  79.5463848  36.7836690  68.4708929  80.0205803  37.1671557
  69.1365480  79.7110319  35.8434987  14.1664267  84.3040848  48.4027052
  14.3599713  83.4149361  48.1057501  13.6666584  84.6928883  47.6848650
 114.6502686  13.3439898  89.9174023 113.7426567  13.2679045  90.2118206
 115.0829506  13.8518298  90.6037807  24.8099065  12.4403155   2.4677204
  25.0621462  12.3210406   3.3833516  25.6356001  12.4026978   1.9849710
 113.6880875   1.9920655  68.1130838 113.5305882   2.2798313  67.2138548
 113.0264759   1.3179433  68.2681942  66.9951582   4.0660101  90.6769180
  66.8775940   3.1468636  90.4369545  67.8082848   4.0796354  91.1817646
  51.7929697  97.2285843  89.2254353  52.1900272  96.3611794  89.3040848
  51.7103672  97.3695660  88.2822895  62.4125671 108.8498497  71.9771957
  62.5834990 109.3646336  72.7658749  62.8923225 109.3052197  71.2853050
  98.5417175 108.5866165   9.6780086  99.3383789 109.1169739   9.6607858
  98.5996342 108.0418587   8.8930798  64.9166965  98.5218525  90.9503651
  65.4334259  97.9636574  91.5314293  64.1402912  98.0007648  90.7456779
 105.5582333  43.3961725  17.5734758 105.2739906  42.4997711  17.3948634
 106.3866520  43.2958031  18.0423963  46.1705208  69.0512228  92.0994663
  46.5532398  68.1990147  92.3080158  45.5191374  69.1956806  92.7858067
  56.0977411  98.0848408  74.7376823  56.0526323  98.7736225  75.4008389
  56.7779684  98.3795357  74.1321468  23.6006141  18.5272372   0.1504016
  23.2009125  18.0004489   0.8424751  23.5157132  19.4299471   0.4572201
  32.6947474  88.4917736  92.6607418  32.1110177  89.1505146  92.2845078
  33.5743737  88.8400078  92.5150681  24.2863011  20.4994965   6.7845762
  23.6966515  20.6509113   7.5232351  25.0416756  20.0542235   7.1684718
  41.6150713 106.8227863  91.1450100  41.3701868 106.0154247  91.5971470
  41.5198708 106.6150665  90.2154827  35.2743912  72.7114058  89.2425442
  35.1636624  73.6621761  89.2392731  35.7052517  72.5233173  90.0763321
  34.2791748  66.3851643  91.4624882  34.7835159  65.6533718  91.8179512
  34.4755673  66.3787508  90.5256748  62.3890781  74.8256731  74.1913986
  62.2326088  75.0288820  75.1136017  63.1521988  74.2479086  74.1995859
  49.7765255  63.3578682  57.7464819  49.5640755  62.6341105  57.1571875
  50.3589344  62.9712725  58.4003735  54.3273735  32.4190235   0.4184375
  54.4450855  31.4813948   0.2660338  53.6092854  32.6679683  -0.1634639
  91.4463520  86.0619068  71.1389160  92.3077774  85.7689953  70.8416176
  91.6110039  86.4623642  71.9925880  36.5147567  75.1497316  66.4459133
  35.8477163  74.6342659  66.8993282  36.8833780  74.5483255  65.7988691
  55.9867001  87.3575974  71.1539841  56.5983152  87.9322720  70.6936502
  56.4514208  86.5241432  71.2289762 112.4451733   4.9382076  66.9609594
 111.9921303   4.1786081  66.5949059 113.3355331   4.8756227  66.6151810
   8.6117136  96.8065262  83.2830238   9.0974623  96.4722538  84.0370464
   8.3129364  96.0217667  82.8235531  28.3821940  88.8066006  87.1760178
  29.0628839  88.7640858  86.5043831  27.9211426  87.9709339  87.1029949
  70.8530426  79.8498583  43.1697893  71.0505772  79.6517467  44.0851927
  70.0369787  80.3489971  43.2034683 104.7182178  45.0047827   0.8899490
 105.1775265  45.8283329   0.7255340 105.0704384  44.6966648   1.7249566
   1.7368560  46.1660957   3.9608592   2.1463440  46.9810772   4.2512998
   0.9908406  46.4482355   3.4316218  31.7206860  35.4923248   4.8228639
  32.1398067  35.7207060   3.9931583  32.3491526  35.7645249   5.4915702
  44.5969296  17.6588809   5.5359793  44.3582296  18.5172927   5.1861465
  44.8891973  17.8373504   6.4298260  35.2297664  98.7569904  80.1972580
  35.4499054  99.6338367  80.5117798  35.9331203  98.1995583  80.5301094
  58.7064123  94.6915150  82.6162338  59.0179586  94.8297787  83.5106945
  59.1722393  93.9101315  82.3184586  50.5008173  91.6625404  74.6760273
  50.9662771  92.1930027  75.3227043  51.1227894  90.9750843  74.4377422
  77.6004505  88.9812088  83.8982105  77.0082617  88.2495308  83.7244225
  77.1858358  89.4595814  84.6161842  85.1128769  82.8465748  63.9895821
  85.0782681  82.2128105  63.2730818  84.2061520  82.9216099  64.2869902
  19.7484529  42.9737186  21.1919379  19.7001004  43.6503077  20.5165672
  19.5098841  42.1651983  20.7384968  76.3709259  90.1157951  86.0652447
  75.8816957  89.6662903  86.7543221  75.9712553  90.9841251  86.0152149
  96.9178009   2.9403085  87.4922276  97.5156689   2.8586233  88.2352734
  96.6844177   2.0384178  87.2723198  62.5012398  75.5183458  89.2488098
  62.6645899  74.6574450  88.8635826  62.6120043  75.3844547  90.1901054
  22.8957272  14.3263578   4.7263476  23.0693674  15.0386989   5.3416950
  22.9000378  14.7464406   3.8662636  18.6133814  74.5554399  65.9476423
  18.4985650  73.8703108  65.2891254  17.9021263  75.1729679  65.7773209
  64.8251534  19.3995404   4.6055144  65.3504276  18.7188983   4.1847453
  65.4158449  20.1495790   4.6745032 106.6721535 100.4132462  92.3371601
 106.2890148 101.2819290  92.2154045 106.5721130  99.9859715  91.4864826
  69.1048288 105.5802536  66.3126898  68.1477976 105.5878067  66.2963867
  69.3490839 104.8771858  65.7107925  26.7749214  14.8532403  32.5274801
  27.3700976  14.4534242  33.1616282  26.3357902  14.1118467  32.1106672
   5.8955276  22.0088220   9.3552500   6.2416703  22.9002309   9.3127531
   5.0468618  22.1018124   9.7880894  95.3995895 104.5196915  56.9597054
  96.2827969 104.7679901  56.6867065  95.1515865 103.8174248  56.3584185
  27.5450611  83.1079102  76.0442019  28.3909440  82.7628994  76.3300037
  27.7544022  83.6640167  75.2937698   4.1850781  28.3671045   3.6443606
   4.7135893  27.7008581   3.2050151   4.0506920  29.0428162   2.9798412
  79.9368572  89.4372654  66.2650919  79.3539000  88.7667847  66.6212416
  79.7910023  90.2019024  66.8221331  45.2706861  71.2683296  79.7604132
  46.1849403  71.5518093  79.7622442  45.0890493  71.0512877  78.8460112
  28.5114622   0.6672486  61.9910097  28.4258914   1.6186616  62.0520210
  28.6234975   0.3782803  62.8966475  63.1585932  15.0199866  85.7118607
  62.4349451  14.6905398  86.2448025  62.7679586  15.1860702  84.8539257
  28.2570171  98.1664848  60.6322336  27.8853250  97.3894882  61.0497856
  29.1013360  98.2906246  61.0657597  44.7519588  82.9356766  62.8344870
  44.4667387  83.7189484  63.3049870  44.0919781  82.2754955  63.0461740
  23.7002110  94.8093319  65.3063154  23.9962649  94.0837955  64.7566032
  22.8410769  94.5330334  65.6253433  53.2295609  82.6922131  59.2494440
  53.4857559  83.4721470  59.7416782  52.7506161  82.1565056  59.8817873
  48.6785221  46.9460154  18.1864715  48.1754589  47.3234320  18.9080799
  48.2302523  46.1243773  17.9859912  99.6742725   8.4756899  70.4182053
  99.8653793   8.4577262  69.4804525 100.4431915   8.0783600  70.8269978
  86.8573093  91.6592216  81.3524532  87.6730156  91.6720963  81.8531322
  86.4290905  92.4869537  81.5709305  32.7186322  21.0117865  10.5333304
  33.4715033  20.7158399  11.0450268  32.9985189  21.8456554  10.1557648
  78.1304407 100.9812069  26.0916758  78.6588717 100.5592060  26.7691040
  77.5781870 100.2795124  25.7469106  95.3242397   0.3073376  79.2941475
  94.9170685   0.5535861  78.4636021  95.3283882  -0.6498034  79.2843676
  50.0717592  77.9775620  87.3217583  49.4414186  77.4119520  86.8756676
  50.2899075  77.5058270  88.1255722  38.7520385  40.7774639  28.5725713
  38.1457591  41.0416603  27.8805757  39.3551993  41.5158701  28.6573410
   9.0911764  34.1774249  49.0514278   9.8597604  34.6659517  48.7567234
   8.3843887  34.8229170  49.0560961  20.6736255   9.7506356   7.4630374
  19.7378612   9.6840453   7.2729206  20.7315350  10.4125607   8.1520462
  92.8118515  59.0490246  76.1394262  91.9693375  59.0990973  75.6878710
  92.6125908  59.2859411  77.0451832  79.2753172  73.7924433  68.9596891
  79.6282482  74.3906212  69.6183681  79.6032810  74.1324043  68.1271648
  28.9424038  69.1349459  69.5865250  28.8932538  69.7155619  70.3459358
  29.4367766  69.6331882  68.9356947  51.2234306  64.9692249  60.6813002
  51.5347290  64.4941568  61.4517736  51.8339252  64.7241640  59.9859762
  73.4502363  71.5364122  66.8187666  73.4971571  72.0741177  67.6092768
  73.6901712  72.1323347  66.1091661 104.8171997  63.3961535  66.5813208
 105.0420856  62.6742029  65.9944248 105.6262207  63.5765362  67.0600605
 104.4203472  64.4951200  70.1012611 104.6828270  65.1551771  69.4596481
 105.1974487  64.3677235  70.6454229  84.4086647  89.6891880  94.2908859
  84.3752289  89.1105747  95.0526714  84.6432877  89.1135406  93.5630035
  70.7172680  85.7549572  54.9186516  70.5876446  85.2253628  55.7053900
  70.7057047  85.1229191  54.1998816  30.5587125  85.3337955  63.0040741
  30.4175925  86.2596703  63.2017183  29.6905255  84.9377823  63.0793238
  90.0624466  15.7594979  67.6405191  89.4806576  15.1461446  68.0894566
  90.9264660  15.5878353  68.0150175  19.9093735  14.9880850  21.2174606
  20.0849819  14.1146374  20.8674836  18.9765215  14.9771667  21.4317060
  90.9377384  95.7690144  71.1503744  91.6145706  95.5261135  70.5186129
  91.2837124  95.4803848  71.9949007  41.0866213  97.3522186  85.2532291
  40.6446314  97.6071835  84.4433784  41.3294315  98.1815529  85.6649017
  49.6890306 100.3899574  87.6262379  49.0031958  99.7476006  87.8085709
  49.2670107 101.2374592  87.7672100 109.0622711  89.4895267  74.6763277
 108.6553764  90.3166962  74.9341249 109.9978161  89.6259689  74.8258734
  23.5178995  89.1349125   4.6075949  24.4506240  88.9219093   4.6374032
  23.2528281  89.1790676   5.5262995  20.0170779   5.0001425  46.9711351
  20.4065847   4.1355774  46.8405819  19.7956610   5.2987581  46.0890722
 102.4003506  77.6349783  52.4531841 102.4351311  78.0342007  53.3224583
 101.8945789  76.8320274  52.5784445  55.8906698  96.5334511  89.0815163
  56.7209911  96.7437077  89.5088196  55.6470776  97.3374271  88.6227131
  43.8875771  69.1836119   2.1451291  44.4345236  69.8821354   2.5045010
  44.1874313  69.0855551   1.2414137 104.5713043  13.5118496  85.4074287
 103.9764404  13.0786514  84.7952938 105.3944206  13.0307031  85.3225613
  90.8037663  11.8754482  69.7442627  90.8924007  12.2182930  70.6335545
  91.4354229  12.3779786  69.2297697 100.9780025  19.6682858  74.7890949
 101.1049938  20.0201249  75.6701851 100.5207729  18.8385892  74.9261141
  44.9359751   4.6516293  85.9298420  45.0565195   5.5912012  85.7923508
  45.0458956   4.5315579  86.8731022  89.1020870  91.9555950  83.0376625
  89.0283489  92.6418972  83.7008286  89.6279049  92.3502636  82.3419762
  96.5712929  84.7969246  74.3647909  96.6167641  83.8505363  74.5008707
  97.4814892  85.0895500  74.4110489  82.2575760 104.0634537  92.9889202
  82.7755642 103.8179684  92.2223282  81.3958836 104.2838573  92.6351547
  13.8931489  20.7170296  57.0515013  14.3719053  21.3119054  57.6286888
  13.0684459  20.5519509  57.5084972  57.4751234  61.2228012   1.9469310
  57.1946907  62.0493126   2.3399624  56.7051411  60.9099770   1.4720646
  86.0401249 103.0553150  85.0156021  85.9568310 102.2202873  85.4760647
  86.2711430 102.8124142  84.1190147 102.7220440  18.7077153  79.5502710
 103.6694622  18.6239803  79.6580982 102.3534489  18.0967200  80.1882744
  65.4891682  67.5553083  94.7937489  66.1912155  66.9746685  94.5001221
  64.6862555  67.1354580  94.4850636  69.1171122   5.1765633  36.7079949
  69.3229771   6.0729021  36.9733810  68.1654692   5.1697767  36.6052461
  71.6440916 107.0536327  92.3302841  71.3814783 107.6285553  91.6114521
  71.0807371 106.2850189  92.2402954  77.8649521  96.9401264  62.9673624
  76.9619036  97.0269966  62.6620960  78.0851126  96.0226727  62.8060007
  27.8015661  38.4160876  18.1501532  28.1470227  38.2404041  17.2749233
  26.9783735  38.8789940  17.9942608  31.5804076  36.5192533   8.4027398
  32.1201897  35.7966375   8.7231910  31.9888687  36.7748570   7.5756615
  13.3542621  46.1729956  34.8916364  12.5473523  45.9636784  34.4211984
  13.0704594  46.3440371  35.7896519   7.2966921  27.9295588  89.2369556
   6.4278346  27.6633191  88.9362335   7.8569216  27.8321075  88.4669781
  14.2133641  23.2320023  80.2290630  13.9829743  24.0631938  80.6441212
  15.1705015  23.2210875  80.2298450  71.5201378  32.6957417  11.8124640
  72.4296618  32.7140498  12.1102214  71.5629578  32.9656720  10.8951116
  91.3414192  89.9577045  81.5642548  91.2489414  89.8501205  82.5108910
  90.4529095  89.8543835  81.2235260  27.5224853  54.5303059   8.6055672
  27.4671364  55.4054213   8.2217211  26.7181897  54.0941143   8.3243591
  16.3348675   4.0430069  64.1763735  16.1744082   4.0270910  65.1198959
  16.4143193   3.1211159  63.9313507  55.3628683  91.6035938  67.6313400
  55.8999825  92.1068478  68.2432890  54.7575331  91.1154366  68.1894541
  26.8494916  87.9945564  16.0229623  26.2247801  88.0738831  16.7438471
  27.0193815  88.8970089  15.7528543  93.7022781   2.4909081  67.8526402
  93.9191055   3.4198594  67.9318094  93.6759567   2.1733332  68.7552404
   3.2203269   7.2058862  88.7217712   3.5346219   6.4177519  89.1648293
   3.1298885   7.8536153  89.4207001  21.3636446  42.3846292   9.5359164
  20.4904032  42.3071051   9.9201971  21.7324376  43.1720209   9.9362099
  51.6741085  95.8910275  71.4488935  51.6686106  96.3468933  70.6072330
  51.1590004  96.4521503  72.0285749  94.3768024  92.0641994  88.3148479
  94.2642689  92.9625034  88.0039978  94.1193199  91.5193748  87.5711441
  97.0530033  23.3116007  69.5752811  96.7426491  23.7689137  70.3568029
  96.8244934  22.3946643  69.7277355  71.4756250  68.4448338  75.0029087
  71.5119267  68.9753628  75.7988071  72.0457602  68.9015818  74.3843985
  66.7678165   8.3479571  75.5276775  67.6379871   8.7292278  75.4107761
  66.4575005   8.1819576  74.6375179 100.3166485   7.9085094  84.4906998
  99.7251511   7.2699171  84.0924931 101.1403465   7.8011632  84.0150642
  83.1695747 108.1643581  70.0954103  82.6606560 108.7816048  70.6209946
  82.8405094 108.2805729  69.2040968  19.8217583  21.0063887  84.4923306
  19.9668455  21.9131470  84.2222023  19.1951823  21.0685778  85.2132797
   4.3777201   1.5062587  74.6388102   3.5114282   1.1320239  74.7991800
   4.3554595   2.3576325  75.0757265   3.9849514   5.0922555  90.2657318
   3.7323615   4.8678252  91.1613178   3.5809940   4.4130576  89.7256088
  85.9314346  73.4129524  54.5591688  85.0235367  73.1441450  54.4188261
  86.3565731  73.2715464  53.7133026 100.3311157 106.3022423  54.4605303
 101.0221481 106.5416908  55.0780821  99.5174026 106.4508057  54.9422264
  49.4476223 108.8793945  83.7457943  50.3269243 108.6569691  83.4398651
  49.5539522 109.0411472  84.6832180  98.5124397  91.2416840  70.4004526
  98.2949924  91.5892982  69.5355129  99.3906784  91.5775394  70.5796957
  33.2574010  52.7188635   2.5555655  33.0136728  53.2064915   3.3423597
  33.3225894  53.3851480   1.8714288  73.4465075  94.5218658  63.8976765
  72.9239464  93.7784576  64.1985273  72.8648567  94.9998951  63.3065748
  78.5475540  88.5058689  94.0226936  79.4833088  88.3172417  93.9518833
  78.1243277  87.8110409  93.5183811  90.9810638  99.0846825  88.1699848
  90.4425049  98.8135910  88.9134216  90.4206848  99.6806622  87.6729774
  68.6407471  28.8437200   1.9982176  68.7818146  28.9486194   2.9391363
  67.7987957  29.2682266   1.8334641  31.3077450  41.8090963  82.4770451
  31.7572212  42.6222944  82.7070618  30.6203008  42.0793438  81.8682575
  98.7685776  90.5746746  90.7586575  99.5801735  90.1368904  90.5019665
  98.2736588  90.6587029  89.9436569  59.9079752  76.5664148  16.4746571
  60.7767487  76.3049555  16.1695266  59.3964672  76.6787052  15.6734192
 109.7931099  32.2797537  67.7737188 110.5662823  31.7378044  67.9309702
 109.0550327  31.6781402  67.8713655  44.9637747  78.1672573  94.5439339
  45.5065155  77.4839592  94.1505432  44.2160368  78.2496309  93.9520454
  58.2552290 106.2163830  87.0261192  57.3563671 106.4498043  87.2580624
  58.7856150 106.9354248  87.3694897  67.1874952  69.7547054  93.9271641
  66.6492844  69.7330427  94.7184181  66.7361498  69.1740227  93.3145237
 114.2496586  19.6470857   4.8166382 114.0221214  20.4088044   5.3497821
 115.1829815  19.5108128   4.9796465  17.7310884  30.1920128  28.9123225
  17.1596038  30.3538918  28.1617022  17.3630881  30.7293439  29.6138072
 106.7078209  43.8359213   7.8134626 107.6090145  43.9091253   8.1276751
 106.6532516  42.9538107   7.4458498  95.3582859 106.3440800  79.8101854
  95.8288670 106.4990425  78.9911795  95.5123997 105.4193974  80.0037003
  58.0509281  98.7037754  71.6001081  57.7415609  99.5520020  71.9179821
  57.3050499  98.3403206  71.1228275  32.7080989  61.6288614   5.7377851
  33.0223274  61.4119911   4.8600274  31.7548847  61.5716648   5.6718647
  82.8514385 101.1139488  84.1115761  82.2725582 101.0986233  84.8737431
  82.7404594 101.9908142  83.7441158  32.0197034  86.6145611  89.0978050
  31.1004853  86.8309498  89.2541695  32.4061680  87.4291134  88.7762737
 115.0054836  24.2963910  67.3615932 114.7258759  25.1826668  67.1323156
 114.5638847  24.1129017  68.1907797 115.8399696   5.5172133  91.7051888
 116.0801291   4.9800429  90.9502029 115.4445912   6.3016456  91.3249588
  60.0849581 107.8056622  89.9884605  59.7782707 106.9008732  90.0478745
  60.9478903 107.7937412  90.4025173 112.3128223  81.4795208   3.5251638
 112.8649807  81.7146587   4.2708623 111.6593361  80.8826733   3.8897973
  90.7096100  74.4700909  82.3842812  90.6200409  73.5286474  82.5322437
  91.1272717  74.7989798  83.1802845  36.1997390  55.8150959   6.3120151
  36.1303306  56.7360163   6.5636510  35.5782366  55.3633261   6.8828654
  78.6586857  52.7848053  24.9512005  79.5696449  52.5044918  25.0396013
  78.5228443  52.8634310  24.0069556 100.0213146  96.4311886  91.2012196
  99.9898720  96.5404701  90.2507973 100.4641914  97.2183037  91.5182972
  11.9826055  12.5973630  84.5756435  11.7163002  12.9556608  85.4223633
  12.6497090  13.2055461  84.2573357  65.0766754  43.6987305  13.5015929
  64.7071886  44.5619535  13.6874890  65.7202816  43.8573313  12.8110540
 109.2773151  37.0361495  70.4046440 109.3920994  37.6940489  69.7189140
 109.0331078  37.5396895  71.1812019  29.1089320   4.9949178   2.6230860
  28.4165096   4.3914056   2.3537223  29.4253039   5.3771585   1.8045309
  33.6220741  30.3489137   1.4122517  33.8059688  29.5080757   0.9934340
  34.1270995  30.9845829   0.9051958  79.5644140  80.8901787  84.6080780
  78.7730360  81.3767338  84.8387623  79.3218136  80.3955078  83.8253307
  85.0897598  80.8677959  73.9219093  84.5604706  81.6049576  73.6174583
  85.8108139  81.2733650  74.4033813  44.7008896  82.0598602  10.3754878
  45.4342461  81.8426704   9.7999430  44.3906832  81.2136459  10.6978834
 103.1514645  96.7180157  60.6163740 103.5994625  95.9580803  60.9879065
 103.2870770  96.6380405  59.6722078  28.7136412  72.3878241  29.9708962
  28.7828755  72.0257521  30.8542657  28.5951424  73.3279991  30.1060081
  96.8156052  63.4071827  56.2070751  96.0843754  62.8481197  56.4697027
  96.9559193  63.1997442  55.2832174  82.6683807 103.0065536  78.1122589
  81.9790363 103.6577988  77.9821777  82.3644543 102.4805737  78.8519955
  40.7304001  28.7857056  65.0908756  41.6711855  28.9423609  65.1721811
  40.6636620  27.8800321  64.7883320 109.8390961  39.5140409  21.7476201
 110.0565720  39.8069096  20.8626556 109.7458553  40.3226137  22.2513556
   2.3167656  15.9809351  59.4989777   3.0512178  15.8628654  60.1013660
   2.7188969  15.9928119  58.6304283  46.9309950  37.5570893   9.0334350
  46.5895367  36.7764664   9.4696277  46.3893318  37.6497841   8.2497007
  50.7086515  30.7228041   3.1541586  50.6552982  31.6775274   3.1107357
  50.3605366  30.5025148   4.0181726  27.9229951  30.6923366  15.4122341
  27.5819492  31.0767698  14.6046877  28.4948206  31.3681102  15.7763410
 104.0750980  21.4055109  38.7492299 103.7637997  22.1362019  39.2834711
 103.6082268  21.4999032  37.9189539   0.5005947   8.0319941  78.1218433
   1.0474302   7.8724962  78.8911009   0.5332098   7.2112018  77.6304483
  11.0664964  30.6197023   8.1327879  10.6036890  29.8119879   8.3555871
  10.7899010  30.8150697   7.2374892  77.6280165 108.2401371  64.0336609
  77.2711277 108.8353920  63.3744717  77.0051718 107.5138760  64.0628433
  56.3410091 103.6776352  92.5685692  56.0599518 103.4824753  91.6746140
  55.9287310 104.5173645  92.7713203  92.4879837  35.9405208  50.2310228
  93.2187843  36.4230037  50.6175184  92.7949619  35.0349045  50.1879358
  26.4024782  33.7222552   3.5301840  25.5331540  34.1140246   3.4463733
  26.9845390  34.4639778   3.6953747  73.9487362 105.9776115  58.3611822
  74.2350435 106.8194580  58.7155199  74.6739435 105.3808403  58.5460281
  89.8137379  13.0552483  77.7694130  89.4534397  13.2275498  78.6393118
  89.2474270  13.5462403  77.1740580  85.6228542 105.8116055  64.3107224
  84.8994732 105.7725906  63.6850691  85.2226830 105.5965233  65.1532364
  85.4185486  63.3172894  56.7357159  84.6261787  63.6851025  56.3444376
  85.4937744  63.7569809  57.5826168  30.5311060  37.1555996  17.4370492
  30.1313090  36.7417645  16.6721082  30.1856565  36.6649008  18.1827772
  19.0894377  33.4815741   3.9603263  18.4978306  33.6113119   4.7015423
  19.1080093  34.3299079   3.5173601  13.2995689   0.7806543  53.7016535
  13.5771918   1.6276461  53.3527136  12.7222610   0.4216050  53.0278397
 108.8031578   0.3724431  66.2184715 108.4777260   0.2422120  65.3277588
 109.5814610  -0.1821277  66.2725830  81.7217445  67.5868607  63.8310289
  82.1260834  67.7421045  62.9774237  81.3046837  68.4192228  64.0534306
  75.2818918  42.8164339   6.0456467  76.0266352  42.8909302   5.4489559
  75.2025223  41.8774271   6.2135690  99.3837357  22.9808927  68.0122423
  98.6266708  23.4235597  68.3958197  99.6066093  22.2969532  68.6437321
   3.0856195  20.8791518  58.6441803   2.3844278  20.4259038  59.1122913
   3.1300098  20.4394031  57.7951336  89.8084068  84.2048550  59.5926666
  89.9900341  85.0704765  59.2266798  89.6127701  84.3709373  60.5148268
  63.2644749  68.1874371  64.4460964  63.8330746  68.7462473  64.9758625
  62.4504900  68.1309605  64.9465656  94.2553520   1.2848839  88.5220146
  94.2093468   2.1182758  88.0534267  94.5375824   1.5220523  89.4053745
 113.2675743  12.9608440  74.8413181 112.9582024  12.6074719  75.6753731
 112.6293755  12.6513064  74.1985703  44.9562407  90.4545975  86.1662483
  45.7473183  89.9736595  86.4094162  45.1433039  90.7970715  85.2922153
  21.1066723  13.6855745  81.4585876  21.5339112  13.1516695  80.7887840
  21.3428473  14.5856059  81.2340927  52.0311689  57.9622650   0.6127553
  51.2708616  57.8291416   0.0466807  52.7804136  57.9358339   0.0176398
 103.0603218   8.3339262  61.3523149 102.5025654   7.5821346  61.5521812
 103.8891029   8.1404698  61.7904091  24.6838951  35.8031034   4.2219639
  23.7552118  35.5754638   4.1777086  24.7442961  36.6498041   3.7796074
  98.7752724   3.3138585  89.5156097  99.3688679   2.7143732  89.9678230
  98.5583591   3.9763364  90.1715851 114.8644066   4.2115182  69.2286396
 114.4841385   3.3896390  68.9185667 114.6235371   4.2527544  70.1541185
  64.2593336 108.3727932  57.6649904  63.5591650 108.6192894  57.0606470
  64.0826321 108.8813019  58.4564686   4.6251255  33.4402156  83.0835915
   4.8339131  34.0870476  82.4096107   4.4112292  33.9612556  83.8575459
  27.9393530  43.0967569  11.8329310  27.1614695  43.6178255  12.0319808
  27.6259875  42.1923494  11.8240714  49.3264675  55.9297848  35.9934092
  49.3533754  56.8238068  36.3343382  49.7367382  55.9899950  35.1306891
   1.2174848   1.1559193  79.5596027   1.0356121   0.9269895  80.4710579
   1.4531206   2.0832278  79.5879984 114.7211170  16.9178879  89.2439175
 115.4835796  16.4024913  88.9807606 114.5344925  17.4731541  88.4869003
  88.7847328 107.0878220  94.1232872  88.0296421 106.9280148  94.6894360
  89.5220661 106.6956806  94.5910454  80.6269741  50.4369926  18.2369840
  81.0195732  50.4304790  19.1099381  80.0160313  49.7001505  18.2436275
  28.3720708  12.3941636  90.4896545  28.2349277  12.5098121  91.4298916
  27.9896450  13.1772470  90.0937271  52.3321772  95.5879879  79.2155886
  52.2380114  94.6779060  79.4968605  53.0657578  95.5740070  78.6008549
 101.8070030  12.8586590  93.2864952 101.8853855  13.4171128  94.0599346
 102.3214912  13.3062398  92.6147747  72.8669882 101.0966110  64.2763615
  73.7457991 101.0743237  64.6550798  73.0126762 101.2413216  63.3414459
  28.3921623  48.9832258   6.3203478  28.4927559  49.8464060   5.9190536
  28.5886002  48.3667755   5.6149167  79.5468521  28.8269997  20.3169084
  80.3961849  28.8686848  19.8774493  79.5128298  27.9458451  20.6892586
  79.2915487  12.1614575  65.2177334  79.8298407  11.3729477  65.2864885
  79.9227428  12.8803730  65.1863861  39.0012074  13.4824014  70.2588081
  38.6977863  13.5574210  69.3540764  38.4020376  12.8535438  70.6610107
 107.6018238   6.1323220  73.4793329 108.4143353   6.6298521  73.5716200
 107.8864098   5.2529049  73.2306004  91.2886429  14.2026865  85.8352661
  91.4358521  13.9519179  86.7472363  91.9172192  13.6789930  85.3384113
  42.6502371  21.6453099  16.1366189  43.2436800  21.3395214  16.8225884
  42.9011393  21.1429715  15.3614175  37.6705647  45.1386261   0.1377514
  36.7135048  45.1229954   0.1328384  37.9218483  44.2989588   0.5225253
  17.4216759  95.7331657  17.3723805  18.0447257  95.2019596  17.8682196
  16.7562759  95.9828186  18.0135870  36.7872262  64.0456343  21.6483617
  35.8788753  64.2225456  21.4037538  36.7594743  63.1848621  22.0661354
  69.4441462  86.6329575  73.3692455  68.8979530  86.0762501  72.8142834
  69.3027544  86.3000393  74.2554808  80.2572918 105.7801151  58.9855099
  81.1527348 105.6915760  58.6590433  79.9821615 106.6503811  58.6970997
  56.8774080  40.3649521   1.4292912  57.0974255  40.9145021   2.1815029
  56.4767551  40.9667969   0.8020026  79.4503450  94.5743561  77.1250296
  78.9928675  93.8891506  76.6377449  79.6515083  95.2414036  76.4686680
  63.0503368  79.8190117  68.6948252  63.8643980  80.0369263  69.1487551
  62.7942514  80.6317711  68.2588530  26.4460158  25.1076889   7.2530705
  26.2633467  24.6704388   6.4213997  26.8859792  24.4421768   7.7819920
  60.8266735 106.6734886  84.2858505  60.5230188 107.5661564  84.4506836
  60.4519796 106.4463520  83.4348297  14.9347579 108.8775730  73.1567240
  15.6712544 109.3706322  73.5182333  14.1735566 109.1919422  73.6445475
 111.9245720  26.0697627  41.1101913 112.4230194  25.3770351  41.5436840
 111.0387897  25.9839392  41.4626837   0.7029568  20.4097939  78.9813471
   0.9514216  19.5799756  79.3886566  -0.1368057  20.2276325  78.5596275
  52.8846073 101.3216496  62.2450972  52.3500633 100.5723953  61.9821930
  52.7855062 101.3646126  63.1961870  38.2110620  58.7339067  13.5863006
  38.4106016  59.4582605  12.9932368  39.0327120  58.2477713  13.6555672
  41.5470934  41.4512634   3.6278957  42.3185825  40.9205151   3.4295493
  41.8941641  42.3297262   3.7830797  86.1182213  98.9506531  59.4343853
  85.8786106  98.3451557  58.7328100  86.8834877  98.5493469  59.8461485
  27.6143670  40.3963518  20.3801131  28.0760932  39.8624945  19.7335553
  28.2746363  40.5914927  21.0450935 103.0456543   7.6929820  82.8606892
 103.8486004   7.9873425  83.2906437 103.2697487   6.8373340  82.4947834
  42.8706026  63.0529928   1.6402218  42.2162533  63.5622978   1.1620280
  43.2466173  63.6728096   2.2652580  29.8627400  41.4810324  15.2249503
  29.4200754  42.2255802  15.6323004  30.6867814  41.8419456  14.8979509
  99.4262600  93.6555481  78.1325483 100.0844669  93.9821148  77.5190735
  99.2598724  94.3926430  78.7201118  14.8440087  43.1108427   7.7895260
  14.0113223  43.5010815   7.5238591  14.5972621  42.3013020   8.2367343
  90.9192371  75.1547813  70.0276136  90.4690266  75.6534243  70.7094431
  91.8497276  75.2910948  70.2060843  55.8857250  84.6895123  91.9065380
  55.0682497  84.6632481  91.4092636  55.7879066  85.4431057  92.4885654
  71.1796045  96.7696285  53.1788492  71.7408514  97.4088001  52.7398825
  70.3244925  96.8754864  52.7619457  40.7685375  46.7456627   0.7130980
  41.4805317  46.7736053   0.0739444  40.2167082  47.4952459   0.4898416
  59.4905853  84.6213055  76.6150284  58.6025906  84.9329090  76.7899561
  59.8675966  85.2845001  76.0368776  59.5947981  76.1725569  81.5196991
  60.4556274  75.8030844  81.3230038  59.7020149  77.1142387  81.3856411
 112.3333931   4.1155925  77.8400421 112.0506382   3.3942589  78.4021425
 113.1947136   4.3597499  78.1787777  59.9034262  84.1831875  62.2683859
  59.8614025  85.0474453  62.6776743  60.3744030  83.6410999  62.9012871
  42.4003172  41.4985657   0.4970174  42.1190739  42.2894287   0.9570901
  41.6297960  40.9306908   0.5038603  74.9048758  60.9447813   3.3143306
  75.3261662  61.0719442   4.1643739  75.2816963  61.6249561   2.7561170
  77.9183626 100.1425076  92.6436615  77.3080540 100.2870655  93.3667469
  78.2662058  99.2638302  92.7958679  16.8298948  28.5080934  31.8804765
  17.2776461  29.2658639  32.2566867  15.9188879  28.7880445  31.7914462
  92.6533031 105.0856972  76.6388512  91.7327690 104.9326229  76.8519592
  92.7147293 106.0319233  76.5080309   8.9076865  52.6811647  12.2617328
   9.6432674  53.1053591  12.7035594   8.2555616  53.3748007  12.1625793
  88.4551811 107.2041512  70.6477785  88.8248634 106.3267612  70.5489874
  87.9012966 107.1444321  71.4261580  68.5707045  86.8171597  92.3501301
  68.6921072  86.1615372  93.0368996  68.3355761  86.3096428  91.5733624
  19.3542612   8.9151025  68.6495256  19.5508361   9.0555817  69.5757294
  19.6313918   8.0147684  68.4797335   7.6440322  54.9201155   1.3923925
   8.0257499  54.3576336   0.7184947   7.8101474  54.4568348   2.2133726
  67.3225832  75.5860758  68.9912796  66.7535877  76.0384941  68.3685493
  67.1900654  76.0503292  69.8178005  12.4762177  70.2846432   8.1558633
  11.9972944  69.4590807   8.0829960  12.0655680  70.8577156   7.5084162
  71.2252235  80.5635929  90.3241920  71.4777136  80.7316494  91.2320709
  70.5062771  81.1734867  90.1587200 107.0991421  85.8911610  86.6732597
 107.3707771  86.7647362  86.9548798 106.1946106  85.8122921  86.9763088
  62.7782202  57.6727724   8.1121737  63.0037498  58.3798313   7.5076628
  63.2598782  57.8796387   8.9130771  99.1631985  33.7836742  68.3275700
  99.7478867  34.3911648  68.7806988  98.6340809  34.3411136  67.7570152
  35.1788807  32.3177052   0.1552545  35.6856990  33.0383635  -0.2189367
  35.6414866  32.0934916   0.9626927  93.0767822  10.0722730  72.0734739
  93.8137913   9.5540631  71.7502069  92.3237228   9.7543925  71.5753794
  70.8410835  98.0778408  87.1617889  70.8342886  97.7559853  88.0632210
  71.5654087  97.6102257  86.7459583  28.3187938  68.8864565  83.2939529
  29.2206764  69.1690159  83.4456158  28.1563950  69.0880394  82.3724270
  66.9490767   6.9127011  68.1141996  66.2622404   6.8913561  68.7805557
  67.3253584   7.7898985  68.1860924 106.4057541 103.5283470  89.5844364
 105.8059311 103.6092186  90.3259850 106.7993832 102.6620102  89.6881580
  85.5198288  94.0080166  81.0444832  84.9036217  94.7133350  80.8468723
  86.2332344  94.4383049  81.5158081  43.8919687  24.9070740   9.1821188
  44.0702724  24.7281265   8.2588542  44.2017412  24.1265559   9.6415389
  24.1614318   4.4819665  76.5398264  23.3409023   4.0795279  76.8244410
  23.9508367   4.8855263  75.6977940  93.3930969  19.4260097  73.6099672
  93.0965900  18.5175407  73.5552120  94.0549660  19.5037663  72.9228592
   4.8470360   8.1081849  72.7056074   4.8808300   8.5536689  71.8590641
   3.9886421   8.3365339  73.0623245  84.6991634  62.1784163  39.2973757
  84.7372627  61.8922567  40.2100039  85.6039619  62.4009705  39.0781784
  93.0299473  12.1880317  80.7373238  93.6764431  11.9427037  80.0754356
  93.4836674  12.8230715  81.2914848  10.2874124   5.7428080  70.1749849
  10.7292056   6.4957684  70.5675411  10.2740598   5.9349895  69.2373705
  40.0794935  40.1183701   0.1618673  39.5038795  39.6345592  -0.4304415
  40.2508974  39.5091391   0.8799851 111.0177422  11.4887953  80.5472851
 111.1569500  10.9573102  81.3311100 111.8555641  11.9291818  80.4046154
  97.0597172  21.8699789  66.0842276  96.6913128  22.7392530  66.2419558
  97.5445843  21.9605803  65.2639103   5.5113518   3.9574456  64.6221590
   6.0046822   3.5675424  65.3438473   5.0728166   4.7133729  65.0126600
  89.6657372   7.2719038  86.6723156  89.6765423   7.8153181  85.8843994
  89.2642403   7.8271329  87.3407173   9.2406690  45.2947187  18.4085464
   9.1395640  45.8913279  19.1502118   8.3644426  44.9356365  18.2688355
  61.1389017  92.7060699  72.6773167  61.5954494  92.1136761  73.2746983
  61.2904263  93.5778904  73.0422831  14.1960573  11.1839354  62.8523397
  13.2687938  11.4180589  62.8123188  14.1981804  10.2444553  63.0356550
  85.0790310  99.7092438  83.3499336  85.0340176  99.0261841  84.0189934
  84.4254494 100.3537655  83.6213207  20.4831409  24.9665427  78.2771206
  20.5368853  25.6121182  77.5724363  21.2937570  24.4629264  78.2029057
 101.9409847  30.5660033  86.6650963 101.4605904  30.9652615  87.3903847
 101.2672043  30.3554678  86.0186195  24.5205903  33.8270617  82.3050880
  24.1083932  33.0589128  82.7004051  25.4574633  33.6995173  82.4541950
 114.2098713  20.1177216  78.1533384 113.5672188  20.4384971  78.7860584
 113.8474655  20.3586078  77.3007774 103.7596512   1.0114757  45.4049397
 104.3241596   0.2838834  45.6660366 102.8712273   0.6980990  45.5744267
  78.6129570 108.7117481  86.3372898  78.2510757 107.8315735  86.2344456
  79.3167067 108.6080360  86.9777679  39.4887924  11.5778875  54.9027157
  40.1035261  11.4903235  54.1742420  38.9355922  12.3208022  54.6613026
   0.8662023  28.5231161  78.1182194   0.9610286  28.4527135  77.1683359
   1.7534642  28.6910486  78.4357071  49.2142677  11.1036563  70.1460266
  49.9969244  10.9263718  69.6242428  49.0807962  10.3050411  70.6565475
  42.0396423  65.3266573   3.5462776  42.6550245  65.0698853   4.2330104
  42.1652412  66.2709856   3.4529704  17.1401572  25.6093550  44.9555922
  17.3959887  26.3349628  45.5250454  16.6732693  26.0263205  44.2314434
  49.9435329  50.9599113  11.4540136  49.2485285  51.3107395  10.8971345
  50.0630426  50.0602531  11.1497700  46.3632107  36.6382241  33.1095195
  45.7366037  35.9426999  33.3091283  47.0519924  36.2031054  32.6070452
  46.6570950  28.1037283  52.4820423  47.0098782  28.8298488  51.9677210
  46.8374681  27.3261666  51.9537497 109.5219612  17.2609973  58.9828253
 109.4474316  17.2957885  59.9364853 109.8883724  16.3952565  58.8026476
  35.9382415   9.3475640  77.7043247  35.4795003  10.1872218  77.7319956
  36.7112565   9.4787574  78.2533836  90.6391048  18.1776035  71.3294029
  90.5729008  17.4740505  71.9750500  90.4043961  18.9695060  71.8131733
  60.9135628  85.4587650  72.9663181  60.6726408  86.0932446  73.6413097
  60.5930090  84.6208000  73.2999325  19.1969168  94.0695572  11.8882024
  18.3371818  93.6488247  11.8964672  19.3106425  94.3995857  12.7794826
  43.7350082  41.8234015   7.9828459  43.6974621  41.1625242   8.6742687
  42.8271341  42.1056032   7.8717071  70.9629536  98.6063194  61.1185789
  71.1235714  99.4487953  61.5436363  70.0092745  98.5412216  61.0686111
  14.2332470  68.9003515  91.4038181  13.7416947  68.2954311  91.9594097
  13.5622096  69.4358921  90.9805775  48.5054255  38.6245584  13.3705783
  48.5488653  39.1439486  14.1734374  49.2404985  38.0153251  13.4393799
 110.0630856  11.6356218  57.8719902 109.3574905  11.8301404  58.4888554
 109.6731091  11.0244763  57.2469711 113.7641144   1.3738284  89.5318413
 112.8597641   1.5893903  89.7596741 114.2655087   2.1500927  89.7813416
  82.9391003  91.8168831  60.1005077  83.0244350  91.6988087  59.1544580
  82.3395252  91.1231899  60.3753376   9.9572068  17.1714175  80.2187347
  10.6637788  16.8285370  79.6715355  10.3948963  17.4694562  81.0161209
 115.0516701  21.7260337  84.1609573 114.2575932  21.7266774  83.6264801
 115.7606506  21.5727472  83.5363960  82.4623299 101.0591507  47.0495558
  81.9523239 101.7273331  46.5916777  83.3018589 101.0419655  46.5900755
 111.3512421  22.7934313  74.6365929 110.8509541  22.5750804  75.4228878
 111.0755062  23.6832857  74.4166899  90.9340382 100.3001213  43.1108475
  90.2178478 100.6898117  42.6094007  91.7157269 100.7656288  42.8133488
  94.3590546  92.2567654  42.2418976  93.6345768  91.8803692  41.7422152
  94.9594212  91.5245056  42.3818493  74.5175600  23.0268908  11.2694681
  74.5156622  22.8684664  10.3254712  75.4353857  22.9364038  11.5256727
  99.8332596 106.3082600  88.7097359  98.9746666 106.1349392  89.0957642
 100.4189587 105.6841660  89.1383171   2.3655282  77.4094439  92.0163250
   2.3558900  77.8617573  92.8598595   1.4912069  77.0275164  91.9393349
 115.2725410   0.3749735  81.7817593 114.4328117   0.1056159  81.4095497
 115.1153851   0.4122953  82.7252388  99.3332577  16.5784156  88.5542297
  99.4859695  15.8071089  88.0083370 100.0363064  17.1829927  88.3166504
  56.5124035   0.5092357  52.2522259  57.4001217   0.3955783  52.5917387
  56.2671852  -0.3573635  51.9280291 115.4130936   0.0895500  77.9347515
 115.4391575   0.7000779  77.1979952 116.1030865   0.3951669  78.5235929
  15.2796793  17.5064683  58.9043903  16.1808717  17.5137329  59.2269278
  14.7763956  17.0984411  59.6089840  81.4645672  88.5274506  93.9959908
  81.4634514  89.2743397  93.3973217  82.2903347  88.6047745  94.4738579
  17.5773120   5.1709729  88.1541920  17.2366798   4.3097377  88.3960056
  17.1857142   5.7704210  88.7894440  28.1148362 107.8139973  61.2865353
  27.6757383 106.9640923  61.3195562  27.5992060 108.3727360  61.8680573
  29.1175723  41.0739470   6.4696616  28.4305406  41.4177847   7.0406175
  29.1531372  40.1394224   6.6737050 100.2956867  31.5328026  67.1246910
  99.8471737  30.8037472  67.5531149  99.8273849  32.3117757  67.4248981
   4.5866096  17.9470193  58.8579607   4.0314287  18.4430051  59.4596291
   5.1635164  17.4388266  59.4281816  69.3029356  25.4664016   2.0845599
  68.3845520  25.3186822   2.3103452  69.3671799  26.4117694   1.9489732
 105.0711536  18.9664352  80.8678341 105.0785828  19.6266425  81.5608788
 105.8281517  19.1823292  80.3232574  82.5848007  79.3226433  81.8679905
  82.5726891  79.2385769  80.9145641  81.7446041  79.7274733  82.0834255
   5.4833686  97.8061199  51.3993311   5.0603509  97.1086502  51.9001484
   4.7763729  98.1925297  50.8825397  71.6159725  71.5879440  74.1892862
  70.9244204  71.3087368  73.5892582  72.3202705  70.9538364  74.0547085
   6.3835168  70.8693027  71.6971159   5.5607003  71.2190437  72.0390034
   6.7319185  71.5710354  71.1471844 109.6474648  22.3136044  80.4615402
 109.2712879  22.5509214  79.6139574 110.1112938  21.4927506  80.2963448
 112.4062824  18.8643301  59.7780561 111.8779087  19.0417397  58.9998674
 112.6445866  19.7305596  60.1083422   1.1709951   3.9692563  78.8541889
   1.9255507   4.5103005  79.0868855   0.9408653   4.2477065  77.9677677
  31.9703913  42.3568869  29.3271542  31.1101937  42.6394701  29.6377015
  32.0648742  41.4651728  29.6620393   7.1849906  17.9013681  89.7220802
   6.6310185  18.6717474  89.5961380   7.9040694  18.0193877  89.1014194
  37.9979873  49.2203856  11.9711554  37.0665288  49.0940571  12.1518731
  38.1020141  48.9592218  11.0561669  81.6167450  93.2074070  62.7881241
  82.1108723  92.8502274  62.0502234  81.2850666  92.4371433  63.2495546
  94.5287704 104.1623020  63.6628771  94.1511917 104.4668674  62.8377056
  93.7815380 104.0931702  64.2571020 109.2768669  14.2076743  90.8881474
 108.8419437  13.8634729  90.1080132 109.4867039  15.1145220  90.6649303
  14.0588892   9.1410583  58.6907053  14.2354989   8.5228628  57.9815674
  14.9141848   9.2967576  59.0912771  85.3772831  90.1410770   6.0531610
  85.0476170  89.4644737   5.4617643  85.7894993  89.6548939   6.7672610
  94.3529510 106.3683128  72.3474455  93.6213589 106.7377281  72.8419495
  94.6801186 105.6575584  72.8988171  93.9997768  31.2209749  85.4473495
  93.7610817  30.4137230  85.9029865  94.9361706  31.3238978  85.6170750
 112.1318436  96.3586235  91.1167526 111.4332581  96.5170002  91.7516613
 112.8159809  95.9158134  91.6188622  34.3908811  15.0457954  88.5293293
  33.5409355  14.6632874  88.7472916  34.9414229  14.8545146  89.2886353
 109.7420788   3.2788080  66.3483810 109.3777561   2.4077019  66.1913061
 110.1360607   3.5279638  65.5123568  31.6009974   0.5088395  76.5158224
  32.4283314   0.9895158  76.4893055  31.6574597  -0.1056621  75.7840872
  85.6007004  97.0855904  63.8159084  85.2059460  97.5655556  63.0878782
  84.9875641  96.3721752  63.9929295 110.9772682  15.8218503  93.6327744
 110.0674534  16.1157799  93.5873508 111.0756683  15.2310610  92.8861046
  41.2197971  26.8422890  27.6797652  41.0639238  26.0663152  27.1414351
  40.3696775  27.2803235  27.7203918   0.5525054  19.5942008  59.5622301
   0.2330643  18.8670266  60.0964642   0.3883250  19.3189597  58.6602736
 106.9408607  12.0615733  83.9848518 106.9227123  11.1190116  83.8190746
 106.7731285  12.4583709  83.1300735 110.3005981  55.7621813  72.4290276
 111.1433315  55.5632305  72.8370142 110.2861977  56.7169476  72.3624134
  52.9774857  66.7212486   3.0423728  53.7239695  67.0067930   2.5156254
  52.2205925  67.1388769   2.6313660  92.2810841  32.6238561  73.3550835
  91.6247177  33.2835531  73.1310177  91.7796326  31.8168235  73.4711456
 111.0914421  11.0619366  54.2028809 111.4890289  10.1927423  54.2544413
 111.8298244  11.6552782  54.0651464  98.6761951  29.6492434  68.0153275
  98.3639622  29.6490312  68.9201689  98.3848667  28.8090229  67.6612282
   9.6762413  15.3119206  90.4251194   9.7398156  16.0340142  91.0502434
  10.1664889  15.6133986  89.6602726  98.3881760  54.3563890   6.1367726
  98.2447433  54.7352219   5.2695096  98.9969826  53.6335754   5.9846991
  11.7038226  19.6005082  87.7408123  11.3828731  19.7579968  86.8528843
  12.6194751  19.8784697  87.7173424  74.3736792  58.6546707   1.7397708
  74.5740795  59.3252468   2.3927638  73.5110950  58.8979149   1.4036050
   2.9975489  94.0881252  36.2944412   2.2292295  93.7471294  36.7523026
   2.6512179  94.4393063  35.4740977  31.9777918  13.1862438  63.9262533
  31.0930300  12.9118979  63.6850834  32.3487258  13.5373163  63.1166935
  75.2756357  99.8549557  78.2603693  74.6169806  99.1880703  78.4544516
  75.0667429 100.1468086  77.3730040  19.8108768  32.4057722  55.5045986
  19.7271883  32.3930168  56.4580488  18.9101326  32.3569489  55.1844263
  52.4364710  36.8617892  81.2143707  51.4893913  36.9909453  81.1634922
  52.5392771  35.9579134  81.5121555  95.4875469  11.9980240  65.1260567
  96.0896969  12.1555817  64.3988609  95.9967422  11.4820957  65.7511759
  26.7926049  22.2876215  67.6400757  27.3783255  23.0266237  67.4756289
  26.1561179  22.3229694  66.9260311 105.3968430  16.3928926  63.3771467
 104.5131302  16.6798425  63.6072397 105.9259129  17.1894765  63.4193134
  25.1953602  46.9189787  72.2840977  25.5690145  47.6347351  71.7699909
  24.9511552  47.3239231  73.1163311   4.1270542  11.4265430  84.4701576
   4.6797556  10.7221043  84.1317558   4.3978450  12.2011852  83.9773846
   4.1762930  89.8838425  59.5424747   4.9496886  89.8179245  60.1026011
   4.0083587  90.8238220  59.4756746  40.3528166   6.1076277  52.8781605
  39.9318242   6.7630380  52.3218918  39.7955704   6.0591525  53.6549187
  35.9538317  29.5525360  73.0951357  36.7179513  29.9552679  73.5076380
  36.1615086  29.5462799  72.1607590  99.4621849  94.8974609  57.5929165
 100.0408649  94.9008560  56.8304634  99.7618198  94.1551399  58.1177187
  17.3398948  13.9908659  52.0545816  17.2208476  13.1837213  51.5540028
  16.5542769  14.0538955  52.5977755  32.9498434   9.2474031  86.5773964
  33.6352253   9.0401989  85.9421444  32.9452205  10.2035785  86.6214275
 108.2426929  91.3230419  90.6859779 109.1903400  91.4355946  90.6116104
 107.9667950  92.0100307  91.2927437   4.0860701  31.4523983  42.8831148
   3.9544359  31.7404699  43.7863970   3.2554120  31.0445857  42.6383114
  84.8739624  87.4396038  66.5534592  84.5361900  88.0985165  67.1600771
  84.5615673  86.6065216  66.9064713  28.2593513  25.3674126  75.1497364
  28.6257458  26.2517071  75.1466942  27.3232794  25.4965258  75.3024769
  88.9575577  13.3614349  92.9647923  89.5590210  13.0092156  93.6208439
  88.0923557  13.2836735  93.3668041  58.3177853  25.5580688   0.3637039
  57.4138212  25.2433014   0.3647139  58.2510853  26.4787793   0.6168336
 113.8214874  87.6546478  67.4338531 113.3489609  86.9719219  67.9101229
 114.4533730  87.9949474  68.0672216  10.6997979  16.2454367  87.9430676
  11.6165769  16.4992797  87.8367043  10.2261090  16.7894053  87.3138142
  17.9648232  11.6706777  57.2250986  17.5886226  10.8009720  57.0897579
  18.8516986  11.6057813  56.8708754  12.0159698 108.9756489  50.4442263
  11.3187623 109.4635391  50.0059462  12.5036013 108.5624790  49.7316694
  40.0204277   7.4557799  74.0549850  39.2243147   7.6977533  74.5281506
  40.3004694   8.2652396  73.6276865  39.9908590   6.5774411  44.4842529
  39.9329805   5.8232135  45.0707865  39.8351359   6.2151003  43.6120749
  12.7434361   4.8275360  91.2180519  13.1247795   5.6447601  90.8971882
  11.8272197   5.0429624  91.3923264   3.4993899  16.8904722  66.4328575
   2.9128635  16.2944281  66.8986416   3.1219068  17.7583802  66.5759468
  52.3605013  41.7663527   8.7635261  51.9780779  42.1235228   9.5650315
  52.8396749  40.9896469   9.0522373  51.4402962  81.4027596  11.2670565
  51.1560106  80.6693077  11.8124676  52.3348999  81.1782551  11.0111022
 105.0338554 108.1150723  40.2252436 104.6462536 107.5442696  40.8887100
 105.9750652 108.0744934  40.3946495 101.6869259   5.2933735  54.3370628
 100.8516598   5.7606351  54.3214989 102.0810318   5.5351466  55.1751900
  62.4745703  69.7262335  38.0530453  61.7635536  70.3511095  38.1952381
  62.0368338  68.9294243  37.7535200  97.8755665 102.7143955  67.4668503
  97.3379421 102.3715687  68.1807566  97.3793697 102.5104713  66.6741133
  58.0190277  29.5995307  83.9743996  57.8492689  30.4836631  83.6492538
  57.5534487  29.5580220  84.8097134  19.0067971   1.2978594  93.3612251
  19.8389983   1.0234855  93.7464428  18.6510193   0.5013049  92.9673290
   3.1883034   1.3530286  25.0098205   2.8340393   1.0200377  25.8343458
   4.0793613   1.6280670  25.2256942  32.7180648   6.0625291  56.0259581
  32.3505259   5.1787305  56.0190725  32.9175282   6.2318116  56.9467115
  65.5343819   3.7238404  93.5954666  65.8862543   3.2019332  94.3165970
  66.0371017   4.5379841  93.6214733 108.0376816  11.6415858  24.4870567
 107.5707436  11.0359764  25.0627637 107.9455376  12.4946105  24.9114275
   4.2415932  22.8270149  77.7131510   4.6958119  21.9846106  77.7297449
   4.8733741  23.4469938  78.0774450  -0.1295229 106.8724537  91.7644405
  -0.2345320 106.3171673  92.5370026   0.5897097 106.4709473  91.2768555
   9.8963052  81.2832832  35.6720424   9.6257383  82.0480156  35.1638985
  10.0708592  81.6273403  36.5480518  90.2702236 107.0042801  56.0126829
  90.4405975 106.8281269  55.0873852  91.0653877 106.7171097  56.4615345
  58.1265688  39.8387408  24.6719098  57.8827906  40.0326061  25.5770159
  58.8988829  39.2782259  24.7466850  11.5410244  11.7638123  89.4937992
  12.1056521  12.4326491  89.8812008  11.9952631  11.5013075  88.6931801
   2.0341018   0.1381966  57.5774479   1.2090209  -0.3032020  57.7790308
   1.9432691   0.4103276  56.6642523  33.1127620  43.2501936  80.4004860
  32.4172783  43.3405542  79.7490501  33.6991048  42.5879669  80.0345707
 107.8675175 102.1426010  81.6135979 108.2767105 102.7310371  82.2480488
 107.0878124 101.8132401  82.0605946  74.9470806  56.7121553   4.8758370
  75.2032280  57.5296497   4.4488469  75.6390524  56.0931921   4.6428272
  26.1307621  63.6265135  75.0775576  26.6760707  63.5662270  74.2931890
  26.4013648  62.8822231  75.6151819   4.6819064   8.5828686  40.9992695
   3.7833461   8.2530046  41.0025406   5.1843590   7.9047084  40.5477476
  16.0628760  28.0692792  94.4299984  16.8982029  28.0337048  94.8960400
  15.9843504  27.2111225  94.0133095 113.8788509  31.8100309  75.4108667
 114.8065281  31.9100404  75.1971912 113.4465981  32.5231600  74.9409389
   3.0783191   3.5563749  88.2610893   3.3408725   4.0248299  87.4687195
   2.5482449   2.8256667  87.9427814  27.3758793  33.9302444  54.3962431
  26.9067955  33.7440515  53.5829020  26.6903496  34.1772413  55.0169420
  44.3083525  12.4624276  45.9146500  44.8684835  13.1956589  45.6599808
  43.8300323  12.7810204  46.6801167 101.6816521 109.5984650  78.1204987
 101.8237114 108.8567352  78.7086248 101.3024426 109.2098618  77.3321915
  27.2087860  16.6328406  80.7569695  27.5844598  15.7668769  80.9157372
  26.9827318  16.9592142  81.6279507  34.8266411  65.3419065   3.5335559
  34.1801977  64.9540901   2.9436925  34.5965505  65.0016022   4.3981260
   1.4283635   9.6033090  71.2158108   1.9408327  10.3618395  70.9360981
   0.5185809   9.8959976  71.1623192  99.5006275 109.5207977  93.3947372
 100.1346302 109.2177963  92.7447701  99.3424702 108.7568474  93.9493370
   8.3038205 102.2811508  72.8147697   8.8977081 103.0317116  72.8286409
   7.8742063 102.3314190  71.9608784  59.9855280  76.9941854   0.0575451
  59.6981001  76.7232752   0.9294560  59.1832829  77.0120811  -0.4642935
  42.4720669   9.5717037  44.6069479  42.1648550  10.0727928  45.3624392
  43.3553934   9.9022168  44.4434690  39.2831635  15.6457412  63.0738544
  40.0754023  15.5880487  63.6079502  38.5696602  15.4530799  63.6821508
 112.1717739   1.3013457  55.2708769 112.7176476   0.5210970  55.3681326
 112.7942657   2.0108353  55.1116228   7.6092345  11.9024849  80.3456211
   7.7345628  12.1495843  81.2618446   8.3451033  11.3219976  80.1512909
  49.3468904  67.1687603   9.0867484  48.9310694  66.9318676   8.2577699
  50.1252365  66.6134167   9.1315788  49.0727329  62.9148293  19.2965090
  48.9044046  62.6796579  20.2089739  48.9090109  63.8571358  19.2579150
   1.7513789 105.8478737  90.1146126   2.6891375 105.9241867  89.9384975
   1.3379212 106.4076805  89.4574261   5.7104450  31.3554215  46.6548157
   5.9520847  31.8776298  45.8898687   5.0551647  31.8850303  47.1090746
 102.5528908  85.4017162  45.2434301 103.1975174  84.6941471  45.2506781
 102.1155548  85.3186131  44.3960524   6.3792610   5.2990741  75.3927898
   6.4772362   6.2375927  75.2321196   6.0899293   4.9413040  74.5534325
  35.2853370  60.5930948   0.6705400  35.1452446  61.4745665   0.3246824
  35.6111145  60.0915432  -0.0768203  43.8991308  28.4952879   6.3931715
  43.0234051  28.3619761   6.0304528  44.4261312  28.7822366   5.6474096
  96.8762207 106.1688900  77.4670649  96.4141369 105.6805611  76.7857122
  97.7981186 105.9459400  77.3381090  31.4525533  13.9140809  73.3782005
  31.8747711  13.4144735  72.6793766  31.5898371  13.3875084  74.1656685
  24.6395254  72.8978729  62.4476576  25.2822518  73.2642365  61.8402719
  23.9673209  73.5752153  62.5223541  31.6184139  15.4475045  57.2537565
  32.5515771  15.2641928  57.3625422  31.5594077  16.4028466  57.2622824
  18.7064123  92.1545124  89.7221565  19.5865285  91.8665600  89.4798565
  18.2103372  92.1227646  88.9041519  66.3157797  76.6258478  78.3131361
  65.8013201  75.8853388  77.9918814  66.3459826  77.2346449  77.5751066
 112.0351219   2.8084293  63.1115770 112.5887966   3.3635297  62.5624466
 111.1900806   3.2576016  63.1311035  44.2571402  19.5053589  56.3208771
  44.3258142  20.1284957  57.0442152  43.6273336  19.9039853  55.7203150
  99.3009567  10.6378245  57.1100521  99.3683147  10.7897902  56.1673975
 100.0318050  10.0533545  57.3112631  65.5247593 102.4572468  51.8897820
  65.7110739 102.3053074  52.8162956  66.3570309 102.2899628  51.4475441
   6.4545071  16.4876330  77.9794264   6.4748985  16.1129642  78.8600159
   6.8304801  17.3618674  78.0823374  68.3168983 108.8922882  84.2506886
  67.9427528 108.3756924  84.9643898  68.3069992 108.3021545  83.4971142
  56.6508198  89.5518780   4.2746949  56.6068554  89.6087742   5.2291906
  55.9727001  88.9179993   4.0410557  26.3257408  10.7965529  71.0129595
  25.4214191  10.4858065  70.9697390  26.3109636  11.6401947  70.5609798
  38.9630723  28.6574793  44.8044968  39.4767380  29.4415569  44.9984121
  38.2077956  28.7151527  45.3897047 115.6562996  95.3500557  85.1173401
 116.2501335  95.9619999  84.6824455 115.6066704  95.6649876  86.0198784
  27.1430302  15.3816235  57.5529289  27.9062080  15.6925690  58.0398655
  27.5032496  15.0450802  56.7324352   3.1882051  97.2643661  58.0872202
   3.5504994  96.8614292  57.2981596   2.9981357  98.1665039  57.8298187
  89.1086102 105.8727455  77.8318119  88.9096260 106.6649914  77.3328257
  89.4160938 106.1943817  78.6793041  37.1757746  68.3387136   6.0892075
  38.0338383  68.0459166   6.3961762  37.0456958  67.8739023   5.2626115
   2.6069039   4.7170532  92.7948856   1.6635263   4.8762098  92.7642155
   2.8142893   4.6857715  93.7288284  19.1146159  37.4932313  71.2237835
  18.8582027  37.1037436  70.3878498  18.3084452  37.5052953  71.7397022
   8.1095737  97.5977135  51.2181234   8.2962912  96.9056511  50.5837679
   7.1625662  97.5526524  51.3499498  49.1056824  41.3925505  13.1417143
  48.4535789  41.0091925  13.7282550  49.8567867  41.5761995  13.7059367
   3.2558462  99.2698002  80.6473446   3.7065104  98.8752842  81.3939953
   3.9084661  99.2711926  79.9471188  83.6047554  66.4400101   7.9355645
  83.1869984  66.1295033   8.7388700  82.9014492  66.4448166   7.2862798
   7.9648125   2.6526088  71.5914297   8.6436993   2.8564367  72.2347021
   8.2430935   1.8225722  71.2043524   9.1175789  12.7288282  90.8551121
   9.7002488  12.3118198  90.2204227   9.2216474  13.6668789  90.6955433
  75.4974699  21.8223143  84.4836521  76.3036203  21.3197803  84.3661404
  75.7954121  22.7097440  84.6834755  98.6036587  97.2754955  67.9654264
  99.3410873  96.7431831  68.2638550  98.9755630  98.1476212  67.8338194
  47.7554035  49.5400143  62.9273653  48.6687040  49.6516466  62.6634550
  47.7066803  49.9388170  63.7961626  79.6333694  92.1829128  80.1882839
  80.4548168  91.9843102  79.7388268  78.9842796  92.2394848  79.4870615
  36.1414742  21.3546777  40.5556822  36.6692495  20.5868769  40.7751465
  36.5159988  21.6763091  39.7356105 103.3237553 104.5463562  55.2859879
 102.8631687 103.7833977  54.9367285 102.6266193 105.1398659  55.5652285
 106.9964314  11.3626587  91.0675621 107.5673389  11.0180640  90.3808689
 106.1507797  10.9432340  90.9088421 107.7531242   4.4714269  94.0971661
 106.8502331   4.4827941  93.7795353 108.2850933   4.5963082  93.3112717
  89.4413948  85.7766151  55.6466961  89.8924255  84.9335289  55.6018019
  88.5675716  85.5996227  55.2983665  47.1518993  20.1660562  62.4190855
  47.4378347  21.0770822  62.4862051  46.5689087  20.0421977  63.1680918
 101.4753246 105.5407619  59.1124964 100.5898666 105.2504158  58.8936520
 101.5837383 105.3052521  60.0339127  75.8366203  50.6395149  13.8453197
  75.4359198  50.6901169  14.7131407  75.5627823  51.4455795  13.4077013
 110.5200005  94.3543339  92.8563786 110.7544899  94.3269634  91.9287491
 109.7320175  93.8146687  92.9202652  23.3105302   5.8570039  67.9533768
  23.3673978   6.0386533  68.8914633  24.2150474   5.9077162  67.6443338
  21.1646533  31.5230465  59.2551661  21.0533524  32.3535371  58.7924242
  20.4360199  30.9808922  58.9528513  32.9614592  12.0313680  90.8543110
  33.1673813  12.1984684  91.7740345  32.2427654  11.3996935  90.8807182
  81.6646957   4.5134896  44.9602509  82.2068882   4.8546171  45.6715155
  82.1805763   3.7984788  44.5876026  83.6372948 108.5474300  88.1526661
  84.1443729 107.7356339  88.1432247  83.9611816 109.0232563  88.9174747
 113.1407928 105.3845024  70.0187492 113.4668732 104.7469330  70.6538868
 112.2586823 105.5967903  70.3237629  11.8162978  28.1304049  68.0429316
  11.3586175  28.8801599  68.4232330  12.6117420  28.5030842  67.6626539
  94.8734951 106.4549446  66.7834377  94.3773556 105.8812714  66.1995029
  94.9613857 105.9534931  67.5940228  95.2894306 102.6212883  88.3190727
  94.3412495 102.7248383  88.3994102  95.6210995 103.5145950  88.2283974
  97.7781010  74.5370865  87.8530216  98.2886028  74.2428541  88.6073780
  97.6312351  75.4694700  88.0121613 104.8176861  28.8231611  67.0054770
 104.9680519  29.6747470  67.4158764 103.9085197  28.6121273  67.2178507
  23.9942575  15.1566672  68.8140631  23.1452322  15.1272142  68.3730221
  23.9300346  15.9049213  69.4075489  86.9339085  77.7787113  34.7906423
  86.3196182  77.1284151  35.1312208  87.1758652  77.4493694  33.9250660
  28.8064575  21.9405937  76.4847231  28.5884047  21.0300756  76.6838217
  29.1420174  21.9160795  75.5886030  44.7855043  91.9404221   6.2564397
  43.8934422  92.1758461   6.0014099  44.7417831  91.8298244   7.2062230
  68.3038330 108.9053535  68.1341124  68.8376808 108.8853359  67.3398590
  68.9384031 108.9725304  68.8475847  50.5118799  49.7208071   4.4298387
  49.5772219  49.5463276   4.5403171  50.9322739  49.2298174   5.1358348
  65.2980709  25.4073954  58.9086771  64.8106766  24.9592495  59.5999432
  64.9337149  26.2924123  58.8938761  19.9654353  14.8467839  64.8841286
  19.6870029  15.3031564  64.0901327  19.3077946  14.1628194  65.0103617
  42.7159548  35.0169110  89.2638969  42.7309656  35.2039742  90.2025223
  42.4755573  34.0920877  89.2078018  45.9590197  30.9012198  91.6766167
  46.5637589  30.1685119  91.5597248  45.7327080  31.1693954  90.7860565
  14.2608523  21.9247675  65.5048227  14.0431368  22.6899552  66.0370970
  14.5799983  21.2781048  66.1342669  91.1769867  77.5969648  92.0744038
  91.5564156  76.7839909  92.4080753  91.9312954  78.1610727  91.9039917
  15.3618515  25.8052826  58.2920170  16.2347090  26.0894513  58.0207253
  14.9201965  25.5747890  57.4746799  43.6991644  35.6848717  46.2915039
  43.1199265  35.3632808  46.9823694  43.2928801  36.5006280  45.9987450
  35.3145576   8.3050424  53.0703735  34.5426941   8.8711029  53.0646753
  35.9328365   8.7489438  53.6508179  49.6959877  35.7554412  54.7993135
  49.0230131  36.0670877  55.4044676  50.1056480  35.0199509  55.2548027
  18.1962943  22.1600509  86.4522076  17.8375125  21.7029119  87.2128201
  17.4865139  22.7317214  86.1595726  57.0598745  36.3731313  60.8561134
  57.1656084  35.4713130  60.5531693  57.9520369  36.6740441  61.0285139
  60.8178473   4.5978236  62.5553989  61.2495565   4.6360528  61.7019367
  60.5136633   3.6932835  62.6296377  65.9129190  74.9690437   7.6076251
  65.8999777  74.1628122   8.1234288  66.2350082  74.6982098   6.7478955
  91.8400764  49.4250536   4.9035254  91.0617638  49.4308567   4.3463644
  91.5637016  48.9652777   5.6962794  31.0325003   6.3254893  76.0898781
  31.7944527   6.0129786  76.5777302  31.4025211   6.7780405  75.3319168
  51.0163116  40.0357914  86.7393398  51.9058418  39.9128032  87.0707703
  50.9418821  40.9794998  86.5975571  51.5385342  38.3919978  47.6724625
  50.7603693  37.8379059  47.7330446  51.8363857  38.4863806  48.5772324
  20.8851719  80.4061699  73.9496708  20.8914590  80.5432320  74.8969841
  19.9580944  80.4198933  73.7118244  46.1231089  27.1931243  70.3596020
  46.8512917  26.7254853  70.7686186  46.1443186  26.9154191  69.4438171
  40.9742403  29.5937324  75.5888176  41.8696260  29.2581797  75.6326580
  40.8123589  29.9586701  76.4587831  32.8246880  22.4222708  74.8472738
  32.9430962  22.8570104  74.0027523  32.3527813  23.0611563  75.3814602
  14.7507119  33.3759451  64.0655613  15.4034877  33.8671732  63.5667562
  14.9361658  33.5910034  64.9796677  59.0223265  33.6109614  62.7140522
  59.7713184  33.0183125  62.7773666  58.8320637  33.6572504  61.7770958
  16.0085809  26.4181352  80.5023670  15.2767146  26.4180517  79.8854303
  16.4692378  25.5974722  80.3276157  34.8120236   6.0728651  93.4506226
  35.7341290   5.9393293  93.6699867  34.3879867   6.2432557  94.2916965
  49.6186018  32.8185153  83.2540894  49.6620321  32.9849052  84.1957092
  50.3445053  32.2184420  83.0831718  99.8720741 107.3113823  65.9090090
  98.9674664 107.5869083  66.0573435 100.1957989 107.9063034  65.2326155
  19.8857534  30.4400253  85.0649452  19.4859874  30.9272289  85.7853985
  19.5006394  30.8206749  84.2756271  76.1441517  22.7353668  53.7019968
  76.6621017  22.0164800  54.0641594  75.3284740  22.7187991  54.2026329
  62.1568108  41.2174177  62.8838968  62.4231100  41.4586258  63.7711048
  61.5104723  40.5224562  63.0084324   6.3150960  20.8086824  64.9572182
   6.0411608  20.1838088  65.6285810   6.8707323  21.4331293  65.4236603
  17.8044164  26.9108987  76.6056156  18.6567402  26.6297960  76.2728119
  17.9698801  27.7709675  76.9917917  97.3675251  70.5804777  19.5434296
  97.4928379  71.5204859  19.4134116  98.1737995  70.2878666  19.9683154
  55.2462435  37.4363232  51.9749260  55.4871511  36.5860224  51.6072512
  55.2579355  37.2996354  52.9222441  16.9143581  12.8771424  71.1671543
  16.8023252  13.3418655  70.3378677  16.3974416  13.3809769  71.7957878
  16.2891436   7.1756399  72.8883791  16.0724878   6.4928257  73.5232449
  15.5575180   7.1696931  72.2711897  61.4229965  34.3515515  81.1641502
  60.9523678  34.6414137  81.9456387  62.3361254  34.5821834  81.3351440
  22.4913859  23.7022209  83.8970089  21.5387225  23.6793685  83.8067627
  22.7244711  22.8243971  84.1992092   4.3927160  41.4269161  87.3139000
   4.9146232  41.2988949  86.5217781   3.5940719  40.9226465  87.1586227
  19.2158949  33.4911871  79.1166830  19.6141553  33.5696602  78.2498121
  18.2767868  33.4249496  78.9437103 101.6187954 107.6988411  85.1123905
 101.4630508 108.3582115  85.7885551 101.2311268 106.8978786  85.4650974
  39.1972232  36.5721083  85.2588177  39.6352291  36.5960121  86.1095905
  38.8691068  37.4625039  85.1332569 112.9930496  20.1814127  50.4742861
 113.6131763  20.4870296  49.8122692 112.9750252  19.2306650  50.3648043
  54.8616171   7.0347327  76.3691950  55.7268620   7.3733789  76.5991926
  55.0413179   6.2433600  75.8615828  46.4451504  42.2623777  62.1079350
  47.1780014  42.0286751  62.6776218  45.8695555  42.7894163  62.6621580
  31.5894318  23.7849855  68.2785988  31.0422897  23.3219099  68.9129734
  30.9745955  24.0968084  67.6145411  18.0588889  31.9914436  87.0089817
  17.2529733  32.4867678  87.1552181  18.6575449  32.3021102  87.6881981
  93.2137871 105.8303165  23.8647485  92.9078388 106.2107468  24.6880937
  93.5618687 106.5736008  23.3722043  42.4573326   2.8610551  29.5225453
  41.6267824   2.3852383  29.5271349  42.7721071   2.8021300  30.4245853
  49.7816944  70.7311487  59.7624159  50.0813770  70.9802580  60.6367016
  48.8268566  70.7718849  59.8158789  40.0467920  36.8349266  43.7437534
  39.9978018  37.7828979  43.8669729  40.8732557  36.6959047  43.2812977
  93.9076805  88.7624931   0.1288682  93.3775043  88.8302231   0.9229423
  93.3670235  89.1584587  -0.5546037  80.4049301  55.3812742   5.3886926
  80.2547836  55.1021814   4.4854799  79.7317791  56.0423613   5.5501485
  56.4220572  80.4377651  13.6874199  57.2426033  79.9459839  13.7204123
  56.5689421  81.1039829  13.0159998 110.2039242  78.1532764  49.9673223
 110.2644348  78.6939287  50.7548904 109.6185398  78.6399889  49.3870831
  18.7630486   1.8688256  68.9925718  18.1252611   2.4574810  68.5889101
  18.3286047   1.0159613  69.0032244  71.5515900  62.6415348   1.8162180
  70.9482908  62.3085308   1.1518618  71.6254759  63.5766268   1.6255024
  97.7448082  26.3566756  76.6221619  97.2410870  25.5558157  76.4768696
  97.8764915  26.7190647  75.7460546  47.3415804  33.4708118  33.9109159
  47.7406836  32.6008058  33.9169383  48.0026436  34.0403080  34.3044949
  57.2310019  34.2109108  73.3768415  57.1207809  34.9544406  73.9695024
  58.0560255  34.3857694  72.9240799  70.7277632  83.0815411   0.7978898
  69.7787571  83.2021332   0.7651268  71.0160065  83.6440849   1.5167062
  75.9047222  91.0534763   2.4884838  74.9634075  91.1032677   2.6548398
  76.1258316  91.9031334   2.1071397  50.4799604  31.5533447  16.3504267
  49.9577761  32.2762156  16.0025597  50.8732224  31.1482906  15.5774403
  21.4456797   2.5585356  46.3918734  21.9058585   2.7508655  45.5748844
  22.1404862   2.4817427  47.0457697  27.2970366  16.9326115  70.4771757
  26.7286348  16.9918394  69.7092962  27.6394463  17.8192377  70.5906677
  53.9392614  34.7086978  64.6569920  53.6389828  34.6916723  65.5657101
  54.7315073  34.1715002  64.6564293  15.3902936 106.7711258  36.6186976
  16.3391149 106.8094254  36.4982700  15.1690209 107.6002693  37.0427155
  57.6888466   3.8787362  44.1521931  58.4630966   3.3374488  44.3063784
  57.6469135   4.4588482  44.9124193  41.8551159  11.3429415  39.0294933
  42.5093651  11.9464540  39.3815756  42.3375416  10.8076358  38.3994579
  40.2837181  30.3523922  88.6584568  40.4251003  29.4880748  88.2721901
  39.8608971  30.8585167  87.9647064   0.7673092  24.1061449  50.7325459
  -0.0648420  23.6483645  50.6134081   0.7149881  24.4722986  51.6154003
  41.7207193  16.1543870  70.3254795  42.1749210  16.8277943  69.8190641
  41.5954304  15.4339516  69.7078180  52.4379015  44.3739605  14.8272479
  52.6073647  44.9322510  15.5860806  53.1693745  43.7566662  14.8159277
  34.2006660  26.8504119  78.3708668  33.9099598  27.2996902  79.1645098
  34.6132731  26.0470104  78.6879301  45.0245142  28.1075835  66.2946987
  44.9764156  28.1317163  65.3390169  45.8529520  28.5390925  66.5037918
  44.5335627  45.7305622  79.5505285  45.0648022  45.2249050  80.1656055
  43.6542797  45.7201529  79.9286652  65.3760481  67.2621536   5.5470937
  64.8381090  68.0537701   5.5329901  65.3800869  66.9591093   4.6391410
   1.9068521  98.3655357  67.2286320   1.2330850  97.8484535  67.6700974
   2.6030010  98.4572220  67.8791714  43.0362654   3.4492767  91.7276382
  43.0317259   4.1236860  92.4068832  42.2125196   3.5775214  91.2572861
  20.8208013  23.5727310  58.3925438  20.9382081  23.6034012  57.4430656
  21.4476371  24.2114615  58.7321472  59.8577595  63.9071846  18.5991633
  60.8136225  63.8715506  18.6350489  59.6400595  63.6112070  17.7152884
  35.9009838  47.7679777  81.6079807  36.8263626  47.5233173  81.6148090
  35.4337287  46.9357252  81.5354919 115.0823784 102.6566792  77.8958845
 115.7394409 102.4295616  77.2379255 115.5739117 103.1165409  78.5764456
  54.8575783  22.0905113  78.5102224  55.7773590  21.9104958  78.7047100
  54.7807407  23.0423641  78.5758400  14.5562816   7.5808895  56.4157009
  15.1349044   8.0996644  55.8568621  15.0065613   6.7418694  56.5132952
  57.6332378  39.9584413  56.9328022  57.6624727  40.7084703  57.5267982
  56.9905329  40.2046633  56.2675714   9.9968117  39.2033982  79.5459652
   9.6819174  38.5681725  78.9028788  10.7126951  39.6584225  79.1024637
  37.4936152  56.5393972  87.0254993  37.4937057  55.7541084  87.5728130
  36.8283582  57.1047783  87.4179459  28.4723759  48.1371450  75.4791355
  29.0726900  48.6281681  74.9181128  27.6530457  48.6307335  75.4430771
  26.5810466  13.0665803  68.8403273  26.6169310  12.1238518  68.6784410
  27.1109676  13.4499502  68.1414366  54.6812916  38.0896473  79.9436808
  53.8041353  37.8045845  80.1997375  54.8672199  38.8348794  80.5148983
  38.0807781   4.2042929  29.6156335  38.6772799   4.7721562  30.1034355
  38.3698058   4.2782488  28.7061143  42.6521111  45.7739973  68.3537865
  42.1633720  46.5443754  68.0641556  41.9793224  45.1176453  68.5348558
   3.9423665  71.7678499  72.2973394   3.7050110  72.6829576  72.1474171
   3.1408694  71.2788916  72.1109200  20.4041028  59.1687584  71.6819239
  21.3366413  59.3660307  71.7696047  20.2072453  58.6047602  72.4298429
  43.3665228  19.2673016  72.5832176  42.5129080  18.8342392  72.5775719
  43.5798120  19.3641758  73.5113096  62.8358603  93.5881424   1.5081128
  63.3121824  93.8153076   2.3067012  62.2865772  92.8457451   1.7598374
  21.2194514  31.6800642  79.5000172  20.4503989  32.2492361  79.5288706
  21.1213970  31.1062551  80.2598572   9.6701765  31.3249421  71.6327953
   9.3741441  31.0928822  72.5129890   9.1463286  32.0909238  71.3980913
  90.3042793  75.3909445   1.0391824  90.4615879  74.7704887   0.3274812
  90.6333256  76.2258530   0.7061735  50.4954004  11.4877117  80.2339935
  50.8772373  11.6838837  81.0895348  49.7334766  10.9428394  80.4310131
  33.3851457  54.0480518  71.5405989  32.4965596  54.4039106  71.5374565
  33.6059117  53.9632559  72.4681234 107.5713634 107.1512222  65.1834011
 107.5208473 106.6706371  64.3571329 106.8194675 106.8403625  65.6876421
  36.5471578  32.1176314  76.3246489  35.6209326  32.0439315  76.0946369
  37.0103669  31.9912791  75.4965734   6.7845917  20.4997873  31.2969017
   7.6481378  20.1257253  31.4718223   6.3996685  19.9176943  30.6417418
  30.6832838  15.6606817  89.9379444  31.2430072  15.0266182  89.4897270
  30.3361320  15.1831782  90.6914043  11.3198566   7.0350438  65.7856989
  10.6626105   6.5292239  66.2636185  11.4277220   6.5662432  64.9581575
 105.4488850  24.3431020  73.6054468 104.9302673  24.9003553  73.0251551
 105.5829811  23.5371637  73.1067371  40.5282593  32.0665121  83.6287880
  41.1443424  31.3340545  83.6422729  39.8651004  31.8099213  82.9879951
  68.0336714  85.3999233   4.7846285  68.7855816  85.9528351   4.5721668
  67.9764175  85.4301071   5.7396376  35.3564262  27.1049714  74.5056868
  35.7236362  27.3540044  75.3538418  35.5873752  27.8284001  73.9229822
   5.7660139  50.5682278  82.5836086   5.5214167  50.1484394  83.4083462
   5.5317193  51.4883995  82.7045155   9.2182994  58.4693766  50.7399130
   9.0757459  59.3438625  51.1021137   9.9287778  58.5844040  50.1088619
  54.8704386  39.8157096  68.9632845  54.6778059  38.8795114  68.9117527
  55.7557154  39.8979568  68.6086655 115.4723644   3.3472329  72.1424770
 115.3301620   2.9185236  72.9864073 114.8880959   2.8880784  71.5391207
   5.9691221 102.2066307  55.0620031   5.8365822 101.5070915  54.4222355
   6.6232461 102.7781773  54.6598959   7.8146756  14.5590222  76.5590000
   7.2447270  15.1307642  77.0732927   7.4792635  14.6277392  75.6651258
  38.1074977  33.0875492  63.0364466  37.8870463  32.8389549  62.1387625
  37.2611380  33.1829572  63.4732628   9.9894267  11.5318894  82.5830555
  10.4371107  12.1796691  83.1272984  10.5646503  11.4157736  81.8268394
  29.0401340  50.6654024  61.1403704  28.7406802  49.9805307  61.7382956
  28.4872890  50.5652952  60.3654051  74.7046471  72.4724436   0.7330777
  75.0089025  72.5490236   1.6373998  75.4556131  72.1181202   0.2569092
   2.6271415  38.0751586  29.0267634   2.0589566  38.3918262  28.3245373
   2.0563826  38.0278611  29.7937250  28.0312443   1.6649318  40.0972700
  28.4990692   1.5511027  39.2699766  27.8669381   0.7732751  40.4041624
  49.6264458   0.2952713  53.1489992  48.9625740  -0.3659208  52.9532194
  50.2348232   0.2495663  52.4114227  11.0516119  37.5995088  81.7800808
  10.1735353  37.4266171  82.1196747  10.9026945  37.9941559  80.9208393
 115.6626987  79.2945385  31.6078019 115.1955891  78.5210657  31.9236755
 115.7562828  79.1499090  30.6662297  13.9029026  16.4853787  60.8837986
  13.9032376  15.9657192  61.6876554  13.7325239  15.8503425  60.1881456
  41.8837309  32.5240302  89.7903728  42.4924612  32.1373892  90.4198170
  41.2735987  31.8166327  89.5816803  36.4994502  16.9946849  39.6109152
  36.5143943  17.3715460  38.7311506  35.9304619  16.2288308  39.5337772
  64.7738028  81.7445374  15.0126338  65.1435518  81.1589336  14.3518794
  64.6997070  82.5895882  14.5692086  16.2700820  10.0902081  86.6127872
  16.1266851   9.7392195  85.7338810  16.8229568  10.8595610  86.4761925
  40.0528574  41.3734961  56.8808651  40.3941011  40.6897116  57.4572515
  39.5241928  41.9283533  57.4543428  20.9166169   5.8435512  57.1897745
  20.2624846   6.1214781  56.5486050  21.5127897   6.5889138  57.2622061
  90.9557438  98.6772251  47.9177904  91.4688873  97.9071426  47.6730824
  90.1939678  98.3218288  48.3756351  30.3507423  47.7362490  59.9094057
  29.4814348  48.0522108  59.6630192  30.4334712  46.8921900  59.4656134
 100.5051804   8.5565025  11.7134738 101.0110378   9.0887594  12.3275125
  99.6918011   8.3617651  12.1789956  63.3335114  73.2412720   5.7773477
  63.3411074  74.1679430   6.0170335  64.0094709  73.1624317   5.1042223
  97.1959877  90.8290768  72.8305435  97.6415062  90.7995129  71.9838619
  96.2674046  90.9024429  72.6101398  41.7771959  32.0218349  64.1417408
  41.1023235  32.7004576  64.1575527  42.0892572  31.9732904  65.0453424
  10.2822709   9.4932252  48.2772684  11.2177324   9.3736672  48.4411240
   9.8785728   9.4392914  49.1434956  20.3459167  47.1515322  72.8688240
  20.0009513  46.4261150  72.3482418  20.0808454  46.9496632  73.7661648
  32.7772021  21.1725640  66.8554115  33.4457779  20.4875922  66.8483114
  32.5059223  21.2329865  67.7713728  13.5957789  36.0391521  53.8312674
  12.6554489  36.0752225  53.6560297  13.8981521  35.2643132  53.3575344
  17.8075981  13.1564879  65.6105375  17.3277235  12.7352488  64.8974419
  17.8821337  12.4786687  66.2822819  47.1891880  55.1294088   4.7928044
  47.0065975  55.0520897   3.8563669  47.0532179  54.2466545   5.1370275
  12.5441742  49.6404219  65.6953669  11.8760645  49.7045851  66.3778210
  13.3749235  49.6701479  66.1699247  41.1773491  28.3444190  61.1524630
  40.7146692  27.7721453  60.5403662  41.9702291  27.8593779  61.3811588
  64.6077108  33.8282013  53.1582165  64.1828012  33.9224529  52.3056889
  65.3263664  34.4601750  53.1388187  46.6519451  20.1526070  79.8169947
  46.9978189  19.4871724  80.4118061  47.3574018  20.7949662  79.7399712
  46.3657951  10.4842579  52.3227835  45.5586481  10.1305687  51.9490814
  47.0656443  10.0586772  51.8274832  62.9391623 108.0905533  79.2462778
  61.9892836 107.9900169  79.1841316  63.0715799 108.6441326  80.0158596
  18.4332430  30.8600187  35.6061292  17.6805127  30.7803726  36.1920333
  19.1211367  30.3457403  36.0286832 111.0085297  18.6850786  80.7572269
 111.3860798  19.4187582  81.2424088 111.6262627  18.5267758  80.0433826
  51.5660954  21.8937564  70.8743811  51.3119078  21.4767003  70.0511646
  51.5654373  21.1815453  71.5138960  19.5518267  33.5820198  61.3565826
  19.5125306  34.4984841  61.6300392  19.6834135  33.6201715  60.4092407
  29.0704775   7.4099141  77.6805019  29.5096183   7.4724656  78.5287189
  29.7090697   6.9804823  77.1112728   4.6804526   5.2773929  70.2350903
   5.1976049   6.0509396  70.0105667   4.8587245   4.6567488  69.5285130
  51.6581106   4.2926428  87.6129627  50.9717417   4.9245954  87.3990345
  52.4704838   4.7968546  87.5676823 112.8883553  87.1873474   1.4171284
 112.2036552  86.7172718   1.8929920 113.6682415  87.0926571   1.9639672
  22.2901797  21.9113994  43.0848265  22.3257661  21.1760449  43.6965609
  22.4744344  22.6805735  43.6239481  51.5664387  44.3443155  26.5378857
  51.4130974  43.4927368  26.9471908  52.4644327  44.5689583  26.7815638
  46.0872269   5.1493657  61.7258358  45.7852745   5.8456022  61.1424732
  45.8534527   4.3391722  61.2728786  33.2649398  29.9563789  88.5740948
  32.6693296  29.2834353  88.9036846  34.1313529  29.5519042  88.6183834
  93.3550358  63.7758493   4.4065470  94.1950893  64.2112398   4.5513999
  93.2941628  63.1319714   5.1121974  37.2575808  46.5901756  55.8574057
  37.1609449  46.4890432  54.9104786  36.5722418  46.0346460  56.2287903
   8.9168447  34.0442228  63.5848904   7.9807001  34.0070462  63.3887196
   9.2197675  34.8447061  63.1562948  48.0047560  24.7461319  65.8642769
  48.6953449  24.1603875  66.1744738  48.4705162  25.4376101  65.3940058
  71.7994452  34.8159981  89.3368340  72.2620678  35.2584100  90.0485039
  71.2033224  34.2110229  89.7782803  28.1059647   6.6725463  73.6476135
  28.4269285   5.7774842  73.5377121  27.5312233   6.8149298  72.8955269
  77.0208693  86.4465332  92.5514317  76.8259430  86.5087032  93.4865093
  76.2576771  86.0070992  92.1763706  63.3865452  37.7915931  43.9317417
  63.7507105  38.6766577  43.9151001  64.1313076  37.2224712  43.7376785
   3.8659796  48.1408453  49.5774174   4.0784499  49.0104198  49.9164343
   3.5019726  47.6731062  50.3290510  91.7086887  80.6072044  32.4773049
  92.4472713  80.0246429  32.3002791  91.9227123  81.4142990  32.0093107
  27.2352386  45.3952456  55.8056164  26.6028047  44.9816370  56.3931465
  27.0659542  44.9961424  54.9522209  31.4836717   8.8811147  63.3116150
  31.5136480   9.5067739  64.0354156  32.3971844   8.7804574  63.0440474
  45.5791235  19.6428359  64.8674774  45.3494072  18.7136173  64.8633718
  45.3812742  19.9345386  65.7574224  36.7370629  18.2635581  19.6685886
  37.3257422  19.0046811  19.8114944  36.8868899  17.6902544  20.4203248
  21.8973088   5.1931572  59.7908497  21.5547156   5.2029949  58.8971138
  22.6906705   4.6602875  59.7373867  51.4190388  89.4129086   9.8762751
  52.2039270  88.9760303   9.5456380  50.9095049  89.6159554   9.0918130
  28.3718133  31.3181257  88.7431622  27.7526951  32.0480323  88.7558842
  28.9593673  31.4895725  89.4791126 101.2151146  78.8714552  10.5036259
 102.1613503  78.8665438  10.3592765 100.9463215  77.9639578  10.3607249
  36.6134882  50.8494425  62.1290779  37.2913432  50.2059269  61.9225979
  36.5855241  51.4221716  61.3626337  25.8271861  55.9610271  43.0852270
  26.0898137  55.7675934  43.9851379  26.2546659  55.2843428  42.5602579
  85.4689693 106.7144775  76.2526894  85.5260849 105.8101845  76.5612698
  84.7967911 106.6931152  75.5715466 104.9358845  17.3531020  83.3946896
 105.3052807  18.0101347  83.9846802 104.9227619  17.7805293  82.5383186
  27.4990797  16.7684174  27.4579239  27.6119709  16.9557500  28.3898020
  27.5876856  15.8175874  27.3923135  40.1349068  10.2534103  73.1455421
  40.6911325  10.9937358  72.9031277  39.6809602  10.0196803  72.3358917
  35.7865024  21.9739866  47.1943760  35.2774096  21.5622568  47.8926134
  36.6186261  22.2034764  47.6080656  52.8413868  14.8684466  85.5301189
  52.6213789  15.6974876  85.1052380  53.6618090  15.0454831  85.9903240
  38.2329631  56.9049644  79.0186501  38.0503273  57.1794319  79.9172831
  37.5007772  56.3325548  78.7895489  15.0631070   3.1353784  77.3499632
  14.3787074   2.5710717  76.9902611  14.7402215   3.3805349  78.2170725
  57.9235935   1.8720078  81.9943237  58.7241554   1.3554345  82.0864105
  57.4655390   1.7543033  82.8265285  34.2864513  30.5042624  79.2228031
  34.0224552  31.1441374  79.8839331  33.8353395  29.6987414  79.4755220
 107.7299976  37.0195103  48.5615683 107.4056244  36.2466502  48.0992842
 107.8438091  36.7274117  49.4659805  48.8188887  48.2692814  58.3565521
  49.4814110  48.9227438  58.1323147  49.1388607  47.8719568  59.1664791
  21.6231871  55.4449368  70.3209829  20.9997392  54.7231913  70.4024029
  22.2125053  55.1741123  69.6170044 110.0046253  41.2729120  85.4394150
 110.8787441  40.8960438  85.5400562 109.8225021  41.2084723  84.5019150
  32.2754097  14.4590116  61.4001560  31.7476034  15.1155055  61.8547630
  32.9534149  14.9649882  60.9523487  14.7817969   1.9686985  66.8546057
  14.8841143   1.0505169  66.6041946  13.9607203   2.2390066  66.4435101
   5.4297185   6.6752821  48.2498646   5.0853425   6.7988420  49.1343832
   4.6594882   6.4718598  47.7192116  65.7868528  30.9001994  57.1095753
  65.8871555  31.1073208  56.1804485  65.6908369  29.9481344  57.1337223
   3.5448891 100.5910301  74.9356937   4.0929663 101.3396072  75.1712084
   3.1812868 100.8200741  74.0803766   5.1406872  32.5294471   0.2366064
   4.7887829  33.2863855   0.7050483   5.9710324  32.8373861  -0.1266184
 104.3203640  14.9399745  72.3842001 103.6936283  14.5037103  71.8070412
 103.9000893  15.7696176  72.6106834  36.7885232  85.8157349  10.5880320
  36.6647387  86.7643642  10.6198978  37.5706339  85.6941986  10.0497365
  12.8675008  48.2985973  61.1527824  12.2236145  47.9561520  60.5328035
  13.7088323  48.1879997  60.7098818  34.2919326  47.2910929  66.3034010
  34.8169923  46.6498423  65.8245039  34.2480850  46.9465685  67.1953726
  26.4830828  20.0421143  86.2566376  25.7583451  20.6241131  86.4852524
  26.7709470  19.6778524  87.0936966  21.6286850  58.5214138  91.9653320
  22.2917366  58.7597370  91.3174057  21.8902588  58.9886713  92.7587223
  41.1727619   1.7405982  48.6408663  41.3948727   2.5523990  49.0968037
  41.6947031   1.0688911  49.0797472  49.1726732  51.8359709  41.3331079
  49.4491386  52.5390577  41.9208765  48.7085199  52.2837210  40.6257772
  13.9232159  47.0034790  54.7403002  13.1202972  46.9916534  54.2193270
  14.6179962  47.1785927  54.1055965  32.5097299  21.3179588  54.1830349
  32.0485163  20.7510233  54.8011780  32.6372290  22.1382380  54.6596050
  71.9384098  81.0109138   9.6415174  72.1997881  81.8545151  10.0106370
  72.7641964  80.5783367   9.4242895  47.0748711  40.2083349  89.0031433
  47.3677540  40.7689190  89.7216129  47.8752947  39.7935915  88.6813641
  80.4741573  90.1230049  23.1910515  79.7694016  89.4793892  23.1181502
  80.1089764  90.8169174  23.7400007  37.8320289  32.1641159  67.2524166
  37.9999614  31.4964938  66.5873528  38.6837506  32.5755191  67.3992157
  16.6549468  62.4211502  71.9302034  16.7671597  62.4581718  72.8800821
  15.7310259  62.6283264  71.7899179  31.7463660  50.1672125  67.5208664
  31.9090390  49.3890810  66.9876862  31.0290551  50.6174994  67.0748425
  45.9807491  57.2949791  68.3615160  45.0772858  57.1640968  68.6493540
  45.9838963  57.0131588  67.4467516  27.4707127  21.9209933  93.4725857
  27.3612261  21.0539365  93.0821228  26.5775728  22.2410321  93.5995007
  36.9904733  38.7762165  55.9760094  36.1871219  38.4906840  55.5408907
  37.5086856  39.1810727  55.2804708  32.5836182  12.3686552  68.1242847
  33.1495690  12.0428348  68.8241196  31.8986726  12.8589821  68.5788774
  93.5150623  41.3649988  20.5744958  92.9187679  41.7417669  21.2215710
  93.7361622  40.5025959  20.9260869  23.2576084  52.9338312  73.5544395
  22.4332500  52.8285885  73.0794811  23.0124354  53.3836937  74.3629837
  29.3173885  35.5444670  60.4848480  29.1240263  34.6304774  60.6933355
  29.9672461  35.8065677  61.1369371  22.1619201  36.6104078  64.4060421
  23.0257201  36.6454625  64.8169565  21.6680956  35.9875417  64.9393415
  43.1709337  67.4836063  64.4597721  43.1314087  66.7156601  65.0297928
  42.6513910  68.1465006  64.9146128  16.0172248  15.3897536  72.2943783
  15.7436562  16.0037839  72.9758215  16.3705420  15.9450817  71.5993929
  46.6628408  62.3894405  82.3106384  45.8770466  61.8746090  82.4942207
  47.1102619  61.9045591  81.6171360  63.5231304  16.6928434  88.0267239
  64.3887520  16.4447308  88.3513260  63.5017967  16.3658047  87.1273708
  31.9617605  42.6646662  88.3213425  32.4202967  43.4467220  88.0141449
  32.6604605  42.0516539  88.5499573  36.3477540  18.6663961  74.7942162
  36.1127424  18.6428249  75.7218170  35.7569432  19.3164194  74.4138956
  48.1258583  33.2939053  65.4637909  48.6096907  33.9535689  65.9607649
  47.8796482  33.7381768  64.6524715 101.2896919  18.8030756  56.2128878
 101.2844372  18.3200479  55.3865194 100.7418251  18.2809865  56.7989731
  23.2848144  59.3891478  72.4838829  23.5798955  59.4876432  73.3891201
  23.5045886  60.2229309  72.0682621  46.6046476  39.6573353  60.6660795
  46.4177608  39.8627996  59.7500610  46.4462090  40.4779148  61.1327410
  60.7866430  41.4848948  49.7674513  60.7701015  41.4850235  50.7245111
  61.1063385  42.3562193  49.5333147  35.2169108  63.5462475  57.1138000
  35.6982541  62.9510117  56.5391350  35.8221889  64.2714500  57.2685671
  14.9487960 106.6813183  47.2553492  14.7989726 105.7494259  47.4145937
  15.8161080 106.7189884  46.8521357  57.0258474  22.0620322  48.6674547
  56.1732483  22.4966359  48.6881971  57.3944426  22.2161078  49.5373011
  35.6234455  49.7659111  65.8917046  36.4700556  49.3215656  65.8465385
  34.9990630  49.0710258  66.1003113  40.3465796  30.4989314  48.7477636
  39.7935796  29.7188020  48.7904263  40.5713558  30.6833458  49.6597385
 109.3723869  26.1392117  69.5603418 109.0635967  25.6956005  70.3503323
 108.6774826  26.7624784  69.3484974  55.5295515  42.0767307  52.9039192
  55.9367228  41.7749691  52.0918894  55.4480791  41.2871265  53.4388256
  36.3723421  45.6032991  64.7255611  35.7740569  45.8984280  64.0391350
  36.2223125  44.6597767  64.7846460  20.0036359  32.0293736  67.8809214
  20.2890134  32.6132917  68.5836506  20.5338120  31.2405920  67.9947996
  23.7519908  28.8284802  42.8568268  23.1661844  29.5732474  42.9924107
  24.6251154  29.2171216  42.8035307  44.0380859  38.6177135  61.7412710
  44.5535707  37.9872417  61.2382698  44.0813541  39.4252658  61.2291956
   2.4720103   8.2237512  63.5138178   1.7513210   8.3585590  64.1291761
   2.3282185   7.3438001  63.1656218  10.2801299  24.7203326  60.2843428
  10.6489849  24.0109921  60.8106661   9.3799406  24.4458055  60.1096296
  11.0699332  60.5241060  40.5129194  10.7321513  61.4007807  40.6961679
  11.9668794  60.6709528  40.2126598  35.8058524  16.8153441  63.0732822
  36.1653733  17.5669479  63.5445213  35.9589696  16.0716462  63.6561203
  43.6119747  25.7427549  70.7065678  43.6046314  25.2874351  71.5485096
  44.3744898  26.3195205  70.7528305  71.8533707  74.4484949  14.0231812
  72.3418379  73.6795712  14.3170953  72.4719763  74.9295044  13.4734607
  18.0656159  53.6088371  52.9493332  17.8025138  53.3123112  53.8205862
  18.3463347  52.8118086  52.4996996  58.6050558  24.5012808  47.0268631
  58.3226871  24.9396729  47.8295517  57.8029156  24.1250992  46.6645241
  30.6377816   2.8099230  63.3584595  31.1790299   3.4186515  63.8611841
  30.6638002   1.9954431  63.8606310 112.8538132  36.7989659  82.6126099
 113.1330585  36.9860220  83.5088634 112.1041489  36.2122846  82.7128315
  14.3121374  47.3537731  85.3185558  15.0595891  47.9425669  85.4228210
  13.5465395  47.9128742  85.4508305  57.7111816  20.1272202  85.1586151
  57.5899124  20.7420659  85.8821392  58.5021830  20.4328513  84.7146034
  46.0866833  28.5930800  79.0801144  46.8282127  28.0318928  79.3069077
  45.4249096  27.9902148  78.7412262  26.3337851  56.2161112  48.9772797
  25.4942036  56.6200829  48.7578726  26.9342494  56.5291023  48.3007383
  60.5783892  43.7538719  43.3204222  60.6883240  43.6892748  42.3717546
  59.6971989  43.4172201  43.4828997  64.5107889  28.4693313  84.0465736
  64.1816902  27.9972935  83.2816505  65.4350853  28.2260442  84.0987587
  23.7962461  22.3084831  63.1759310  24.3804598  23.0607057  63.2712698
  24.2678356  21.7110062  62.5955391  30.6318545   8.8454610  38.3537245
  31.0970140   9.2382151  39.0923715  31.3093615   8.7020838  37.6929235
  54.2312765  32.7078366  70.0868225  54.6958590  31.9714451  69.6891785
  54.7633219  33.4729099  69.8681498  39.1117787  48.6258078  53.1946516
  39.7858906  49.1267538  52.7354574  39.2569399  48.8213539  54.1203499
  13.4166515  56.0390663  50.0874805  14.3461430  56.0113716  49.8605156
  12.9662275  55.7751989  49.2851543  24.6370077  89.2231464   0.4038958
  25.5264664  88.9601898   0.6404242  24.2060447  89.3910694   1.2419325
  47.6667738  41.4141417  69.3123150  48.0780220  42.1564484  69.7551298
  48.1544733  41.3234520  68.4936810  48.2030964  29.9696922  87.2174644
  49.1471767  30.0550699  87.3503494  47.8143740  30.3824902  87.9886532
  56.5399075  44.7559261  35.3006721  56.4620399  43.8653278  35.6427383
  57.3983002  44.7757959  34.8775887  24.4340491  26.6396570  73.8257265
  24.9801159  26.0121512  73.3521461  24.8498893  27.4869943  73.6665726
  16.1950493  36.8022585  70.7495975  15.7912910  37.2270417  69.9927855
  15.8403981  37.2712040  71.5049410  39.7208071  30.7412553  60.8626461
  38.7772012  30.6223249  60.9707928  40.1071978  29.9562073  61.2507629
  54.7373676  98.5736179  19.5485532  54.3212128  99.1208172  20.2145958
  54.5366144  97.6766777  19.8158085   2.1370281  57.9717255  74.1045332
   1.8574473  58.7132502  74.6413851   2.5816417  58.3713961  73.3569956
  38.2040739  51.3864374  58.2906246  37.8759623  51.3965702  57.3914766
  38.3844829  50.4635429  58.4693670   7.4256772  86.7505264  76.8832111
   6.8871933  85.9625816  76.8096209   7.0185387  87.2538853  77.5882673
  47.2905540  18.5068023  77.4157286  46.5218687  17.9378748  77.4565935
  47.8190088  18.2500434  78.1714058  49.8570967  14.8267078  67.5127363
  49.4788122  13.9611268  67.3581266  49.6911955  15.3087771  66.7025995
  92.7424240  66.5790272   8.6890066  91.9801998  66.3778543   8.1460804
  92.9968071  67.4636364   8.4263581  66.3664532  19.5202053  48.9047337
  65.5740499  19.8674941  49.3142700  67.0505810  20.1485395  49.1358089
   7.6773190  99.2364502  58.2292509   7.4542594 100.1671791  58.2444763
   7.9978687  99.0525055  59.1122293  13.3368683  11.7552090  59.1012716
  13.6193812  10.9372687  58.6921358  13.2097948  11.5305519  60.0230169
  30.8779907  19.7762585  84.0651321  29.9665713  20.0168490  84.2314529
  31.1135030  20.2619886  83.2746696  58.3884096  15.9278011  82.8693485
  58.7909031  15.3687930  83.5339832  57.5394011  16.1679173  83.2405090
  61.1628628  38.2359004  82.2417641  60.7808685  37.9067254  81.4281559
  60.8688068  39.1453362  82.2936630  50.6876183  48.7446499  55.5722046
  51.5084600  48.5932970  56.0407639  50.9340954  48.7329674  54.6473551
  23.0219078  30.5256104  68.5309696  22.9090142  30.0507259  67.7075815
  23.9690971  30.6332302  68.6174679  20.8095694  39.7687697  70.2125835
  20.8703494  39.4400191  69.3156672  20.5079007  39.0174055  70.7231522
  49.7339725  26.4384437  83.1132126  49.1470146  26.7640066  83.7956429
  50.5785942  26.8432784  83.3105850  10.9747326  14.3462658  64.3576050
  10.9793758  14.4004643  65.3132582  10.2559531  14.9183714  64.0887547
  79.9793816  78.6236382   4.7035015  80.3022385  79.4278717   5.1099598
  79.1220236  78.8612366   4.3503538  40.6836033  57.5714540  64.3836260
  40.3647327  56.6931057  64.1761398  41.0363007  57.4949980  65.2701902
  45.2483177  54.4207191  76.8699217  45.0053358  55.2594471  77.2619963
  44.8535013  54.4405127  75.9981632  76.2602806  63.5432196   3.7919897
  75.5545187  63.9564276   3.2946068  75.8966827  63.4233809   4.6692967
  49.0639353   4.9362960  43.5162449  49.0000677   4.2184377  42.8863001
  49.9297237   5.3141654  43.3618021  55.4119921   9.5297313  44.5800734
  54.7588301   9.1686767  43.9806986  54.9007177   9.8735428  45.3126240
  47.9370499  44.0004063  51.9289064  47.2150803  43.4900475  51.5621328
  48.1302595  43.5756779  52.7646732  14.0620697  54.3464613  66.7552996
  13.2069457  54.1768837  67.1505690  13.9386463  55.1525688  66.2541103
  44.0835905  27.1030521  54.2747593  44.7518063  27.7455711  54.0362501
  43.6999130  26.8352771  53.4397030  33.6246753  43.2958746  40.6091404
  34.1046929  42.5044298  40.3653622  32.8177381  42.9726839  41.0099363
  37.8428698 103.8602543  87.3959637  38.1821847 103.5252857  88.2259560
  38.6222577 104.0044594  86.8593121  63.6985159  47.8095961   1.2712714
  64.0079594  47.0061445   1.6895391  64.0741587  47.7815151   0.3913083
  30.7715106 108.7305355  81.8443489  29.9691367 109.2395020  81.7286491
  31.3810492 109.3367195  82.2653484  36.7629075  28.7012172  46.7431068
  36.1705709  29.1880298  46.1700583  36.7660546  27.8132868  46.3856173
  42.8048992  48.8921833  61.2403154  43.0844545  48.7864113  60.3309822
  43.1049299  48.0951929  61.6773796  46.4566612  31.1792421  79.8828077
  46.3066196  30.3053904  79.5221090  46.9725132  31.6292000  79.2137337
  22.5123835  55.0965881  75.4989243  21.6191435  54.8887348  75.2247858
  22.4033833  55.6268835  76.2883139  55.2965832  40.3771830  55.2396965
  54.5877743  39.7598958  55.0586367  54.8717117  41.1018515  55.6985760
  31.4888526 109.0703744  72.9893208  30.9537221 108.6742903  73.6770582
  30.9708930 109.8140352  72.6812315  62.6125908  29.6240568  78.6667538
  63.1084633  29.8868442  79.4421768  62.8661489  28.7131763  78.5176420
  32.2120500  62.1523190  69.6186018  32.1896386  61.7332172  68.7583208
  32.9268003  61.7137432  70.0801373   9.9495709  25.7567906  70.1804447
   9.5337152  25.3715086  69.4091797   9.5516366  26.6237879  70.2591515
  99.9712753  90.7168007   1.0416545  99.7011948  90.3263283   0.2105007
  99.5334816  90.1875973   1.7083696  31.3931799  27.7910852  58.5051012
  31.4742160  28.7234735  58.7058878  30.7286310  27.7510619  57.8173494
  40.1477718  25.7726192  72.4818754  39.8865891  26.2003326  73.2973957
  40.2523088  26.4906883  71.8576336  15.3941369  33.9486051  66.7003679
  16.1404192  33.3494353  66.6834021  15.3390849  34.2368698  67.6114655
  30.7460189  29.8255730  55.2576637  31.4399409  30.4839110  55.2216578
  30.8520269  29.3214703  54.4508982  13.3846295  44.7767401  56.2320375
  13.6319733  45.1150990  57.0925951  13.5320377  45.5101633  55.6348848
  39.6080208  48.5788870  71.9892073  38.9427114  49.2157793  71.7285109
  39.3425131  48.3003092  72.8656387  47.2810650  39.0646076  75.8299065
  46.3814354  39.2669487  75.5730963  47.3441315  38.1126952  75.7516956
  21.1114240  49.1744232  88.2453632  20.2466965  49.5816708  88.1941032
  21.0981441  48.6869526  89.0690327  42.7372599  51.6998196  67.3688412
  41.9083309  51.4211226  67.7579880  43.2641554  50.9016132  67.3303986
  46.5179014  15.1488721  69.1637325  46.3831758  15.5863667  68.3230925
  46.8618727  15.8334208  69.7375870  55.4290009  32.2138238  84.9916744
  55.9926605  32.1897125  84.2184162  54.6238756  32.6332307  84.6881962
  80.3497601  67.2591639  11.9229269  80.7475853  66.3885546  11.9249344
  80.3995323  67.5473452  12.8343582  57.2902393  47.9159069  35.3504086
  56.8493271  48.6812973  34.9816227  56.6088724  47.2450638  35.3944206
  54.6320963  25.3420591  57.1037245  54.4767714  26.2549925  56.8615294
  54.1147566  25.2138472  57.8988075  32.2182512  24.1160774  72.4386454
  32.5049734  25.0123262  72.6140356  31.2669158  24.1809726  72.3550892
  45.5061913  42.9954815  50.7682943  45.4657269  43.0761147  49.8153543
  45.0626707  42.1686602  50.9577513  32.9055405  64.6947908  70.9409046
  33.1162858  65.4291868  70.3642941  32.7639723  63.9572573  70.3474140
   1.2573068  24.9582934  92.2116947   1.4572278  24.1819954  92.7347851
   1.6915983  24.8005891  91.3733864  44.1830826  46.6894150  61.9923258
  43.9411926  45.8228874  61.6654444  44.7802448  47.0371532  61.3299751
  32.9940319  30.5774570  73.7059164  33.8695645  30.2799630  73.4585857
  32.8309011  31.3350749  73.1441021  42.5557280  44.9420261  38.2573342
  43.0497742  44.7482872  37.4607062  43.0494595  45.6444454  38.6804962
  34.4024372  21.9225073  77.7932167  33.4531116  21.9849300  77.8986502
  34.5377445  21.9078493  76.8457413  41.6757059  34.8545361  62.4685478
  41.3065100  34.6341443  63.3237362  41.8122244  35.8013105  62.5033951
  59.6010494  21.5202045  70.2395821  60.4464197  21.0722280  70.2694893
  59.6251297  22.1268201  70.9796333  39.7904038  38.9958978  88.6011982
  38.9334106  38.9243293  88.1808758  39.6141243  39.4404745  89.4303608
  33.9644289  66.0875750  62.4680185  33.0495310  65.8100843  62.4212313
  33.9265370  67.0435858  62.4389839  30.9167624  28.6799240  72.9240513
  31.3350153  29.5270252  73.0780554  31.5543675  28.0377531  73.2359934
  54.3044281  21.9013405  66.0402060  53.8363028  21.0712385  65.9506607
  53.6146069  22.5647402  66.0569191  39.3686366  35.3053880  78.8396168
  39.9978018  36.0264850  78.8195753  39.5405817  34.8150849  78.0357122
  73.6563826   2.2433287  75.9229136  74.5210123   2.5169027  76.2291861
  73.7516832   2.1669671  74.9735355  35.4182267  32.5226712  68.3338833
  36.1758041  32.2293997  67.8276205  35.7770586  33.1528974  68.9586115
  10.0854480  41.0090160  68.0300188   9.2162681  40.9193897  67.6392174
   9.9645460  41.6380692  68.7412930  35.1891327 101.7604923  73.7621212
  35.4212904 102.5647831  73.2979536  35.0446510 101.1168575  73.0685139
  32.0419097  25.6543136  65.6319046  32.7994394  25.8476591  66.1841726
  32.1885824  24.7581148  65.3293467  51.5133381  30.1341009  47.2434521
  51.1118746  29.3323851  46.9083261  51.8417215  30.5816007  46.4636183
  40.9497499 104.1468239  54.9293184  40.7275724 104.8546791  54.3244934
  41.8874502 104.2537403  55.0890493  45.4088545  35.8682466  89.2741394
  44.4957066  35.5875564  89.2140770  45.4163742  36.5082717  89.9858570
  24.8652554  24.7105670  88.1428432  25.6075716  24.9688339  87.5964928
  24.1031098  24.8046732  87.5714397  48.1214666  27.8209925  85.0048161
  47.5961399  27.0393157  85.1758289  47.9693127  28.3827925  85.7647228
  56.5336561  41.5887260  60.9432745  56.3128901  40.6624937  60.8453655
  57.2469044  41.5987778  61.5815544  61.0328579  22.6312208  49.1779613
  60.4652452  22.2157001  48.5288143  60.4662466  23.2611299  49.6233749
  41.5561342  34.6207643  29.3572664  41.2509584  33.7767649  29.6900797
  42.0967722  34.9752641  30.0631475  46.7594910  38.9443803  55.1576281
  47.5760937  39.2769289  55.5301809  46.0718489  39.4068336  55.6367111
  62.1291351  32.4632072  43.4050798  61.3332415  32.0853829  43.7792921
  62.4726915  33.0301642  44.0955591  40.3242207  33.6211729  60.4059315
  40.0384283  32.7760339  60.7527637  40.6617832  34.0912008  61.1683989
  67.5645781  85.5401993   7.2837412  68.1765318  86.2582111   7.4456030
  66.7270803  85.8588028   7.6203662  26.3004589  40.5404758  66.5411186
  26.9739914  41.1866713  66.7532969  25.7568479  40.4940557  67.3276043
  48.7499046  44.7356701  64.6158934  49.5589733  44.4878101  64.1684484
  48.4956932  45.5642509  64.2096233  73.8444614 100.9375572  10.3694224
  74.4813108 100.4200649   9.8766142  73.3807850 101.4446068   9.7029877
  78.4496689  56.4566517  28.6590481  78.2585621  56.1134720  27.7861547
  77.5906372  56.5649796  29.0671730  49.8227692  34.0890813  49.7037411
  50.0555134  34.9889207  49.4749403  49.7009182  34.1071820  50.6529808
  72.4794674  35.3114963  41.7151260  73.1823349  35.0732136  41.1106157
  72.0132828  36.0208535  41.2727308  45.5142641   3.4835303  64.3254662
  44.9768782   4.2222852  64.0396500  45.6174469   2.9447666  63.5410452
  28.9379859  25.6603146  48.3571291  29.5880389  26.3607383  48.4125280
  29.3852878  24.8901272  48.7077904  52.7650833  30.4445362  50.9372997
  52.6424694  31.3316607  50.5993557  51.9269133  30.2252960  51.3442898
  36.5181375  27.9336405  76.6496277  36.0823822  27.7488017  77.4816036
  37.2750688  28.4682846  76.8892956  18.3977747  19.0257466  65.2350330
  18.3622825  19.4805098  64.3935061  19.2340410  18.5602546  65.2206421
  60.1391172  31.8842030  57.5189590  60.0649452  32.8381228  57.4912882
  60.4564953  31.6941547  58.4017849  19.5763147 108.9113903  75.7341766
  19.5412326 108.2952499  75.0024939  18.7109041 109.3202782  75.7446861
  53.7719727   8.4139687  93.0147648  54.6125460   8.8494778  92.8733540
  53.9429379   7.7852565  93.7159920  27.6357174  22.5942302  59.9205256
  27.9351521  23.5031033  59.9432468  27.4445963  22.4280262  58.9974403
  50.9760094  27.8742766  43.5486555  51.7163706  28.2217932  43.0513382
  50.3876591  27.5165081  42.8837633  25.0488210  20.7910633  55.5463028
  24.8765182  21.4154863  56.2510300  25.8190298  20.3046584  55.8402777
  65.7030153  19.4971645  67.3710108  64.9810886  20.0934124  67.5698519
  66.1772490  19.4110596  68.1980038  57.4671841  41.0003376  67.2051907
  57.1454906  41.4433432  66.4200258  58.4022617  41.2035656  67.2287321
  40.8150387  42.3645830  61.0006189  40.2319717  43.1230974  60.9703016
  41.6935396  42.7400064  61.0599613  44.0958118  65.4535294  62.1901560
  44.2205667  65.5277824  63.1362820  43.5754776  66.2221098  61.9561338
  92.4789810  99.4892597  91.7814541  92.6336765  98.8699627  91.0681629
  92.4809933  98.9494896  92.5719452  21.1107016  17.4089694  62.2617149
  21.3033628  17.6019955  61.3441896  20.2912641  16.9149327  62.2355890
  31.8142653  13.8428259  84.8254776  32.3231435  13.6174798  84.0466976
  30.9385109  14.0369904  84.4914341  49.8220253  57.6659775  55.6464243
  50.6179905  57.1344614  55.6593513  50.0647879  58.4488344  55.1520205
  59.2853498  51.3511324  66.2453318  58.8327694  51.9082451  65.6120634
  59.3457603  51.8873692  67.0359278  53.7538481  60.8807182  37.1063352
  52.9002953  61.1452436  37.4494267  53.7368536  59.9240494  37.1334362
  45.5857754  58.2784796  72.8896904  45.0754261  57.4742889  72.9848242
  45.9452009  58.4386921  73.7622595  41.6472340  65.6064987  65.8744144
  41.2354946  65.2351332  65.0941658  41.0770369  65.3404713  66.5957594
  54.6670246  54.0706682  56.1877108  54.0446615  54.0734434  56.9149590
  55.0729132  53.2045126  56.2231255  29.8952103  36.1389709  34.1181517
  29.8324919  36.5629697  33.2622743  30.5240035  35.4290557  33.9882517
  51.3724852  43.8966751  63.6308765  51.3625622  43.5610199  64.5272398
  51.3246632  43.1142282  63.0815840  32.6301455  53.0434465  65.4801607
  31.7313766  52.7262259  65.3917360  33.0859709  52.6872635  64.7175407
  37.1198010  71.2302160  71.3935661  36.3524628  71.4810848  71.9078541
  37.1646810  71.8839741  70.6958437  58.7331152  29.4543600  89.4265842
  58.3219147  28.9558864  90.1327419  59.5455027  28.9829159  89.2421913
  31.6051483  50.5401230  59.9872351  31.2253213  50.5679226  59.1090631
  30.8500528  50.5541325  60.5753374  51.8367529  29.8528767  58.7104893
  52.7697849  30.0207257  58.8427973  51.4011955  30.3804708  59.3799400
  56.6281843  34.2692542  63.9334822  56.5677547  34.9210858  64.6318388
  57.5679398  34.1298032  63.8166714  36.8344617  52.6042938  78.6919069
  36.4553642  51.7328739  78.8065386  37.4335408  52.7040911  79.4317579
  42.2775412  47.3824310  42.8648806  41.9517517  47.9891396  42.2000504
  41.7438650  46.5956879  42.7532816  27.6713490  59.0189648  83.4825420
  27.7142668  58.4241629  82.7338123  28.0714917  59.8295355  83.1677532
  37.0285916  34.3039155  48.1363583  37.6181364  33.8469863  48.7362623
  37.6032495  34.6519208  47.4545240  49.1057968  24.5794392  54.7700214
  48.8564444  23.7143469  55.0950909  49.0137339  24.5138264  53.8195229
  52.5779486  43.5480881  70.3198624  52.5814390  44.0329838  71.1451483
  53.4582520  43.1776619  70.2559853  60.0283432  34.7178864  65.7198334
  60.1577282  33.8493109  66.1007118  60.0997734  34.5784020  64.7755527
  13.5594308  18.0957663  70.3803253  14.4692945  18.3458531  70.5410624
  13.0498505  18.8600934  70.6493330  14.2000091  71.8968916  68.0941677
  13.3661199  71.4405298  67.9819536  14.2583251  72.4789906  67.3365450
  14.7026467  54.2267179  78.8763666  13.9572883  54.4305086  78.3114433
  14.3084180  53.8877106  79.6800423  29.7714710  97.7983189  70.7834816
  29.7591543  98.7286663  71.0082865  30.6040931  97.6729202  70.3282356
  60.7388496  22.2121954  57.9361010  59.7850943  22.1469855  57.8877926
  61.0560656  21.4796329  57.4079323  67.5930595  79.0418339  72.7384949
  67.1488047  78.2897806  72.3469734  68.1620455  79.3724442  72.0433807
  37.4286342  44.2195702  80.0675678  37.7088118  44.9111700  79.4680500
  38.1068420  43.5482788  79.9925327 114.8225307  24.5586824   2.1686725
 114.2241764  23.9596701   1.7221346 115.3614902  24.9255013   1.4678210
  67.5906277  81.0834503  79.4519806  67.0955276  80.3355598  79.7863007
  68.4956980  80.7741261  79.4145918  63.7617636  76.0392475  48.7033987
  64.2273808  75.6122446  49.4224977  64.2564106  75.7970953  47.9205084
  40.6960106  93.7783146  88.6952305  40.1556540  93.1601429  88.2031918
  40.7295036  93.4154034  89.5803356  90.2619457  48.6380148  53.7746620
  90.4106236  48.6193371  52.8292656  91.1398220  48.6735153  54.1545248
  26.3271999  60.0160885  92.4347019  27.1707082  59.5920038  92.2769737
  26.5185070  60.6975365  93.0791092  65.1705122  69.0726233  66.0750151
  65.5148935  69.9497080  66.2434006  65.8220291  68.4826422  66.4540672
  46.6902304  81.4903927  82.4301529  47.3356962  80.8325958  82.6888180
  47.0039225  82.3028851  82.8272533  66.1496973  99.7083473  83.9610195
  66.3120461  99.8443890  83.0275536  65.4608107 100.3363895  84.1783428
  56.1483574  74.7362852  77.9670906  55.9017849  74.4703436  78.8529301
  56.0252571  73.9484930  77.4375105  65.9551096  79.9916697  76.7562723
  66.8249750  79.8024273  76.4044905  66.1233711  80.3838062  77.6130962
  68.5492420  77.1087503  64.0727091  67.7762032  76.5743446  63.8909197
  68.8998985  77.3244715  63.2085705  69.2315149  81.8036366  58.5913420
  68.8582897  81.0452175  58.1421995  70.0871897  81.9280052  58.1807423
  57.6303434  82.5433159  72.0777321  57.4081564  81.6147423  72.0097303
  57.9801083  82.7696323  71.2159491  71.8954563 102.6839066  90.1402187
  71.2787533 103.4159088  90.1492119  71.4513111 101.9905281  90.6282711
  87.1458721  74.3871450  52.0750284  86.8800259  74.9032068  51.3139534
  88.0737782  74.2038918  51.9278860  45.6707478  26.0523486  10.8547044
  45.7297993  25.5732346  11.6812611  44.9191093  25.6647277  10.4063475
  84.3516827  62.4918270  47.7770090  84.2093277  62.4762154  48.7234354
  84.4924927  63.4159756  47.5711966  65.3477955  86.7650318  60.3370142
  66.2947750  86.8544388  60.4440880  64.9758053  87.3429489  61.0032463
  57.5136232  29.7638631  66.7870569  58.4696960  29.7182751  66.7784405
  57.3018169  30.4669356  66.1730099  50.5392313  74.3958521  93.2266617
  50.8997726  73.7107944  92.6636887  49.9792004  73.9272118  93.8455105
  93.7975025   8.1569695  54.4489336  94.6502018   8.5589421  54.2829466
  93.2855129   8.3482212  53.6631107  58.8375187  76.2603760  55.2399921
  59.3651962  77.0332146  55.4412603  58.0385065  76.6116285  54.8470068
  88.0690670  66.2748575  58.0167580  87.8876209  67.2087193  57.9108763
  88.6835480  66.0688829  57.3123360  96.4269543  69.4649124  65.2945852
  95.5373478  69.1152000  65.2442312  96.8467045  68.9531422  65.9860563
  83.2167244  83.2637405  81.1044693  83.6767292  83.1038666  81.9285202
  83.6173439  84.0607166  80.7572365  60.0693226  20.3537154   1.3759802
  60.7900858  20.8807707   1.0310940  60.3577852  20.0974679   2.2519708
  29.2428827  74.6368885  85.4991150  29.6955109  73.9024305  85.9137630
  29.5109868  74.5960045  84.5811367  70.6512737  78.7001419  45.7010937
  71.2659025  78.0501080  46.0415602  70.0065422  78.1877136  45.2132702
  97.8460312  52.5881529  48.1718874  97.6104355  51.9535923  48.8486910
  98.1267738  53.3635473  48.6578751  60.6319618  77.9571009  83.8181973
  59.7068930  78.1278229  83.6411953  60.6990910  77.9678869  84.7729778
  49.2654181  70.8954191  64.8521566  48.6313009  70.4766846  65.4342175
  48.7502861  71.1670542  64.0924931  67.8376579  82.4269581  68.1534624
  67.5464296  81.5559578  68.4232521  68.6941862  82.2795486  67.7523851
  84.9199390  24.2696071   3.6496609  85.5664444  23.5851574   3.8222572
  84.2247868  23.8255072   3.1640986  77.7408028  95.3246880  87.0283890
  76.9367981  95.6883907  86.6575432  77.8847647  95.8290291  87.8291130
  48.6475945 105.3822899  72.1823406  49.4386673 105.5080318  71.6582918
  47.9491043 105.7766819  71.6600466  54.5704126  92.0972252  82.1041584
  54.1448689  91.5474319  81.4462185  54.6337986  92.9586887  81.6917419
  86.8834305 100.9398174  35.4203963  86.6697407 101.2889862  36.2856436
  86.2244987 101.3198471  34.8393416 109.4296551  69.5757437  74.9663067
 108.8094425  69.2137194  75.5991554 108.8832378  70.0511742  74.3405008
  83.1409645  77.0004559  71.1868334  82.9340363  77.3431826  72.0562887
  82.7821445  77.6496649  70.5818462  79.1032839  99.3537712  76.5702677
  78.4460306  98.9755917  77.1544218  79.9256182  98.9428711  76.8370295
  71.8451500  95.5037498  57.5453758  71.7118835  94.6397972  57.1554232
  70.9993649  95.9419823  57.4514151 111.6788387  67.5550699  72.8307915
 111.3635540  68.3842325  73.1903934 111.2940311  67.5119066  71.9554090
   7.3263842  43.5308599   0.6393214   7.8359973  43.0723000   1.3073401
   7.8010970  44.3496037   0.4960049   0.6113207  51.8424892  31.7428279
   0.7286376  52.6747417  31.2847614   1.1093712  51.2110806  31.2236905
 113.1152534  62.7723074  82.9172993 113.6781883  62.5960588  82.1634579
 112.3433018  62.2250652  82.7729034  66.0099649  83.9381695  69.4402981
  66.7547703  83.8734245  68.8425493  66.0629463  83.1464291  69.9756193
 100.6936836  59.4643974  54.9299431 101.0946941  60.1409721  54.3843555
 100.1015568  59.9437904  55.5094242  73.8432884  90.3355122  91.7852592
  73.9382744  90.8511925  90.9844589  72.9990530  90.6064892  92.1459103
  73.7785053  75.9447527  65.4833269  73.7124300  76.6756248  66.0978937
  74.0851784  76.3435459  64.6689892 105.1873970  84.0975857  74.4237995
 104.8453236  83.4658527  73.7912416 104.4096756  84.5362091  74.7687531
  76.0584736  49.7655249  51.2736797  75.5697060  50.5818796  51.3781357
  75.5382299  49.2523146  50.6554651  62.4796200  91.6560364  90.1873493
  61.9480801  90.9718800  90.5943298  62.6824427  91.3153076  89.3161488
  73.9107895  81.9441795  65.9799814  73.7540102  82.6590252  66.5969467
  74.8461628  81.7580795  66.0617018  81.2034035  73.4518242  65.8653784
  80.4166794  73.9788294  66.0052299  81.6888142  73.9214325  65.1870918
   2.8372541  80.3807449  42.8967142   2.3175266  80.2736378  43.6933613
   2.8145218  79.5200920  42.4783897  82.0952225  89.9520302  48.7324095
  82.5349808  90.1482201  49.5596695  82.7670956  90.0914669  48.0650520
  39.4688916  18.3574986  22.9385948  38.5502887  18.1696415  22.7459526
  39.6435332  17.8876674  23.7540650 106.6078663  76.6255522  81.0555077
 106.9896126  76.7729521  81.9208241 105.6626320  76.6338730  81.2061501
  48.9011097  79.0623522  79.9144840  49.3262625  78.9491987  79.0643835
  48.4050512  79.8763704  79.8277330  43.8236284  85.6622601  64.1448069
  42.9101133  85.8639622  64.3473816  44.2245102  85.4863453  64.9960279
  43.5185528  82.5900841  68.8636684  43.7630606  81.6745281  68.9985895
  44.2922926  83.0864429  69.1304827  81.7645741  86.6386127  57.6323175
  80.8348942  86.4463997  57.7547216  81.8302059  86.9360352  56.7248678
  65.6143618  73.0053902  68.8831758  65.1286745  72.2549105  68.5409498
  66.1309767  73.3156633  68.1394911  89.1411304  80.4128265  82.2423935
  88.8244152  80.8355618  83.0406570  89.7651196  81.0371494  81.8721390
  44.6402073  69.6964693  77.4912310  44.3016434  70.3826666  76.9161320
  44.1652012  68.9079952  77.2287273  82.4603844  98.5959911  34.4068599
  81.5719891  98.9514732  34.4316125  82.3690128  97.7537251  33.9613557
  74.6661091  72.9396677  80.9452629  75.1928282  72.7193832  80.1769733
  73.8315344  72.4942684  80.7992172 108.1133652   1.1460704  63.2281351
 108.1875610   0.2018626  63.3666897 107.4645329   1.4322355  63.8710642
  14.4567740  32.5874400   6.7832738  13.9677989  33.3350134   7.1271735
  14.6616006  32.0596766   7.5551176  94.2484474  90.2965260  86.3023663
  94.5369148  90.4218292  85.3983116  94.5705318  89.4265175  86.5381336
  36.8063164  64.8965740  66.4531565  36.6800141  63.9616776  66.2911415
  36.1675644  65.3266239  65.8845711  81.4586353  61.2502193  61.4847755
  81.0265064  60.5107832  61.0573101  80.7421494  61.8311691  61.7404699
  74.2421293  80.6306458  47.3355579  74.6237993  81.0147667  48.1248713
  73.3055449  80.8142185  47.4086475  32.0575452  41.0291147   1.2187575
  32.8670931  40.6013060   1.4977644  31.7570305  41.5023470   1.9946271
  75.0249815  86.2572575  65.4861736  74.8455286  87.1438408  65.7992315
  74.6707964  86.2409306  64.5970631  86.5507126  94.4935799   1.6043496
  86.7128563  95.4239750   1.4484143  86.9727421  94.3144512   2.4446094
  84.1596794   5.6873524  77.2918606  84.6749210   5.0131780  76.8488693
  83.8206291   6.2340379  76.5830517  13.9914644  13.7526739  71.6564989
  14.6122479  14.4165206  71.9567728  13.2539701  13.8227975  72.2626495
  60.3256369  79.7079515  69.0693235  60.6566620  80.3738117  69.6720552
  61.0792398  79.4828367  68.5237598 107.6480007  87.7537823  51.0724068
 108.2324314  88.4829330  51.2798023 108.0214119  87.3650551  50.2814007
  46.4415169  81.7166424  57.8448963  47.2236156  81.1647797  57.8459311
  45.7132339  81.1000919  57.9204464  82.0153618  68.5394144  79.9866676
  81.8733692  68.5392094  80.9332752  81.1432838  68.6681986  79.6136856
  36.8957448  72.9592419  59.0399742  37.4851274  72.2955084  58.6817598
  36.0462570  72.7637529  58.6445189  81.2315559 101.2784100  93.3610439
  81.7732430 102.0047569  93.0524635  81.6870499 100.4936123  93.0563354
   7.4797231  27.6375675   4.5770073   7.9742891  26.9792128   5.0650698
   6.9226712  27.1298909   3.9869320 111.5889549   8.9513040  65.4854727
 111.4941692   9.6799743  64.8720503 112.2365665   9.2559981  66.1210823
  58.1727695 102.0849419  54.2588758  57.9479885 102.9367733  54.6331596
  57.9301214 102.1573639  53.3357811  39.8839283  71.9058704  65.0151491
  39.0171146  71.5901232  65.2704382  39.7232652  72.4493265  64.2437410
  86.6359997 104.3911552  92.1323681  85.9724712 103.7399197  91.9046497
  86.4600945 104.6017551  93.0493927  91.8771648  64.2105103  50.0716925
  91.9995403  64.3285322  49.1297150  90.9385300  64.0528774  50.1733828
  78.7109947  81.8797684  70.2794743  78.5489845  82.6057053  69.6769810
  77.9449511  81.8692493  70.8533144  55.0023508  87.7240086  57.0029736
  54.8071527  88.4764194  56.4443970  54.6444893  87.9615211  57.8584003
  46.7306185  81.6762733  64.4805574  45.9938240  81.1601543  64.8076582
  46.3446712  82.2543430  63.8224411  64.6500444  71.8635893  62.1717930
  64.7528982  70.9155083  62.2542095  63.7532234  72.0331860  62.4602032
  69.3448687  92.8610706  54.5167255  69.1634560  93.3924675  53.7415171
  69.2917633  91.9574547  54.2054701  74.8391914  67.2803879  65.4074335
  75.5955124  67.5359583  65.9355402  74.1032982  67.2966671  66.0193396
  63.9150620  75.2726650  66.9745493  63.6125374  74.3651342  66.9413757
  63.2600975  75.7241535  67.5069094  30.8999252  82.0677185  69.0493202
  31.2094259  82.9719734  69.1019487  30.6579828  81.9504642  68.1306505
  91.8417168  78.8861561  65.0821829  92.7111053  79.2674160  64.9595451
  91.2928677  79.3279600  64.4342661  11.1147690  63.6622620  48.0406761
  11.0534763  64.2463255  48.7965488  10.5235445  62.9387331  48.2485008
  88.5161781  77.3335934  71.2855053  87.6683617  76.8945026  71.3535690
  88.4902096  77.7741957  70.4361343  98.6257076  71.4491653  85.8829498
  98.9601994  72.2029209  85.3969383  97.9403400  71.0870457  85.3213692
  72.5876522  93.6711788  87.6969051  71.8323612  94.0829659  87.2771454
  72.2491693  93.3425903  88.5297871  83.7705326  81.2515259  36.1861491
  83.2693005  81.7953205  35.5784631  84.5700645  81.7512798  36.3511467
  70.4718971  68.4097195  55.5806494  70.7764006  69.2068529  56.0143375
  71.1408043  68.2253361  54.9212599  59.0680265  75.6434202  74.4500875
  58.6274576  75.5992508  73.6014509  59.5759535  76.4539528  74.4143581
  97.6273346  79.8581314  82.4437809  98.0310249  80.5647564  81.9398499
  97.5512600  79.1340113  81.8224144  50.5137968   1.2796804   5.9885705
  51.3052082   1.0681621   6.4837074  49.9008179   0.5771420   6.2051952
  71.1148787  73.5512972  69.6178770  71.4238262  73.6430693  68.7165642
  70.9975576  74.4507408  69.9236059  53.9619541  88.7076855  24.7514200
  53.9842653  88.4441757  25.6713629  53.3616972  88.0866241  24.3388653
  50.8693361  89.5941067  64.6949863  51.4174223  89.9041367  63.9740753
  50.7005262  88.6746502  64.4892454   8.8545376  10.8217597  70.4918242
   7.9689497  10.5463576  70.7287216   9.4182730  10.3983819  71.1392689
  10.2516544  20.2147031  13.3731627  10.9982920  20.4198694  12.8104281
   9.6610880  19.7107410  12.8132641  48.4602022  90.4662609  48.4070635
  48.3223295  90.9513092  47.5934601  49.1153097  89.8050880  48.1836510
  51.7693043  80.6872654  82.2590923  51.1754560  80.0347710  82.6303482
  51.3056517  81.5184784  82.3608017   6.4948767   8.0064327  66.2314415
   5.7956994   7.6386994  65.6909275   6.9285160   8.6421359  65.6621695
 102.2001362  91.4552307  62.4053001 102.9858780  91.3594151  61.8670940
 101.4918900  91.1167145  61.8575478  41.5578511  37.6277760   0.4735868
  41.1494115  37.1772317  -0.2656157  42.1859887  38.2275227   0.0711267
 112.9501915  27.4039435  16.0647595 113.5993385  26.7757654  16.3813579
 113.4304810  28.2287598  15.9924066  62.8344059  72.7562380  66.4627075
  63.4211969  72.1049452  66.8470669  61.9579077  72.4706554  66.7204380
  87.5270081  85.5174351  76.1767721  86.7489052  85.8204651  76.6446924
  87.3627186  85.7500935  75.2629280  69.3585443  69.3317366  60.9059572
  69.2954683  68.6495590  61.5744495  68.7144899  69.9880028  61.1719370
  88.2431698 104.7610855  88.8286209  88.2045650 104.6016693  87.8855801
  87.4579811 104.3375206  89.1754627  53.3908224  86.8103027  69.8249006
  53.1330824  85.9238625  70.0779343  54.2716360  86.9154930  70.1845455
  92.2630596  86.7356491  80.3207684  93.1571579  86.8457699  80.6443310
  92.2732449  87.1315479  79.4493341  68.8845205  62.9631519  63.1055117
  68.9123297  63.7847662  63.5958195  69.1065550  63.2120228  62.2082949
  95.8803463  82.2485828  84.8974037  95.3983784  82.9672432  85.3066444
  96.7058468  82.6432610  84.6163177  83.1092930  72.0119333  40.2950907
  82.8824806  71.4224863  41.0143518  82.3016453  72.0924997  39.7876930
  91.0727787  94.8080254  82.1371651  90.8672428  94.4235802  81.2849998
  91.7778301  95.4294968  81.9557762  68.8263273  96.2021351  79.3260813
  68.3543587  97.0343399  79.2957926  68.1381702  95.5373764  79.3537426
  89.5709038  69.9923468  88.3372021  90.4742241  70.1970959  88.5787106
  89.3495846  70.6392288  87.6672745  69.8588085  95.7264042  60.4232836
  68.9056921  95.6521511  60.4711008  70.0273609  96.0907459  59.5543289
  74.7372627  75.1433277  71.2278080  73.8956833  74.7876501  71.5132380
  75.3194857  74.3842506  71.1953735  57.0251083  94.3094444  71.2768269
  56.7154264  94.9770832  71.8888617  57.2106171  94.7910976  70.4707003
 113.6089802  78.9331484  51.0083342 113.7581635  79.2332411  51.9049549
 114.2491341  78.2330942  50.8804369  35.0041604  39.1979718   3.1016698
  35.3141522  39.4410729   2.2292948  34.7309852  40.0253534   3.4979632
  75.8652592  82.2305298  77.1466732  76.0745049  82.3542976  78.0724859
  76.6896725  81.9484806  76.7504215  60.2500200  69.7131109  61.3757372
  59.3939161  69.3887568  61.0962486  60.0859976  70.1196384  62.2266531
 114.7951984  85.3788280  74.9559307 115.4617405  84.9685764  74.4048882
 114.9886894  86.3150978  74.9089813  95.1670265  76.9886398  77.1840620
  95.9049416  76.5905523  77.6458406  94.6910000  77.4684191  77.8618860
  50.0602579  67.2482157  87.1800995  50.7681417  67.8712082  87.3444557
  49.8310280  67.3832512  86.2606144  96.0972691  50.8661699  89.1967678
  95.4044628  51.4070368  89.5758533  96.2481213  51.2430859  88.3299255
  98.0206013  56.4693832  84.7890759  98.2169342  55.5696297  84.5280647
  98.0172348  56.9615936  83.9681244  98.3489037  86.4465523  89.2024326
  99.1900158  86.6732788  88.8057518  98.5450172  86.3354206  90.1327038
  98.6428356  93.5064316  94.0264034  99.2512417  93.4615135  93.2888126
  99.2059612  93.5678101  94.7979927  50.6410599  18.3256412  20.5119085
  49.9674559  18.4154522  19.8377991  51.1702204  19.1189492  20.4289317
  53.3272171  78.8526583  61.1099768  53.8718987  79.3661261  61.7065525
  52.6220751  79.4483805  60.8567476  51.4536953  81.8577290  79.3664503
  50.6193876  82.3211098  79.2926359  51.4213514  81.4419842  80.2280426
  75.6979847  68.7009287  69.3279648  75.6423569  67.8260565  69.7123289
  74.7867823  68.9735603  69.2201805  56.8446493 103.6523342  74.7613716
  57.1816301 104.3939018  75.2641249  55.9008789 103.6640072  74.9207258
  66.3706493 107.3832798  85.7400036  65.8148527 107.7367210  85.0454617
  66.6237402 106.5152454  85.4258347  70.3031158  79.2185593  63.1450748
  69.6679640  79.9306822  63.2205439  71.0715246  79.5313835  63.6224842
  45.1254654  81.7586327  91.7823219  44.3413877  81.6755676  92.3250484
  45.4330635  82.6510906  91.9408703  71.2927198  76.1032629  63.1558323
  71.0687304  76.5186357  63.9886141  71.0985518  76.7691422  62.4961853
  77.4033213  69.0277290  52.9208755  78.0817699  69.3859577  53.4932470
  77.8848219  68.6593962  52.1801186  67.5498819  68.0141020  62.8802776
  67.0396948  68.8062954  62.7118492  66.9024944  67.3675776  63.1615591
  51.0471725  39.1259193   1.7082922  50.8735323  38.4028888   1.1055419
  51.5350294  38.7257791   2.4280947  38.2271218  29.9386001  10.7846534
  39.0227365  29.5612097  10.4094088  38.1253719  29.4945312  11.6264856
  75.8306265  45.4519463   2.9906067  76.0590315  44.5239258   3.0439225
  75.1312971  45.5638647   3.6345348  29.7512245  67.8346205  64.6249628
  29.1477585  67.1064854  64.4770670  30.3617930  67.5091076  65.2863884
  72.8819799  71.8400288  52.3059940  72.1495581  72.1921730  52.8117466
  73.6432457  72.3332024  52.6117516  46.9340229  77.9850149  73.8861418
  46.3264370  77.2459030  73.9141417  47.5102186  77.8500366  74.6384811
 110.6831264  65.7359409  84.4046211 110.1405621  66.1564636  85.0717258
 111.3697433  66.3756752  84.2161179  55.2257013  97.5728416  60.0633430
  54.9757004  98.4178543  59.6895981  54.5186615  96.9798565  59.8089933
  61.7632437  96.1778831  78.4161234  61.2770653  95.4516506  78.0256748
  61.8476820  95.9405518  79.3395805  83.9208412  88.8443756  58.1781530
  83.0328369  88.5172081  58.0344486  84.2827511  88.2673931  58.8507271
  98.6927414 107.7758598  73.6148453  97.8249454 107.5000668  73.9099741
  98.5604286 108.0534458  72.7083874   3.5341474  22.5930929  10.4998124
   2.8637651  23.1031561  10.0452185   3.2585579  22.5983739  11.4164662
   8.5482115  17.3456252   5.7547581   8.8259530  18.2347536   5.9750807
   7.9582173  17.4568093   5.0092536  86.7218018  80.2470875  65.5117559
  86.4923573  79.4344616  65.9625626  85.9922600  80.8382607  65.6975412
  92.8567123  95.9319782  62.5432444  92.4730396  96.7750549  62.3019171
  93.7954712  96.0445023  62.3939133  67.4197102  77.2383165  87.7926636
  66.5141916  77.1617937  88.0933475  67.6418018  78.1587172  87.9332829
  71.6068935  94.9793243  84.1089821  71.2631178  95.2844810  83.2693768
  72.0484543  94.1556931  83.9018917   5.1427984  27.9090524  25.3674340
   4.4522735  27.2607756  25.2290750   5.2112699  28.3683991  24.5304465
  63.3844757  77.6126909  83.7387276  63.4668827  76.7155027  83.4154701
  62.4426460  77.7834702  83.7338543   7.3368979  78.5576010  53.2671452
   7.6527011  78.7146330  54.1569996   7.6913279  77.6992226  53.0351973
  22.8245401  80.4755497  88.5556221  22.7619910  80.2136421  89.4741631
  22.5268912  81.3852310  88.5451412  89.0787888  73.5806656  68.6395979
  88.9672279  72.9336214  69.3361092  89.7131157  74.2049217  68.9919615
  30.3851700 106.3336277  65.1299810  29.9979138 105.4636669  65.2270651
  29.7010493 106.9346142  65.4249859  83.3908367  98.0439568  75.2071619
  83.9310932  97.2942066  74.9576902  83.5498524  98.6925220  74.5213652
 103.2805347  73.4282827  61.4665699 104.1018677  73.8128471  61.1603832
 103.2820988  72.5416279  61.1059141  80.0967979  83.2034874  61.7883492
  79.5189095  83.4839535  61.0786915  80.7025528  83.9350224  61.9072390
  87.3235226  85.3774071  86.1013985  87.5559235  86.2026310  86.5271091
  86.5159988  85.5723286  85.6258488  27.6326418  27.3978209   3.8256666
  26.7349768  27.3703051   3.4944984  27.9185081  26.4843297   3.8189778
  95.0301170  85.2136803  46.6077375  95.5967903  84.4486427  46.7068624
  95.5764771  85.9527111  46.8752384 110.7007694   5.9231609  80.2469540
 111.4222431   5.4639077  80.6768227 110.2259254   5.2371788  79.7777176
  78.7040186  83.8706779  59.3263006  79.0592432  84.7544479  59.4210863
  77.8397846  83.9147568  59.7354317 107.0115948  68.3896923  75.9255600
 106.6712475  68.1539965  75.0625134 106.2838364  68.8388157  76.3555384
  77.2580767  58.2341623  52.3348427  77.3484325  57.9375029  51.4292717
  78.1577921  58.3136797  52.6517344  63.8041258  89.6942711  59.0246010
  63.0848408  89.2895222  58.5397911  63.4097910  89.9705315  59.8518896
 108.1917953  82.8134632  46.3006783 107.5241947  82.6681614  46.9710732
 107.7086353  82.7993679  45.4744911  45.9757757  73.8762236  81.6194057
  46.4646912  74.0978241  80.8268833  45.1234245  73.5800314  81.3000393
  91.7725182  65.7564211  28.3738399  92.1413708  66.4017773  28.9769149
  90.8436775  65.9815693  28.3208489  87.0157909  85.1793480  89.9142551
  86.2025356  85.1940823  89.4096470  86.7553997  84.8620701  90.7789898
  75.5607891  66.8686295  55.8906698  75.1690674  66.8724585  55.0173044
  76.1757469  66.1352921  55.8741331  69.4074011  77.6741219  55.9735298
  69.1108561  77.8374624  56.8688583  70.3616858  77.7296734  56.0234022
  93.1560612   2.9903293  74.6475077  92.2965717   3.3092082  74.9228621
  93.5769844   3.7512937  74.2475176 113.4709358  80.2165699  89.6563148
 114.2220402  79.6737099  89.8958492 113.4757042  80.9280396  90.2966404
 103.1288147  91.9933128  59.2402554 103.7801075  92.6927471  59.1869593
 103.2351875  91.5043068  58.4242916 100.2627468  73.5546827  46.0489702
 101.2191772  73.5608387  46.0868025 100.0185585  74.4794559  46.0115671
  51.6172791  80.5428123  77.0431328  52.4368668  80.8237553  76.6362190
  51.7388153  80.7225323  77.9754210 105.2558994   0.7439556  77.0683002
 104.8774147   0.3347831  76.2901211 104.9064064   1.6350615  77.0643425
  45.4744148  83.2298374  53.0270863  44.9083471  82.6967335  52.4688816
  44.8735476  83.8152790  53.4880114  62.6099205  92.5987339  76.9108391
  61.8869734  93.2257652  76.8904543  63.0671024  92.7868652  77.7304840
  46.6341591  82.9063702  72.1936607  45.8268547  82.9271030  72.7075291
  47.2853851  83.3290577  72.7535486  74.7713280  67.8963423  62.5271606
  74.9241638  67.6412916  63.4370089  73.9426470  67.4763632  62.2966528
  78.2351351  78.6302090  88.1556702  77.9409027  79.4879866  87.8492832
  77.8738689  78.0120850  87.5203419  64.4004107  78.9657593  57.0416546
  65.2793407  78.8378286  56.6847992  64.5445919  79.3925667  57.8862143
  77.6831913  84.3222237  68.7590981  77.1693134  84.6569443  69.4940329
  78.4709406  84.8659229  68.7503386  21.3441515  38.1197000   9.8882371
  20.8158541  38.2729149  10.6716025  20.7610917  37.6460433   9.2950058
  78.9763451  69.8291206  79.8282576  78.6422586  70.2175522  80.6367970
  79.3651152  70.5632305  79.3526793  59.8178387  78.5532236  57.6770449
  58.9139700  78.8124132  57.8561354  59.8724556  78.5190535  56.7220163
  35.2637506  97.0274830  84.9831390  36.0891247  96.5914440  84.7713470
  35.1063538  97.6145172  84.2436409  71.9019651  65.9482241  74.2546511
  72.5509691  66.1983824  73.5970402  71.7551279  66.7464972  74.7620249
  75.5187988  85.8723640  48.5772133  75.3911495  85.4943848  47.7071190
  76.4602089  85.7994461  48.7342644 115.2211857  91.4959335  64.5086813
 115.1621056  90.6238937  64.1184425 114.5725536  92.0153713  64.0336084
  68.6775351 103.3029747  52.7101469  68.7284517 103.3731461  53.6634159
  68.3118868 102.4323845  52.5532579  67.6522017  73.7296724  93.6824417
  66.8254519  73.7623501  94.1637421  67.4277496  73.3166885  92.8485966
  76.7191887  80.9543228  59.7949219  76.7832565  81.8111229  60.2168512
  77.4776220  80.4696369  60.1206350  86.4097881  85.9288979  53.1801748
  85.7851505  86.5956306  52.8946638  86.1297703  85.7024860  54.0670586
  85.7788086  46.7079687  44.2781353  85.9508991  46.0306168  44.9322081
  84.8419285  46.8866396  44.3591595  52.8574944  96.8879890  56.1350441
  52.9016256  97.4853039  55.3883839  53.3410454  96.1125278  55.8503199
  77.2210312 101.6493130  43.3258009  76.7070484 102.0938778  42.6517010
  78.0521059 101.4446354  42.8972483 102.3738861  51.9262743  37.2105789
 101.8148422  52.2144222  36.4890003 101.8561935  51.2606812  37.6635861
  57.2630501  79.5843792  58.2771301  56.4292669  80.0541019  58.2972383
  57.1187401  78.8164711  58.8300514 101.7609882 109.4560242  91.7260838
 101.6549015 108.9695740  90.9085560 101.9695091 108.7866497  92.3777580
  69.5696926  65.6469345  68.2633066  69.6841049  64.8605061  68.7968540
  69.9691057  66.3469315  68.7797403  73.4163237  76.5364170  92.6996994
  73.7531471  77.4272823  92.6040649  72.9839087  76.5342283  93.5536575
  70.7055187  91.1748028  68.0434704  70.5969763  90.6526089  67.2486305
  70.1836777  91.9616795  67.8862000  79.0769053  82.8893471  73.8457155
  78.2533073  82.5745964  73.4730959  79.1860342  83.7666416  73.4787321
  35.0856757  41.9260311  16.3631248  34.6070910  41.1048031  16.2500930
  35.7012296  41.9473219  15.6304073  24.3697262  27.8952646  59.8310757
  24.6971822  27.8366399  60.7286119  23.9546418  28.7564611  59.7833347
  44.3671560  46.3409710  11.5419519  43.6629581  45.7425165  11.2925661
  44.8707581  46.4666224  10.7376945  39.6056843  49.6917200  14.3016028
  39.2574954  49.7425032  13.4114254  40.5218601  49.9553442  14.2158282
  67.7774000 106.7476559  55.7153416  66.8358850 106.5802574  55.7572365
  67.9509592 107.3267651  56.4574671  98.1238270 100.5219746  57.8282833
  98.2593346 101.4388847  58.0673218  99.0072536 100.1686954  57.7234936
  66.9082499  97.5058270  74.1597080  66.0523987  97.7699947  73.8221216
  67.4885321  97.5465298  73.3995485  91.8359852   6.6711926  67.9816818
  90.9448242   6.5508568  67.6536942  91.8593121   7.5790220  68.2842255
  85.7666397  98.5604668  54.2574644  85.7451153  98.7265587  53.3150291
  86.2219620  99.3185043  54.6239233 102.4807739  14.4210136  48.9820528
 102.6713657  15.3375959  49.1815138 103.2935333  14.0838969  48.6052084
 109.7636127  65.6042671  90.9502602 110.2289009  64.9343586  91.4512157
 109.1528416  65.9913015  91.5774727 111.7796040  91.9951439  64.9550486
 112.4247456  92.0378304  64.2492199 111.9033813  91.1277866  65.3405476
  88.4000778  97.1665192  57.1486235  87.9056263  96.3986301  57.4351501
  89.2560673  97.0696068  57.5659180  22.7106786  83.1824875  58.1499147
  22.3432374  82.8163147  57.3454666  22.1639585  82.8226948  58.8484001
  25.5159760 101.6752052  19.4152296  24.9102449 102.3877048  19.2111099
  26.1034083 102.0421219  20.0759339  83.2361221   9.2523360  60.0779486
  82.9471493  10.1429021  59.8789024  82.4573326   8.7122190  59.9438000
  78.2883215  71.8182135  81.6254234  78.0061436  71.8115520  82.5400639
  78.3882713  72.7460337  81.4123631 113.1066799   6.6165638  63.5536671
 112.7845573   7.1814007  62.8512239 112.3189163   6.3525993  64.0290356
 111.0788250  83.3104706  67.0336342 110.7687283  83.0023098  67.8851652
 110.8302212  82.6167011  66.4228010   3.9338589   4.7451153  86.0816860
   4.1173264   5.6517172  86.3279533   3.1225532   4.7937593  85.5760765
  65.4434395  83.7762165  88.6571121  66.1187315  84.4497585  88.5761929
  64.7022343  84.2274952  89.0610790  77.6305866   5.5569375  59.5691538
  77.9345989   5.2677697  58.7088108  77.5033712   6.5008056  59.4734383
  12.8172040  76.5050554  11.9232249  12.4062121  77.0701933  11.2690568
  13.3014536  77.1064329  12.4889803  81.9805813 103.1196785  63.3998013
  81.7657566 102.8564167  62.5049400  82.3432255 102.3300171  63.8012505
  73.1462193  93.5439110  72.1322393  72.2709513  93.3481789  71.7978430
  73.3412457  92.8220844  72.7298737  50.3649855  65.2215385  16.1493456
  51.2998104  65.0366259  16.0591221  50.1313829  65.6754637  15.3396463
  95.3086281  72.2369432  53.1960583  95.7860184  72.9752159  53.5745859
  95.7765579  72.0398712  52.3846149  11.5782189  11.8172622  63.3245087
  11.3285542  12.7112377  63.5584021  11.1346090  11.2678516  63.9707184
 103.4469891   3.0990115  43.6245060 103.1965256   3.8252422  44.1955471
 103.7100029   2.4017094  44.2251921  59.4441414  45.9019899   1.1807257
  58.7776089  45.3149986   1.5376768  59.6572495  46.4908075   1.9046773
  53.7996769  92.3476601  91.0029793  52.9731655  91.9380951  91.2586594
  54.1773415  91.7452240  90.3621387 107.9801559  66.9979954  62.9618025
 107.6035690  66.1332273  62.7987289 107.4660397  67.3499584  63.6884642
  89.1645241  75.4690170  66.7537832  89.3082523  74.8158360  67.4385691
  88.2493496  75.3515816  66.4990616   5.2566892  17.1981049  73.0918407
   5.4349107  17.9125488  73.7034273   5.1912457  17.6248515  72.2375345
   5.5627626  30.0503087  93.9172459   6.0685080  29.7705054  93.1542492
   5.4613519  30.9953547  93.8039303 105.5176640  80.3003216  89.9831104
 106.4203739  80.1171207  90.2434540 105.4023552  79.8191500  89.1637135
  75.9787130  88.4243202  55.9856701  76.4816380  88.6283875  55.1972198
  75.2680826  87.8618908  55.6775856  79.9059439 103.5585785  55.8724642
  79.8572350 104.5145416  55.8709288  79.2949581 103.2865334  55.1876879
  86.4278507   9.9075902   4.5186451  86.6022682  10.4488528   3.7486812
  85.6566429   9.3932307   4.2801169  83.7348270  82.3459053  70.2410030
  83.5708046  81.6199780  70.8429670  83.1817722  83.0562973  70.5661297
  39.3253851  17.6403069  60.7230711  39.3441057  17.0495474  61.4759874
  39.8297620  17.1850646  60.0488377  30.9530735  63.6562634  92.4458885
  31.0892773  64.5988369  92.5420189  31.1877108  63.4718847  91.5363979
  88.1864357 105.6431580  50.1325893  88.9544868 105.6879997  50.7020760
  88.5333824 105.7812500  49.2512321  82.8701115 108.1697559  47.3456144
  81.9818401 108.3994675  47.6184273  83.2930946 109.0111065  47.1740246
  77.1832228  84.4584274  43.1943178  76.8720388  83.9867592  42.4217081
  77.0663834  83.8400841  43.9155960  58.5528803  70.9891272   0.5588219
  58.7336349  70.9523344  -0.3804364  57.9802561  70.2396727   0.7220676
  13.5689676   5.4057604  84.5184326  12.6638818   5.1180887  84.6380043
  14.0523195   4.9750179  85.2234554  91.3452911  88.6515331  64.4833231
  91.2343216  89.0601349  63.6248636  91.5887737  89.3735981  65.0625992
  86.0295296  93.3966923  91.4615440  85.3285980  92.9753780  91.9589615
  85.7040215  94.2804432  91.2905025   7.6642197  94.5889473  82.0967007
   7.0253766  94.6247959  82.8086185   7.9619128  93.6792564  82.0876122
  55.4077578 107.9733944  82.3253441  55.4925394 108.0133915  83.2779408
  55.2211428 108.8749599  82.0634365 111.3929558  20.7101583  57.6164675
 111.9973564  20.0366426  57.3045349 111.9218254  21.5070271  57.6556110
 106.0097122   2.8939828  90.6255245 106.4677334   2.2911948  91.2112713
 106.6122532   3.6303216  90.5207443  87.1953580  64.2077025  94.5476109
  86.6195342  64.7435650  95.0930523  86.6023872  63.6227819  94.0759305
  76.8454599 103.0280018  71.8286324  77.7459002 103.1048870  71.5131521
  76.9137001 102.4936867  72.6198864  65.0967360  74.6262932  43.0534410
  65.7221794  73.9667320  42.7533913  65.6363058  75.2903318  43.4825659
  99.6468544  55.5096006  71.1561203  99.8964405  55.4693174  72.0793295
 100.4071999  55.8930111  70.7189655 105.4434109  14.0862048  89.6785450
 105.7856369  14.1493094  90.5702496 106.1899471  13.7938941  89.1556072
  96.0073757  96.3109016  68.6702442  96.8892860  96.5920162  68.4264374
  96.1237240  95.8517838  69.5020533   2.6837271  37.3787856  80.1697254
   3.4015554  37.3642921  79.5366812   1.8954012  37.4768734  79.6357250
 107.2229671  69.2672062  45.1181269 107.5121593  68.9033222  44.2813540
 107.9252625  69.0476227  45.7303238  23.5253048  10.7432044  71.5059853
  23.0649662  11.2374842  70.8277464  22.9925823   9.9582380  71.6335201
  46.3296938  13.6539209  54.2220020  46.8270111  12.8382790  54.2822790
  45.9478235  13.6373103  53.3444262  76.0506201 103.4782314  51.1832047
  75.5756569 104.2752647  51.4185381  76.0573578 102.9574680  51.9863224
  60.9554005  26.2526155  10.5017209  61.3578176  25.4968596  10.9296513
  61.2006855  26.9974065  11.0506761  67.1740913  91.8156242  65.4591131
  67.7281284  91.7449760  66.2364721  66.7759943  92.6834774  65.5267859
 101.5231895  79.0635538  54.7374296 101.5080452  79.3983173  55.6340504
 100.6251812  79.1744471  54.4251585  51.2748766  98.9107895  61.8578434
  50.8537722  98.1401634  61.4770174  50.5562019  99.5230293  62.0156431
  20.8004951  40.3675508  45.3993607  20.9090185  39.4202900  45.4839277
  20.7313681  40.6821299  46.3007450  71.0891962  80.0162697  54.0260029
  71.5037870  79.4050789  54.6349287  71.7311287  80.1282692  53.3248568
  70.0665092 104.3922997  32.1699643  69.1980982 103.9896870  32.1696258
  70.0530958 104.9900436  32.9174638 102.8654766  21.3393688  80.5118275
 103.3291817  22.1493745  80.2994633 103.0607414  20.7529259  79.7809458
 107.2302246  98.8092232  79.6110106 106.3645458  98.5217285  79.9011230
 107.1350002  98.9416218  78.6678076 111.4694500  51.1108494  49.2290640
 110.7789421  51.7645884  49.1192722 111.4815235  50.9307814  50.1690960
 101.0466385  57.5492001  46.9518518 101.0361290  57.7119446  46.0086441
 101.0748291  58.4214354  47.3450994   7.8883618  16.2181127  67.0506716
   7.0971620  15.7405412  66.8013525   7.7423626  16.4630151  67.9644203
  67.2633314  94.1403008  56.2025881  67.8585482  93.8516903  55.5107403
  66.7839956  93.3499718  56.4512777  27.9337525  13.0294120  93.4262848
  28.6690664  12.7380908  93.9654255  27.1681714  12.6092160  93.8181400
  88.4232044  88.4523201  55.2984524  88.9946365  87.7750778  55.6604433
  88.5295105  88.3738041  54.3504190  75.4771090 101.2668514  49.8084354
  75.7299757 102.1041870  50.1972294  75.8485365 100.6083107  50.3954649
 109.2664719 100.0567150  80.6114769 108.9552689 100.9014416  80.9367943
 108.4739494  99.6050262  80.3214550  85.4138470  86.6448784  28.8378477
  85.6685352  86.2751007  27.9924917  85.0076199  87.4837112  28.6197376
  44.1818237  66.1361599  72.2202253  43.7418270  65.3561306  72.5581551
  45.0880003  65.8597374  72.0836163  85.5614185 108.1051254  67.8716278
  85.7695389 108.6936951  68.5972261  85.6819725 107.2271156  68.2332945
  22.2127604  29.5560765  77.0456123  22.3641181  30.2766633  77.6572323
  22.0725465  29.9842119  76.2010574  61.4558411  94.2390156  27.3342156
  61.6811228  94.4696236  28.2354927  61.4652681  95.0727844  26.8641496
 113.9004040  24.4308615  84.7573376 113.7979031  23.4845591  84.6561623
 114.3366051  24.7118855  83.9529896  73.9089870  89.2535973  87.0127583
  74.5871496  88.5845470  87.1059990  73.1846857  88.9373493  87.5527668
  70.8216667  80.3319931  75.5626774  70.4286194  80.4260635  76.4303780
  70.7133913  81.1918163  75.1562023  85.2949715  82.0450306  57.4098969
  84.4326115  82.1723557  57.8053236  85.4616642  82.8574944  56.9320393
   7.4666053  81.2538433  89.1439819   8.0429935  80.6690502  89.6359444
   7.1811444  81.9042873  89.7855854   0.3917005  18.1630421  50.9702396
   0.9674178  18.2671726  50.2126551   0.1806406  19.0582061  51.2355089
   8.2318068  10.6038630  43.7475824   8.4103507   9.9960631  44.4651699
   9.0644038  10.6743383  43.2806253  77.0527840  87.6834774  53.2929420
  77.3605251  86.8279934  52.9934978  76.5979433  88.0527973  52.5360060
 114.7220612  88.3439827  60.5583954 114.9076653  88.8478756  59.7660065
 114.2995071  87.5458241  60.2411890  91.0616112 104.8605442  91.8003178
  91.1684036 105.0635719  90.8710194  90.2097988 104.4272995  91.8544769
 108.7552929  97.8486633  58.2130623 108.7398624  98.4543228  58.9541245
 109.6809578  97.7796936  57.9793358  72.5559568  75.6002426  78.7058496
  72.4304771  76.5103817  78.4372663  72.7979326  75.6545305  79.6303654
  71.1073828 101.2663746  51.6168451  70.5643845 101.2889481  52.4048042
  71.6919613 102.0189285  51.7071772  95.5610752  99.7126102  88.3880424
  95.6333256 100.6632710  88.4732723  94.8571682  99.5819092  87.7527046
 102.5146389  84.0575409  76.0269594 102.8004742  83.7743282  76.8954754
 102.1014786  83.2825470  75.6462574  54.2505646  66.1860514   9.7548574
  55.0572872  65.7021618   9.9317211  54.1750717  66.1852074   8.8006395
  28.0126667  19.7139788  51.9485235  27.1750379  20.1428461  52.1236801
  28.3748341  19.5325565  52.8157902  85.7902431 105.3420353  55.2000332
  86.3228989 106.1112499  55.4020882  85.8071232 104.8213673  56.0030603
  12.8664684  92.2347736  44.8206663  12.2612417  92.7620220  44.2991829
  12.6931679  91.3331795  44.5498753  71.7621088  95.7316685  69.3190718
  71.2846231  95.6350994  70.1430368  71.0786295  95.8329201  68.6566257
  68.2565880 102.4948406  71.6142464  68.1265593 103.4103012  71.3667774
  69.1114283 102.2670269  71.2487698  84.9695683  72.9408312  72.6786709
  85.5494308  72.8083372  71.9287205  85.5609989  73.1143045  73.4110260
  21.8629026   6.9121176  75.3016376  22.5179005   7.4847943  75.7006979
  21.4804029   6.4357722  76.0385323  96.7621136  79.8336792  85.5544186
  96.2940216  80.6233597  85.2832699  96.8685722  79.3294811  84.7477627
 113.2750797  97.9321480  77.1373558 113.3973217  98.2513237  76.2432575
 112.6630878  98.5534573  77.5318956  31.2591052  21.5590024  72.0038891
  31.8766880  22.2852159  72.0901251  30.8940220  21.4495206  72.8819323
  92.1928501 101.4272404  55.6772614  91.5929031 101.2466049  56.4009094
  92.0964622 102.3656082  55.5147791 105.1731014  99.4332886  72.9880238
 105.0082302  99.9595451  73.7703848 104.3050385  99.2809486  72.6145267
  89.6695137  66.2702799  82.0919514  89.0065670  66.8382978  81.6994095
  89.5820522  66.4156103  83.0340004  82.3198128 100.3503609  24.5948362
  81.5308285 100.8771610  24.7222233  82.2179985  99.9740982  23.7205982
 104.3327236  86.8725681  81.5222645 103.7515736  87.5128841  81.1117935
 104.8180485  86.4873123  80.7926941 108.6289978  87.4928951  65.5382442
 107.8908634  86.8838978  65.5155516 109.3958664  86.9462490  65.3670216
  22.8243232  58.5827923   9.6493572  23.1045890  59.4961500   9.7082049
  23.6299706  58.0775452   9.7583640  65.9711504  76.5054131  91.6357613
  66.0833883  75.6974316  91.1349678  65.9317875  76.2182617  92.5480270
  69.2134905  78.4723425  58.4834862  68.5763025  78.2402992  59.1590405
  70.0641584  78.3023310  58.8880777  59.7097540 104.9705219  70.8025789
  59.9094486 105.5564404  71.5326834  58.8260841 105.2187824  70.5310345
   8.6620277  25.7808566  79.0812492   8.1873459  26.1059499  79.8462486
   9.4255698  25.3331113  79.4456148  72.3053265 103.6472893  52.3608208
  72.3187923 104.5722389  52.6068211  73.1799078 103.3276939  52.5826359
  92.0514297 101.1265087  75.9063292  91.1164761 101.1463451  75.7021046
  92.4761772 100.9488201  75.0671339  67.2876930  81.4742661  47.3794699
  68.2373571  81.4460564  47.2629595  66.9915152  82.1498966  46.7695189
  99.3352699  60.0941372  93.1128120  98.4127903  60.1148796  92.8581715
  99.3216991  59.8743963  94.0443516  88.9444542  87.8360939  52.5527811
  88.8217163  88.4447002  51.8242455  88.2996178  87.1455574  52.3992443
  90.3974819  86.2817574  82.6268387  90.6873512  87.1014786  83.0271816
  91.1290455  86.0153294  82.0700073  13.0149496  62.4086237  55.0348043
  13.4123361  62.7713776  54.2431450  12.5708187  63.1522655  55.4422092
  66.4045191 103.6266327  66.5573692  66.0742807 103.2075882  65.7626534
  66.3149834 104.5645523  66.3885021  70.5018473  97.0446777  89.5998859
  70.8877420  96.5380192  90.3144550  69.8317480  97.5822258  90.0220680
  81.6934967  95.3659439  70.9658051  82.5487614  95.7955170  70.9509897
  81.2025928  95.8329487  71.6419363  99.6206760  95.1008320  64.0529680
 100.2088356  94.6119118  63.4774160  98.9417934  94.4702530  64.2931938
   0.2903687  65.1583052  74.6945333   0.3939452  65.9148598  74.1173601
  -0.4240421  64.6550655  74.3038940  26.5399814   1.9975936  51.6314030
  25.6875134   1.9435392  52.0633841  26.7236900   1.1010055  51.3510227
  84.3930435  79.5044088  77.2889042  85.2357388  79.9568319  77.2511244
  84.3762016  79.1015291  78.1570244   1.3970308  63.2221270  71.4325142
   0.8711468  62.6713753  72.0124674   2.1428579  63.4910297  71.9688559
   1.3804813  81.5240860  59.7087860   1.3553225  82.1342850  58.9717245
   0.7479507  81.8776989  60.3341675  40.1239586  75.1968670  87.3346519
  40.4130554  74.5065784  86.7378616  40.9241629  75.6737375  87.5548553
  73.0516100  90.5236053  58.7704945  72.7004385  89.9050522  58.1299448
  73.5532236  91.1499023  58.2486105 102.5653076  48.5990953  73.5743618
 101.8835258  48.1115150  74.0366220 102.2857094  49.5128632  73.6298513
  85.7000351  90.8427620  66.1966419  86.0042763  90.2108479  65.5452204
  86.0991955  90.5523300  67.0167351  66.5471077  61.8712330  62.7029133
  67.4850893  62.0411968  62.7897263  66.3613272  61.2080669  63.3676910
   5.7402253  19.7296596  78.4007025   6.5420979  19.5729876  78.8993835
   5.0527608  19.3033791  78.9124727  33.2922816  22.6030755  80.5232716
  34.0437627  22.5388432  81.1126614  33.5678744  22.1396017  79.7324038
  67.2838879  72.8290701  74.6954679  66.6584921  73.5019779  74.4265652
  66.9111824  72.0107985  74.3672085  69.8960114  63.6499405  56.1075306
  70.1113176  63.8366652  57.0213175  70.1315355  62.7297497  55.9891796
  99.2677498  76.2454128  72.4900055  99.9765205  75.8831978  73.0216694
  99.1331482  75.5984783  71.7974806  89.6304321  81.7169285  69.8051262
  89.6500301  81.5057850  68.8717079  88.9013290  82.3303223  69.8966885
   6.9439322  13.0987215  68.1022072   6.7655987  12.1660471  68.2228184
   7.3123819  13.1601119  67.2208977  85.2636528 100.7766533  15.4553485
  85.3669739 100.1613808  16.1812985  85.4075241 100.2476311  14.6707010
   6.3108164 100.0171566  22.8833365   6.3910443  99.1071415  23.1691051
   7.1696126 100.4006481  23.0611944  85.2833366  97.0886135  84.8721695
  85.6462479  96.2659645  85.2004719  85.1825237  97.6341343  85.6522274
  52.2192669  95.3114796  11.1807895  52.1113968  94.3996429  11.4512479
  52.0790529  95.8169746  11.9814444  65.0074577  99.6971893  57.8246021
  64.2703247  99.5821571  58.4243011  64.6058846  99.9795818  57.0028782
  98.5408783 106.1633968  58.1894493  98.2997608 106.9697189  58.6454487
  98.4757614 106.3849354  57.2605181  45.9566116  72.6469707  88.2431602
  45.7265854  72.3185301  89.1123199  45.6492329  71.9687080  87.6417351
  90.8154106  97.4359798  58.5528326  91.1730957  97.8001881  59.3625546
  91.2734795  96.6028309  58.4421015  13.6733568  86.4410305  82.1104908
  13.3874333  86.1752319  82.9844666  14.1995442  85.7056046  81.7966461
  60.9963083  73.4271431  19.9535429  61.9081163  73.4818029  20.2396417
  60.6110859  72.7497053  20.5093408  69.7970963  72.1776152  32.3147178
  69.0867138  71.5710640  32.5237298  70.0362253  72.5655794  33.1564593
  23.3752751  55.1402664   1.2629259  22.7681136  55.5361509   1.8881145
  24.1379786  54.9000406   1.7890486 105.2085781  38.7522817  85.8814240
 105.5880356  39.3129373  86.5581036 105.9634686  38.3436632  85.4578590
  56.3914967  72.2420979   4.1809842  55.8495712  71.6937923   3.6136079
  56.1012650  72.0292616   5.0679451  74.5035362 107.6847839  72.0782375
  74.0620804 106.9995594  71.5764189  74.9892998 108.1860638  71.4232683
 102.3724651  77.4374866  64.0992785 101.4726067  77.5136900  63.7819767
 102.8935623  77.9245806  63.4609795  83.6508656  80.2505684  66.4356661
  82.7724648  80.5562401  66.2093735  84.0869999  81.0218811  66.7977381
  71.6233110  88.6227608  88.5987759  70.8981943  88.0403709  88.8251781
  71.2013865  89.3966007  88.2254314  60.3335238  92.6197147  61.0349560
  59.9705935  91.7379761  60.9509802  60.6398010  92.6674175  61.9405746
  87.1416187  97.6456928  93.3349991  87.8135204  97.0801449  92.9542828
  87.0371437  97.3241329  94.2304993  91.8791676 107.5136471  69.0675592
  92.0081425 108.0057812  69.8783636  90.9436703 107.5971603  68.8829184
  86.2383461  96.6246128  71.3805962  86.4604759  95.7629108  71.7332268
  86.6656685  97.2432423  71.9729805  66.7667198  80.3669834  85.7764149
  66.1552477  79.6317530  85.8184147  66.3912535  81.0245228  86.3619900
   9.9920660  11.4555681  74.5816612  10.4290915  11.0316038  75.3202343
   9.0816879  11.5475082  74.8627138  96.8313503  93.0871677  76.9749022
  97.5028229  93.6133862  77.4090195  96.9807816  92.1972942  77.2943258
  25.4364061  95.9558105  74.1796255  25.5445957  95.5209827  75.0254726
  24.8824310  96.7131519  74.3687677  76.2029266  83.1078053  93.9464760
  77.0797777  83.0673409  94.3282127  75.6582165  83.4853268  94.6371269
 108.1060505  88.7653732  84.9087906 107.3037434  88.8358498  84.3915176
 107.8048038  88.5367775  85.7881165  91.2982655 103.1798077  69.6471119
  91.4151192 103.5666275  68.7793875  92.0911694 102.6622486  69.7873735
  77.7259922 104.9884510  83.2078362  78.2051325 105.7823467  82.9703903
  78.3922958 104.3013477  83.2205582  89.2216587  95.8494091  48.7264252
  89.8967361  95.6330967  49.3696308  89.0020370  95.0116730  48.3187532
 108.6818123   6.5955633  86.5339184 108.3449650   6.9204772  87.3689079
 108.0063248   5.9938967  86.2209702  56.3315487  73.7969017  24.0557575
  56.4179182  74.4706059  24.7302198  57.0022058  74.0176678  23.4094453
  80.1252460  91.5948868  54.5006466  79.9209929  91.4173222  53.5825014
  81.0702229  91.7470360  54.5106983  84.2072964  84.5067978  50.5277729
  84.8104668  84.0257549  51.0943460  84.7758770  85.0161934  49.9503136
 110.6624508  62.6347876  55.0253105 110.0152397  63.1398916  55.5174685
 110.4884911  62.8506851  54.1091442  63.0016375  22.9191709   5.0355238
  63.5359526  22.9294920   5.8296460  62.0990229  22.9271603   5.3540391
   5.2660233  39.9754524  14.0876949   4.4748238  39.8507142  14.6117902
   4.9648064  39.9150157  13.1811380  47.4921608  20.2299953   2.6220852
  48.3896351  20.5622554   2.6415017  47.3874903  19.8742926   1.7396170
  47.4322653  23.0872345   3.7273428  47.7066517  22.3668122   3.1599480
  47.8550434  23.8605785   3.3539382  43.6884165  28.7796807   1.4428864
  43.4026098  29.3937588   0.7665320  44.6043253  28.5993934   1.2311263
  87.5646591  83.4511757  55.3375101  87.5431633  82.9104042  56.1270189
  86.6439342  83.6209774  55.1383591   3.2394552  24.5928645  68.0414772
   4.0164167  24.5340776  67.4854994   2.7431262  23.7985229  67.8442192
  30.4985762  34.4119501  30.0466704  29.6561623  34.1544986  30.4212236
  30.6118321  33.8340378  29.2920709 110.9703541 105.4660225  59.6764374
 111.7811394 105.3128719  60.1616192 111.0084343 104.8491287  58.9455366
  56.4670753  34.4540811   8.6869872  56.9889784  34.7212291   9.4436109
  56.9662046  34.7626352   7.9307485 103.0227089  76.0940695  66.2870884
 103.9457226  76.2472963  66.4890623 102.8780174  76.5571260  65.4619360
 111.1148262 103.5051727  93.0737019 110.6594467 102.6636791  93.0462074
 110.5443954 104.1021347  92.5894642  10.7683551  14.5917678  66.9428253
  11.2256300  14.7976005  67.7581549   9.9295580  15.0468743  67.0171785
  74.7457409  73.5357857  65.1520300  74.1976452  74.2721653  65.4232597
  74.3438911  73.2240248  64.3411350  80.5358601  99.9386120  54.6114874
  79.9993181  99.8420238  55.3982687  80.0282764 100.5200577  54.0453434
  79.6354151  73.7550163   4.8433188  79.7766590  74.6604013   5.1200134
  79.0379763  73.8226175   4.0985200  70.6343651  57.7550650   3.8511065
  70.0850487  57.7406693   3.0673480  71.3784790  57.1940899   3.6323965
 100.7237244  80.7645035  76.9155931 100.3164768  81.2876892  77.6060009
 101.0482502  79.9846745  77.3659039  57.6273727  86.8598557  56.5719795
  56.8837118  87.4608803  56.6164207  57.3832273  86.1338711  57.1460629
 105.8168125  98.5769463  60.7589436 105.0881100  98.9100170  60.2352142
 105.6199741  97.6480389  60.8798218  72.1921253  84.6980381  50.4831314
  73.0470228  84.5683002  50.0725746  71.7017555  85.2265167  49.8534632
  75.6604624  73.2044697  74.6592379  76.4393616  73.5892057  74.2573357
  75.5377340  73.7017536  75.4678679  82.8947067  95.5391026  85.0161362
  83.3981514  96.3460445  85.1239014  81.9843864  95.8058167  85.1442719
 101.6133595   8.0595082  51.5419436 102.5442028   7.8383034  51.5707731
 101.5958309   9.0149456  51.4865875  95.6620789  74.0419674  59.2916727
  96.3737488  74.5486403  58.9004755  96.0505772  73.1870556  59.4772148
   3.9142996  25.8182502  43.8490772   4.4532868  25.7021570  43.0666161
   4.5284256  26.1135578  44.5212936   4.4730490   5.1874822   6.6981930
   4.7816193   5.4519761   5.8315563   5.2723479   4.9971539   7.1892411
  84.4303894  77.9499197  82.9438400  83.8864803  78.6622286  82.6076698
  84.9828339  78.3630705  83.6074162  23.5111451   2.1707763  48.3550358
  23.3483028   1.5385878  49.0550709  24.3427062   1.8934661  47.9705429
  16.8860126  11.9216299  63.1288767  16.9039774  12.8156304  62.7873039
  15.9846282  11.6305888  62.9909182  21.0774183   3.5834131  64.0655041
  21.9598651   3.2717907  64.2665291  20.9003949   4.2475644  64.7316837
  51.1005688  26.8859172  65.7049370  50.7221699  26.7671061  66.5761042
  52.0203304  27.0936584  65.8696079  49.5034790  22.3186994  66.3601303
  50.0920391  22.7144599  67.0029402  49.9662161  21.5356541  66.0618925
  23.4480166  16.9896531  45.9894228  24.3997788  17.0895481  45.9693623
  23.1899834  17.3254621  46.8478441  39.3540287  10.4761374  90.8769321
  38.6319375  11.1001158  90.8029842  39.9364805  10.8604097  91.5321541
  12.8818321  14.0304458  89.8722553  13.8092637  14.0946639  90.1002407
  12.5596225  14.9303031  89.9239159  23.0508065  20.5906725  80.3238010
  23.5014486  19.8505056  80.7303810  23.6394262  20.8746123  79.6244240
 109.8226547  13.0818224  75.9602308 109.9610519  12.6221681  76.7883539
 108.8711834  13.1475663  75.8788919 107.6753616  77.6733303  71.5555716
 107.1851921  78.4954834  71.5611362 107.0058537  76.9959688  71.4598036
  47.1140718 106.0834122  44.8545218  47.6698828 105.3041172  44.8539352
  46.5983534 106.0091782  45.6574869  29.2621183  19.5098424  65.7362318
  30.2043319  19.3845212  65.6232595  28.9257503  18.6350322  65.9306383
  18.8425708   2.9584137  79.2948580  18.4870541   2.0696998  79.2896128
  19.1863418   3.0840814  78.4104013  17.8376603   0.6240702  38.1843877
  18.0647397   0.3776760  39.0810251  17.6566803  -0.2073957  37.7460480
  12.5614727   6.5320277  78.2142735  13.1098807   7.1073407  78.7476540
  11.7684984   6.4062488  78.7354279   6.3411957  48.1664515  28.4923410
   7.1124232  48.5257864  28.9308834   6.6445595  47.3424625  28.1112266
  44.4507504  28.0866957  63.6432886  44.1179132  27.4178958  63.0448246
  43.9260387  28.8635802  63.4499979  89.4563866 101.2828827  49.4633913
  90.1572132 100.9869862  48.8824320  89.0659714 100.4755974  49.7982168
 114.5714951  21.2294912  86.6991806 114.5469570  21.3555336  85.7506371
 114.3655872  20.3029466  86.8230820  66.2145233  96.4533806  60.3966618
  65.2855635  96.5214348  60.1761293  66.5774155  95.8721924  59.7282600
  62.4630547  40.3984833  10.6165099  61.5784645  40.3146124  10.9724545
  62.7870035  41.2258863  10.9724545  63.1004238  18.5960042   6.6147244
  63.6379766  18.0621433   7.1997517  63.7219954  19.1895902   6.1933768
  45.8424425  12.2773910  66.6702843  45.0653696  11.7350030  66.5353441
  45.7353067  12.6341987  67.5520086  95.0026226 104.8728943  45.0160885
  94.5232391 104.1234875  44.6628094  94.6236134 105.6309700  44.5712328
  22.3671961  89.8307705  89.5398045  22.9951096  90.4841900  89.8480320
  21.6364884  89.8918629  90.1550865  98.2266521  90.8432579  53.6514616
  97.5176144  91.4469147  53.4298754  98.6357689  91.2284660  54.4263601
  88.3116436  93.7220097  70.8354092  88.4200001  94.4382668  71.4610815
  87.3668194  93.5716915  70.8047056  70.3978491  71.1812496  46.1364222
  71.1977911  71.1461639  45.6119299  70.7015467  71.3715696  47.0239925
  11.1990035  25.1980090  74.5856333  11.5967762  25.3090549  75.4491568
  10.7949018  26.0450530  74.3973541   5.8172607  21.6478777  59.0181446
   5.5988449  22.2392273  59.7384453   4.9738276  21.2971926  58.7320089
  40.8046389   3.2079971  33.9054871  40.8028173   3.4915188  34.8197317
  40.0460720   2.6287419  33.8328481  60.9762812   6.6965646  56.7502928
  60.3695250   5.9578478  56.7990494  61.0062313   6.9209301  55.8202410
  53.8411856  43.7771893  22.9362416  54.1714382  44.6639633  23.0804539
  53.2166958  43.8682652  22.2165537 113.0412483   9.0876991  47.1047449
 112.6772404   9.9493992  47.3077202 112.3473835   8.4725821  47.3422575
  74.2501545  78.5815239  76.3241768  73.7659216  78.8262129  77.1127701
  73.5818529  78.2438755  75.7278538 111.9219685  87.6780415  89.4281006
 111.6360760  87.1075249  90.1415443 112.7538204  87.3024082  89.1397190
 115.4671764  31.1635280  47.8697062 115.8198929  30.4950619  48.4570456
 115.0449753  31.7952371  48.4518766  22.9302692  68.8424110  23.3011389
  22.2057295  68.2713604  23.0458474  23.1053376  69.3700981  22.5219512
 107.6285553  91.3751507  39.7871995 108.3494663  90.7564640  39.9044228
 108.0547333  92.1949005  39.5369911  41.5100098  29.1676688  39.6652985
  41.7158747  29.4143844  38.7636423  40.8012819  29.7587061  39.9194765
  24.5933843  28.1166244  77.7571583  25.2179384  28.8412881  77.7250671
  23.7352300  28.5404468  77.7703810 106.8793392  96.3793278  86.3614845
 105.9446716  96.4378548  86.1634827 106.9674397  95.5694675  86.8640804
  32.9680324  36.3383555  70.2189827  32.0677114  36.3746333  69.8959684
  32.8804994  36.3333416  71.1721611  97.7738953  88.2939529  69.9210167
  97.2508240  88.1263447  69.1370869  98.2402420  89.1073704  69.7283840
   4.1492674 102.3692322  51.6324854   4.5632049 101.5368652  51.8606424
   3.2101536 102.1943283  51.6933680  37.9556131  47.5059986  14.9411714
  38.7892008  47.9285669  14.7342885  37.8431892  46.8489265  14.2542577
  86.0226536  96.5315342  68.3765888  85.8473492  95.6060505  68.2063961
  86.2637043  96.5633488  69.3023920 111.8275642  98.8557816  66.6015768
 111.2545300  98.1303215  66.8497086 111.3208485  99.3522453  65.9589291
  87.3785305  93.4547806  77.4001694  86.8895721  94.2638206  77.5505590
  86.7854404  92.7598667  77.6857853  35.3463054   2.6883528  63.0667591
  35.9488988   3.2293916  63.5770464  35.8325624   1.8810672  62.8992033
  74.8112202  92.5543118  85.8797455  74.4290686  93.0584812  86.5980721
  74.0909338  92.0122910  85.5578232 102.0141792  89.3102074  75.3059387
 102.2752476  88.3920097  75.2353430 102.7900982  89.7542000  75.6480885
  21.4840007  96.6648483  80.5542278  21.8403387  95.8535862  80.9163284
  22.1709347  96.9892502  79.9718857 104.6486187 103.0116081  85.3301239
 103.8451195 103.4802818  85.5558586 105.3414345 103.4917641  85.7836533
  56.1784601   6.3630623  87.3910713  56.0968351   6.9631755  88.1323147
  57.0115280   5.9146559  87.5365543  53.2136154  27.7713180  68.5369015
  53.2106161  26.8249059  68.6801815  54.1306019  28.0261254  68.6390972
   7.5000012  79.1113710  81.0140228   8.2729292  79.6394968  80.8142757
   6.7715514  79.7315454  80.9827328  98.4071159  52.4230623  10.9752798
  97.9426098  51.8612432  10.3549373  98.0148029  53.2878971  10.8553636
  81.9392967  47.9237175   8.0208790  81.4951420  47.2805166   8.5733718
  82.8591442  47.8671598   8.2795531  95.6519318  97.9515934  93.9069843
  96.1532307  98.5266972  93.3289051  95.7718086  97.0768452  93.5372829
  71.0191345 105.0174522  73.6431408  70.0907946 105.1216125  73.8518620
  71.3957596 104.6100712  74.4231558 109.7511005  92.7499676  26.1314344
 108.9477921  93.1364536  25.7827735 110.1433849  92.2981358  25.3843141
  60.8791161  97.8558159  49.3847609  61.8173695  97.9258347  49.5608521
  60.8274269  97.4473953  48.5206127  57.0305824  18.5823286  35.0332284
  57.9024029  18.3053958  34.7513247  57.1950293  19.2470920  35.7020187
  13.3997524   7.7178389  74.9353743  14.1811502   7.4361306  75.4110718
  12.9561698   8.3162922  75.5364704  38.3476686  51.6701794   3.9947703
  38.6697054  50.7738495   4.0902647  37.5169587  51.6781521   4.4702584
  53.2609749  62.6282358  12.2988069  52.9759789  63.4241009  11.8497968
  53.2027435  62.8443766  13.2294655  52.1156073 102.8217316  85.5869675
  51.2646770 102.5363731  85.2542305  52.6303577 102.0171547  85.6495953
  68.5081053  21.3621664  15.3535450  69.1988945  20.7235265  15.1769602
  68.6190176  22.0286059  14.6754670  24.4612908  11.6539097  59.2007446
  24.6282387  11.2492836  60.0520039  24.6121860  12.5879443  59.3458033
   8.3671498  31.2679815  78.0077887   9.0451217  31.9014716  77.7726793
   8.8237190  30.6137514  78.5367107   6.6623694   7.0972979  62.6779699
   6.4669293   6.2824553  62.2152996   7.5324506   7.3467666  62.3665953
 102.6655579  91.8454838  46.6554785 102.8969955  92.3269653  47.4497318
 102.7150059  92.4979782  45.9568787   1.3825716   5.5924094  72.2203970
   1.7262647   5.4937994  73.1083059   0.7482474   4.8814458  72.1287680
  23.0892444  22.2022200  71.8008947  22.4718714  21.5245485  71.5254974
  22.8774500  22.3595500  72.7210140 112.7124786   1.7242955  65.3876638
 112.5738239   2.3630673  64.6883965 112.2357559   0.9460270  65.0991201
  64.9538183  88.1915474  30.4268956  64.1862726  88.1960201  30.9988117
  65.6337547  87.7572155  30.9419417  79.8602629  76.1991405  70.5499697
  79.3303728  76.9273663  70.8742189  80.1431847  75.7384682  71.3398838
  21.2771177   5.9901130  66.0925531  22.0304275   6.0917300  66.6742992
  20.6363559   5.5054069  66.6128588  95.3295994  98.8428974  64.7575188
  94.3782139  98.7545204  64.8148632  95.6495667  97.9438782  64.6825218
  63.4934998  26.1036181   6.1091250  62.7717209  25.9093022   5.5112046
  63.2772017  25.6248307   6.9092572  11.7744005  17.5161159  74.7074413
  10.9782743  17.5537574  75.2375364  12.1122026  16.6311502  74.8451233
  40.2632618  32.5372529  22.4135733  40.0304985  33.4474182  22.2301269
  40.4704714  32.5266957  23.3480167 109.5930767  66.2547350  55.1087141
 109.3411064  65.7264185  55.8660936 110.3607750  66.7447615  55.4032326
   2.6576683  87.6978683  92.4231815   2.5979283  88.2710743  91.6589165
   3.5128272  87.8959656  92.8048897 104.0962505  58.6566687  45.5518341
 103.5888004  58.0008745  45.0736570 104.9330521  58.2279301  45.7312298
  15.2792025   5.9276891  68.5079002  14.5505595   5.9768122  67.8891134
  15.0944161   6.6127491  69.1503811  30.5181289   3.2649091  89.6800518
  29.7804999   3.8747716  89.6658993  30.1697969   2.4588346  89.2990780
  88.0252075  91.6271305  53.4069300  87.5218487  91.8575001  54.1878176
  88.2312107  92.4677658  52.9981279  31.3190341  23.3928037  62.5537872
  32.0466971  22.7710652  62.5404024  31.3200855  23.7436080  63.4443855
  92.4097633  46.7429972   0.5054374  92.7221680  45.8503723   0.3575901
  91.4638615  46.6500139   0.6187961   5.5688840 104.0450001  81.4510727
   5.6666321 104.8539352  81.9533634   4.9823758 103.5040951  81.9799042
 114.2376041  27.6867127  72.6435804 114.3601990  27.3406768  71.7595768
 114.2497158  26.9132590  73.2073689  84.3255234  75.8211899  87.8425026
  84.6261692  75.6215715  88.7290668  84.7775269  76.6332674  87.6134682
  29.5801282   1.9109285  80.8002472  29.8811889   1.9915727  79.8952055
  28.6942577   1.5557799  80.7272339   0.3734207  32.8379703  73.6612892
   0.6081819  31.9358492  73.8787651   1.1132944  33.1606078  73.1467724
  66.3516855 104.8926163  89.8500347  65.4124546 105.0630093  89.7790146
  66.4122534 104.1082954  90.3953838 106.7521477  84.3591022  69.2985106
 107.5179577  84.7583008  69.7113323 106.0279274  84.9441433  69.5208979
   9.6805453  68.5359335   0.5268907   9.8390239  69.0603209   1.3118333
   9.6498132  67.6333141   0.8440215  69.8420811 106.2292480  69.2159748
  69.0083647 106.6033840  68.9310551  70.2445078 105.9009171  68.4119368
  21.3697124  19.5825708  72.1225214  21.4783573  19.6657693  71.1751509
  21.8943667  18.8172174  72.3574734 107.9040623   6.2924433  63.5882235
 108.6005497   6.3602024  62.9351234 107.5673199   7.1844667  63.6726952
  34.9587846  20.3877068  69.9970007  35.1894808  20.8551335  70.7998228
  34.8508096  19.4773841  70.2724791 106.1455345  94.7293854  72.4939108
 106.1709309  93.8287258  72.1708012 107.0491695  94.9187851  72.7465200
  12.4126399  22.1426749  47.9884720  12.3710072  22.4732924  48.8857985
  12.3511386  22.9258394  47.4415684  79.9254036  80.2250671  81.4494610
  79.3424654  80.7809544  80.9323406  79.9722004  79.4048166  80.9583092
  39.6836162   1.3945799  93.7737370  40.5878401   1.4685205  93.4685326
  39.1545439   1.5006594  92.9831219 111.8041611  95.5939388  78.4312248
 112.7075291  95.8789062  78.5688829 111.3691902  96.3545036  78.0457640
  85.0985241  79.6950483  55.8872604  85.0007439  80.5459213  56.3146734
  85.2543831  79.9059439  54.9666834   4.4440329  30.2893591  56.9584656
   4.0319273  29.7849965  57.6599073   4.0751177  29.9258351  56.1534929
  93.8240814  88.7305737  71.0558796  93.4721279  88.9449501  71.9198275
  94.5423222  89.3505287  70.9292746  89.3475533  84.1823483  71.7522621
  89.6163750  83.2747555  71.8945551  90.1506996  84.6315289  71.4887667
  52.7696466   6.5604979  54.7480154  53.0306101   7.2895676  54.1853523
  53.5947752   6.2079036  55.0812912  22.1174598 103.7010479  62.0002413
  22.0246649 104.5033073  61.4864302  21.6901517 103.0272102  61.4714909
  95.8237267  94.4247913  61.2874413  95.0565624  94.6351719  60.7550573
  96.5328598  94.3169880  60.6536102 115.7383537  86.0039330  25.8763456
 116.0827827  85.2070618  25.4731154 115.1584530  86.3769531  25.2124071
  60.3799200  61.3381147  15.9605944  60.7713079  61.4226723  15.0911713
  59.8419189  60.5483532  15.9052885 115.2986050 103.2458878  54.4244099
 115.0455761 104.1677189  54.3750620 115.1871872 102.9188251  53.5317516
  86.1813354 102.2724152  51.5218830  86.4249706 103.0799389  51.9744158
  86.5098763 102.3889542  50.6304216  95.2224922  67.9872704  62.3303413
  95.4550552  67.6918364  63.2106018  95.9972858  67.7971506  61.8013906
  81.7292976  78.7078333  79.0250063  81.6126251  78.8710213  78.0890656
  82.2296238  77.8928041  79.0654802  82.1089172  38.4165311  19.1021252
  82.0770359  39.0869045  19.7846305  82.1321964  37.5880766  19.5810330
 110.1807690   6.9517797  73.5415792 110.5723095   6.3221931  74.1470098
 110.7611561   7.7120656  73.5781765  17.1103060  35.9292364  87.0004177
  16.2747967  35.7078505  86.5891457  16.9032919  36.6570640  87.5866318
 104.1221142  93.6015606  94.7875595 104.5727158  92.7610779  94.8699379
 104.0497971  93.7430477  93.8436413  88.7881947  81.1881161  29.4205761
  89.2645550  80.3708172  29.2745042  89.4273758  81.7669106  29.8361182
  88.1108475  94.8296452  64.1773891  87.3832130  94.2470646  64.3950605
  87.6980495  95.6776237  64.0137959  36.5460062   6.9244868  70.9494686
  36.9053650   6.0441786  71.0596943  35.7712579   6.8000102  70.4012871
  67.7982998  97.2306538  63.2566833  68.2333279  97.4411583  62.4304438
  67.1278238  97.9069138  63.3534384  19.8643231  11.4750719  59.4794607
  20.3292751  11.8074656  60.2472925  19.1043234  12.0503867  59.3920326
 108.0739403   2.9524314  70.4455137 108.5861874   3.4934062  69.8445272
 107.9783726   2.1150512  69.9917603  95.4480934  15.1446998  82.6073837
  96.3177204  15.0777328  82.2130489  95.4539585  15.9889960  83.0583382
  37.4666834  53.6947203  20.2920508  36.9534945  53.1304836  19.7136855
  37.5897765  53.1749153  21.0863304  89.1225815 104.9595737  33.7440681
  88.5440636 105.5893803  33.3140993  88.7551022 104.1047192  33.5195446
  58.2424307   1.3804093  65.0998116  57.9743481   0.4907577  65.3297758
  58.4296370   1.3392824  64.1619968  56.6059017  64.1976309   6.7527771
  56.9782972  65.0592756   6.9401830  57.3208618  63.5850239   6.9253486
  80.1967525 108.4406376  70.2955818  79.5105791 108.3127213  70.9505939
  80.8667088 108.9535809  70.7475615 109.7437096  22.6153040  94.2418289
 109.8161125  21.9674110  93.5409546 110.6308651  22.9606700  94.3413258
  65.4508305  96.5491772  51.6042566  65.1916981  95.8971882  52.2554016
  65.3449106  96.1035156  50.7637787  41.1318827  13.1988072  76.5205145
  40.3144407  13.2692754  77.0135212  41.3554049  12.2688699  76.5590334
  53.0650997   0.5878422  59.8339653  52.8967381  -0.3367760  60.0155354
  52.2960997   1.0431513  60.1768398  38.1091785   1.0353588  62.3827219
  37.5473213   0.9226446  61.6160107  38.9393353   1.3522165  62.0268059
  70.8519936  48.2960796   1.2606056  70.9834003  49.1196346   0.7907963
  69.9916792  47.9907560   0.9727389  37.2648573   9.2826766  54.6602154
  38.1421685   9.3822342  54.2905569  37.1090961  10.1012921  55.1312113
  62.7457285   1.4334768  58.6421490  62.8492880   1.6922966  59.5578575
  62.8892517   2.2403003  58.1475115  73.9302683  76.5552902   2.3048550
  74.2371035  77.4378109   2.5127903  74.6938467  76.1191082   1.9267930
  18.3215762 109.0661414  86.9819832  18.4648991 108.6941155  87.8522015
  18.1163693 109.9866161  87.1458340 101.2046432   5.2999955  50.2540016
 101.3803577   6.1964715  50.5398083 101.9020176   5.1073760  49.6272659
  20.6925511 100.8343124  53.9074278  20.9914517 101.1592197  53.0581236
  20.1848912 100.0501251  53.6987066  24.3706679  88.3012104  63.6703682
  23.4921360  87.9451180  63.8030863  24.2262506  89.1336441  63.2204485
 111.2288666  77.9404640   1.5340994 111.7883778  77.1709919   1.6394033
 111.5167522  78.3350897   0.7109213  43.5446310  37.5739169  57.8091621
  43.6173868  36.8185258  57.2257900  44.1933393  37.4110723  58.4939146
  40.9467220   5.5842841  76.8714714  40.2333498   6.1950606  77.0566320
  41.7384338   6.1205250  76.9146872  57.6939201  27.3591948  51.8256283
  57.4615526  28.2209849  51.4798594  57.5771427  27.4414277  52.7721119
   1.3307691  77.7729130  87.7560329   2.2145121  77.9363728  87.4266243
   1.1866324  76.8392467  87.6020050  85.4515839  94.0969849  55.7290602
  85.5510616  94.5658779  56.5575981  86.1324596  93.4245586  55.7511473
  12.7358770   6.1255848  36.7713308  13.0271304   6.7207420  37.4621201
  13.2462060   5.3279889  36.9114566  70.7347679   6.9418877  29.0151906
  70.6332159   7.5129807  28.2537651  69.9620056   7.1184188  29.5517564
  30.3530407   8.6164415  69.9305820  29.4845676   8.9176565  69.6636438
  30.2119160   7.7210945  70.2382660  46.3958788  74.0785980   1.8800892
  46.4688635  74.0297651   0.9269260  47.0422697  73.4504318   2.2022957
  75.4884195   1.1750378  92.9493427  74.9600983   0.5476198  92.4559212
  75.1428843   2.0308927  92.6956654   7.7352250  96.9216347  64.1984844
   7.7484012  96.6020298  65.1006556   6.8786514  97.3383808  64.1045094
  11.9050992   0.9633724  88.6327934  11.0097742   1.1306942  88.3384609
  11.8270934   0.2136974  89.2228222  48.4190416  14.3065965  81.1423302
  47.8093100  15.0401831  81.0628986  47.8804016  13.5299718  80.9908485
  87.8546047  84.3243313  37.5719237  88.3083248  84.7871685  38.2763052
  87.9031944  84.9196720  36.8239617  31.1728144 107.4069214  61.4121389
  31.4680791 107.3713684  62.3219681  30.2812862 107.7516270  61.4629507
  32.6976991  41.6751719  59.3378353  33.2939816  41.6699505  58.5890675
  33.2360601  41.9741297  60.0706577  36.8310618   1.1259680  60.1052189
  37.2505045   0.4824238  59.5341253  35.8932829   0.9971699  59.9630451
  96.5831470  98.4039974  71.2618208  97.2794914  97.7480984  71.2282896
  96.5830231  98.7069798  72.1698046  39.5963955 100.2361774  57.9253721
  40.2721167  99.5584679  57.9068041  38.7817168  99.7671127  57.7450657
  46.7521620  19.0811813  84.3985939  46.6390800  19.3582690  83.4893799
  47.6632309  18.7920189  84.4493103  37.7970910   3.3906436  24.2377520
  38.7051415   3.0907920  24.1957140  37.2783375   2.5863364  24.2230034
  58.1101465 101.6242218  39.1193748  58.0253267 102.5771999  39.1490912
  58.2262659 101.3654804  40.0335932  55.4363203 102.2698498  60.0012302
  55.6742620 101.6473007  60.6882811  56.0809088 102.1210098  59.3094349
  90.7656288 103.6443043  81.7432785  90.7626629 103.0801582  80.9700012
  91.5211678 104.2184925  81.6179657  30.2934098  15.6647635  38.1803966
  30.2071166  14.7267675  38.0102563  30.6098199  15.7164752  39.0823078
  21.7817426  88.3943939  64.5007706  21.6235328  88.1986713  63.5772467
  20.9278965  88.6656761  64.8377943  52.1112156  30.8672762  55.9895372
  51.6487265  30.7129717  56.8132639  52.1032429  30.0181985  55.5476856
  63.1863689   7.1859688  58.1991959  63.9908695   6.7651910  57.8959513
  62.5016069   6.8294001  57.6333380 113.1030083 104.6296120  62.8819942
 112.3968506 103.9848900  62.9257441 113.8051987 104.2520618  63.4117317
  28.5434246  44.8277140  60.0217581  28.0053687  44.3523741  60.6548262
  28.8908529  44.1478539  59.4444275  40.0200605  93.9396095  74.4602060
  39.1231871  94.2627811  74.5463037  40.5668116  94.7166920  74.5761395
   5.2096915   2.7643031  45.2354813   6.1092746   2.9559821  44.9704504
   4.7067368   3.5244238  44.9431038 104.7476482  98.6773968  17.1951628
 104.3552685  99.2745495  17.8320813 104.6526909  99.1267872  16.3553655
 114.4833279 104.4308949  49.0188026 113.7960911 103.9185333  48.5928726
 115.2359676 103.8404655  49.0529251  67.0719862   0.8413863  89.6538639
  66.4222002   0.1386289  89.6418953  67.3358154   0.9080453  90.5715656
  15.7525361  97.1466732  65.9272623  15.1177931  96.4390564  65.8149815
  15.9254360  97.1662235  66.8685102   4.5150188  91.3645077  55.5947876
   3.9364904  90.6243801  55.4110909   4.1132504  91.8020153  56.3453865
  98.9670277  73.1072426  55.7987499  99.6606731  72.8867817  55.1770735
  99.3597889  72.9577637  56.6587639 110.3534794   7.7077168  71.0539103
 110.7993031   7.2405630  70.3473425 110.2785873   7.0629621  71.7574120
  55.7868433  11.8562245  66.2250042  55.8723402  10.9068930  66.3127041
  55.6238604  12.1653676  67.1161270  12.7068162  85.7835579  68.5788679
  13.0342484  85.8322906  69.4770050  13.1298983  85.0075054  68.2114744
  32.4303389   7.0901215  32.6323414  32.0123982   6.4994144  32.0057440
  33.2464862   6.6495991  32.8691459  24.0261984  35.6697035  61.8266249
  23.3940649  35.1409006  62.3134613  24.8500657  35.1883507  61.9026089
  37.0057750   6.3906616  84.1742611  37.4869967   5.7459271  84.6928883
  36.3201213   5.8842087  83.7388134  18.6614871 101.3455009  67.8965616
  17.7797151 101.0974693  67.6187277  19.2360175 100.9821987  67.2226477
  53.7247658  17.3639047  45.1717901  52.8993654  16.8964124  45.2998209
  53.4665203  18.2103956  44.8071098  21.4103222 108.1851673  49.0502691
  21.2597513 107.3377991  49.4692373  21.3632727 108.8182831  49.7666359
  60.1108074   2.7783051  44.6968031  60.2010822   2.8397182  43.7458467
  60.6696892   2.0413527  44.9433470  18.5464728  10.0790083  38.3031750
  19.2522836  10.2577984  37.6818085  17.9070008  10.7736194  38.1456232
 100.7542801 101.1229038  37.3298335  99.8315144 101.2246990  37.0966625
 100.7494926 101.0024357  38.2794118  42.9961252  16.5141296  79.8633051
  43.7123013  17.0978081  80.1136017  42.9493093  16.5875542  78.9100742
   2.0509745 101.6921043  42.5383234   2.7650791 102.2691631  42.2676086
   1.3634963 102.2865200  42.8387928  45.2582169  38.4496546  48.1852531
  46.0037756  38.5358453  48.7793446  44.6678925  37.8403854  48.6285782
  20.0235724  35.0384784  25.6080413  19.5266056  34.7538471  24.8410726
  19.5067310  34.7351360  26.3544273   7.2656679   1.2786856  43.5114336
   6.9022191   1.4203751  44.3855429   8.1729847   1.0174263  43.6687613
  24.3428731  39.7767305  29.8683691  23.8914394  39.5186353  29.0647364
  24.5109606  38.9519453  30.3241181  10.9902203  22.3928380  36.6644382
  10.2185035  22.4124980  36.0984898  11.5378654  23.1111765  36.3477278
  83.7398052  88.0275631  85.7986546  82.9947853  87.4566269  85.9862804
  84.0262508  88.3376503  86.6577435  24.8910022  42.3349762  16.8707895
  25.1013565  42.2095108  17.7961230  25.5132484  42.9978800  16.5714574
  51.9011354  11.0512376  72.9840946  51.6144514  10.1410973  72.9086828
  51.5466690  11.3452601  73.8232231  35.2659178  13.6507630  61.6690540
  35.5080771  12.7668321  61.3929081  34.6275711  13.5164106  62.3695517
   6.7577946  76.9330120  68.3853626   6.1465645  76.4006948  68.8945436
   6.4395028  77.8296137  68.4903669  27.0957112 100.2999306  42.1177483
  27.1566200  99.4726276  41.6401577  27.4759102 100.1099300  42.9754114
 107.4847507 107.5182533  70.4016590 107.2132683 106.8620396  71.0434675
 106.7876816 107.5144291  69.7456789  99.3089867  92.1821117  61.6014099
  98.6760998  91.7236519  61.0486794  99.0842724  91.9170761  62.4933147
  97.4206924  91.4070129  57.2230959  98.2932854  91.0359573  57.0922089
  97.4024963  91.6561413  58.1471300  96.1704636  92.3190880  93.6780643
  97.0860863  92.5674152  93.8053417  95.8550930  92.1082497  94.5568752
  11.4316332  17.5644767  54.9774313  11.7398334  16.8999410  55.5935764
  10.9896052  18.2127738  55.5256557 110.9729862   3.9088488  73.3266544
 110.0654030   3.7709439  73.5977697 111.4840412   3.7782171  74.1253948
 113.8333988 102.4493980  81.0437870 113.5891819 102.9931736  80.2948570
 114.7833061 102.5465393  81.1106873  32.1658587   4.8697981  64.4876623
  31.7228460   5.6675339  64.7767830  32.7358055   4.6336728  65.2195358
  35.9991288  44.4499445  39.3547106  35.1198006  44.1616821  39.5994854
  36.5852833  43.8684130  39.8389363  74.4195080  19.1862333  39.8876476
  74.0814734  18.7460518  40.6675243  74.3514204  18.5302460  39.1939068
  30.6076336  17.3414350  63.1059408  30.6627178  17.4405634  64.0564013
  31.3998055  17.7644849  62.7746964  51.2218428  11.6681933  67.4375677
  50.2711391  11.5711629  67.3830128  51.5134430  10.8988225  67.9267216
  15.1620483  17.8256714  73.6256790  15.1813877  17.9812109  74.5699596
  15.8054209  18.4380233  73.2688475  17.9848123  11.3537145  33.2523227
  17.9195392  11.6695046  32.3510742  18.4292805  12.0595717  33.7218404
 111.8367672 102.0867538  10.4040599 111.2803936 102.1058941   9.6253967
 111.9527817 103.0075932  10.6382215  16.4088511  10.5951965  42.4559450
  17.0724070  11.0953605  42.9310894  16.8860602  10.1933908  41.7299604
  81.4897919  99.9109077  86.6303539  80.7504749 100.3062534  87.0922470
  81.1017132  99.5197201  85.8476639  16.1336458  94.2778683  69.2377090
  16.4610660  95.0816917  68.8341141  16.5997279  94.2216301  70.0718784
  66.6499090  21.2108803  36.9397998  67.1196699  21.2786031  37.7710462
  67.2217083  20.6813908  36.3839936  78.3232069 103.3320332  53.6967945
  78.7455893 102.8794003  52.9667664  77.5910234 102.7649593  53.9388084
  23.3771801 101.5428543  80.8377838  23.6475158 102.0771980  81.5845299
  22.8557730 102.1350002  80.2958107 114.8907089 108.8806343  90.3408432
 115.2237225 108.6207867  89.4818878 115.3552532 108.3160496  90.9586525
  49.7013712  39.0466547  88.9723969  50.1179266  38.9443183  88.1166935
  50.3145218  39.5833635  89.4746113  33.4675765  31.6804528  48.2077551
  34.0810919  32.2819829  48.6296463  33.2928038  32.0763826  47.3539829
   3.3397746  97.1225548  86.2875366   3.4255892  96.3671684  86.8691444
   3.8785055  97.8008652  86.6948318 103.1958580  90.9004688  64.9718714
 102.4639225  90.4600811  65.4037952 102.8359318  91.2007236  64.1372824
  44.9413013   2.9886764  46.7033243  45.5908632   3.4940818  46.2145805
  44.1769838   3.5629812  46.7504787  47.2541809  36.6249371  64.6381950
  46.9607830  36.1075091  63.8882494  48.0600309  36.1953354  64.9250412
 114.6620846  89.3964577  44.1909981 115.2434921  88.6783409  43.9409876
 114.8847866  90.1058769  43.5882044  61.5727997   9.5376366  83.7222958
  61.5645933   8.6580485  83.3448124  61.2892532   9.4122827  84.6278954
  42.2298241  19.3759418  36.6102529  43.1400156  19.4014645  36.9054294
  42.1071339  20.2009058  36.1405563   0.3160639  92.9308033  45.4204941
  -0.2145722  93.5933304  45.8628941   0.7132454  92.4280262  46.1316156
  13.1524968  94.0292072  59.2857885  13.9241433  94.4997692  59.6010065
  12.4197829  94.4305706  59.7529745 112.7177143  65.6631088  22.3134089
 112.1585941  66.4020205  22.0733547 112.9301548  65.2428484  21.4800525
 113.8330555  92.4047756  73.9224529 114.6505737  92.7440929  73.5580921
 114.1071701  91.7041016  74.5141792  33.0001593  91.4700794  73.5321903
  32.3921204  91.8835449  74.1450262  33.8547468  91.5422726  73.9572811
  95.5217838  93.6727428  84.6150017  96.2022781  93.6271477  83.9433765
  95.9998894  93.6344719  85.4433632   2.7998546  30.6393337  67.5836754
   2.4902253  30.5684280  68.4866333   2.2749446  31.3446236  67.2051668
  31.7021394  12.9541564  32.9298687  32.2063684  13.1430256  32.1384692
  31.2766743  12.1161187  32.7484798  68.0783272  54.3245935   2.5515181
  68.8270617  54.5396948   1.9953129  68.2351637  53.4209061   2.8253433
  33.9990616  28.5724878  70.4260540  34.5241904  27.7993846  70.6328964
  33.1355214  28.2234359  70.2053785  27.9386926   0.1869833  54.0027905
  27.8251433  -0.5056216  53.3519173  28.6443114   0.7310244  53.6530018
 112.7860641  96.3041592  36.2559795 113.0025768  97.2298622  36.1444974
 113.2895088  95.8568287  35.5757761  14.7205317 102.0392418  59.8467875
  14.7840428 101.9752502  60.7997322  13.7809598 102.0075321  59.6666956
 114.1726780 104.3815899  92.2016716 113.9162064 104.4167423  91.2801361
 113.9909077 103.4799385  92.4666405 101.5001488 105.0237751  31.1129045
 101.0071182 105.7715034  30.7751751 101.7715073 105.2925301  31.9906092
  24.5800829  45.3401136  62.7875042  25.4099131  45.0298166  62.4251127
  24.3452740  44.6842909  63.4440041  48.6828995   8.8427168  49.9788666
  49.5671558   8.5422230  49.7690439  48.7271452   9.7951198  49.8939896
  34.2239833  24.3658042  86.8928623  33.6635971  24.7202659  87.5831890
  34.0180206  23.4312272  86.8734455  83.7078953  82.9555035  39.2073011
  83.2747269  83.7765408  38.9738417  84.3571281  83.2057190  39.8646617
  91.8710136  93.7934399  63.9816666  92.3844433  94.4127941  63.4630013
  91.0854816  93.6358452  63.4578943  38.0630040  25.0698280  43.4395075
  37.6054502  24.2640543  43.1994963  37.5186992  25.4596639  44.1236067
  44.9927998  13.9332485  71.9681597  44.5918655  13.1024051  71.7128420
  45.9104252  13.8456273  71.7102575  36.2890816  31.1839724  34.2544365
  35.8302307  31.8711710  34.7375989  35.7943010  30.3867722  34.4439030
 113.7706566   4.3417928  75.4350471 113.0670071   4.2924103  76.0821009
 113.5088253   5.0529271  74.8502731  57.9058504  13.9729106  49.2271328
  57.3722506  14.6505642  49.6422052  58.0893469  13.3489251  49.9294138
  47.8297424  20.5420732  90.7667828  48.3449316  19.7436941  90.6510353
  46.9197989  20.2494407  90.7157707  65.4573870  29.5802712  93.1046295
  65.5978441  28.6835217  92.8007412  65.9301090  29.6283841  93.9355659
 112.9189777  30.0880265  31.4319515 112.2844219  29.4061446  31.6524220
 113.6965561  29.8662663  31.9442248  31.1925125  25.3944159  28.3914232
  30.6434417  24.7131705  28.0032802  30.5746698  25.9780359  28.8317537
  64.5280123  25.8268952  48.0339050  65.4196501  25.8697534  47.6883888
  64.1173077  26.6394258  47.7383614   1.2375032  14.8337901  62.7753735
   0.3794578  14.6989167  62.3731327   1.5963680  15.5976224  62.3237038
  21.9211841   8.9811563  78.8446712  22.0991039   8.0794531  79.1120815
  21.7990422   8.9301682  77.8966665 114.0959358 106.4149952  87.9021931
 114.6468639 106.1109924  87.1808815 113.8119602 107.2891045  87.6347351
 109.6881866  43.6636448  30.1871228 110.4897499  44.1321421  30.4200172
 109.9524689  42.7447796  30.1415658  26.0865617   4.5976701  35.9706259
  26.8441582   4.2114890  35.5311441  26.3565803   5.4940760  36.1700678
  72.3915720   9.9630493  54.7229767  72.7830601  10.2635765  53.9028263
  72.8394079   9.1389978  54.9143267  83.4802723  49.5467758  39.2283750
  83.4108257  50.3788280  39.6964574  84.4209576  49.4182348  39.1066408
  25.7872343  28.7445068  72.7715683  26.6807699  28.9525247  73.0446243
  25.6844378  29.1887116  71.9299364  75.5628633  43.1581545  37.6707768
  75.4503584  42.2222424  37.5045061  75.2844477  43.2752180  38.5790777
  18.5951710  80.9909916  53.7497616  18.9967203  80.9771156  52.8809690
  19.0791059  80.3322411  54.2478371  16.4307594  30.4129195  59.4601536
  16.6325438  30.7886744  60.3170776  15.9861827  29.5887995  59.6586704
 106.6327190 104.4198322  86.7514896 107.5318623 104.5523643  86.4511585
 106.7251682 104.0783501  87.6409149  45.4886389   7.0754731  64.2163134
  46.1254740   6.5780765  63.7032175  44.6376848   6.7521012  63.9204407
  22.3190975 104.7098541  55.2571249  23.2264757 104.4120026  55.3217983
  22.1033025 104.6206093  54.3288469  55.6742573   7.5904936  57.6707458
  56.2375212   7.1948653  58.3359098  55.0193548   8.0778736  58.1705379
  22.7145600  32.7868295  42.8534174  22.7471018  33.6128759  43.3359289
  22.5600696  33.0459976  41.9450140  37.1697569  29.4350815  15.0522888
  37.0336771  29.1993046  15.9699607  36.5785432  28.8596344  14.5669413
  20.5349016  40.9257555  63.8006115  20.2929449  41.8518591  63.7956715
  21.4657831  40.9225988  64.0235090   0.6083797 109.2761230  47.5264025
   0.8344012 108.3460140  47.5201988   1.4355931 109.7224236  47.7074289
   6.4164168 108.9056206  59.4641924   7.2646618 108.6449242  59.8230076
   6.2889677 108.3311939  58.7091970 109.4779968  90.9407139  47.1599627
 108.7027264  91.0635567  47.7077818 109.1923046  90.3396893  46.4719343
   8.8288909   3.7951103  63.9699221   8.2643449   3.8022324  64.7428799
   8.4794390   3.0903229  63.4245872  26.5767908  89.0668106  26.6615915
  27.1201801  89.8137856  26.4106226  27.1325636  88.5522366  27.2468829
  57.5042629  34.2021489  43.9358759  58.0556774  34.0009618  44.6919823
  58.0966425  34.6225405  43.3125067  19.6062994   1.5410963  65.0622988
  20.0146008   2.2861615  64.6213913  18.7005961   1.5464599  64.7526121
  15.2544785  87.0166779  75.5699539  14.7671676  87.6764011  76.0634375
  15.6967247  86.4949226  76.2396002  75.3413820  15.9883022  25.4857707
  76.2761593  16.1613047  25.3739762  75.0250864  15.8010221  24.6019650
  44.1418266  31.6882133  53.3270502  43.3987284  31.9259834  53.8815880
  44.6869612  31.1313510  53.8828945  28.1313252  30.1004028  60.2946997
  28.7534475  29.5562029  60.7774496  27.8692269  29.5605469  59.5489836
  28.5259271  32.2426081  39.6253157  27.7746391  31.7815280  39.9984121
  29.1921163  31.5643334  39.5140886  38.0768085  17.2792077  91.2810993
  38.3074927  16.5574336  91.8659592  38.7727857  17.9236197  91.4098644
 109.0946579  92.0627785  87.5384903 109.4267559  91.2787437  87.1011734
 109.5017624  92.0445347  88.4046078  53.8138580  25.5472732  48.6017179
  54.1315603  25.5378437  47.6988268  53.2843590  26.3424754  48.6610174
  49.7779560  53.9390278  43.2084990  49.5471573  54.6114779  43.8494158
  50.5288696  54.3028593  42.7394676  17.1580350  33.1656790  27.0716572
  16.6168737  32.4077606  26.8504453  17.5487602  32.9425955  27.9165220
  51.8263865   9.5924187  69.0528154  51.9528294   8.7774783  69.5387316
  52.4948549  10.1837540  69.3987989  32.4820852  12.0281792  75.7358217
  32.9554534  11.4441919  75.1432705  31.6020155  11.6552591  75.7872009
  37.5500655  21.3365245  52.9295397  37.9673004  22.1941614  52.8482771
  37.7335978  20.9010458  52.0971298  96.2349224 102.0417786  27.1822834
  96.3578606 102.1384811  28.1266165  95.9860134 102.9160500  26.8823886
  59.2697668  88.2061863   9.2900258  59.7635174  88.3871651  10.0898314
  58.3528852  88.3015442   9.5478308  44.7835541  51.6416502  49.1095924
  44.9305773  51.2184525  49.9554777  45.6078577  51.5253592  48.6371136
  13.2238615  28.7404990  41.1170292  13.3948195  28.5654044  42.0424223
  14.0887105  28.9024830  40.7401609  10.6381178  92.9625511  82.4820805
  11.4157796  92.5707436  82.0846462   9.9097472  92.6409531  81.9507790
  52.3141193  40.6454182  59.0859365  53.0980778  40.1281261  58.9014292
  52.5996494  41.2906170  59.7327948  59.0937185  26.5081310  91.8207359
  59.4491959  26.0341477  91.0689354  59.7114849  27.2247148  91.9660091
   8.0010664  14.0189660  62.9380369   8.1084687  13.9459264  63.8863802
   7.4137568  13.2991815  62.7073669  53.1317759  49.3774652  59.0279293
  53.1076479  48.6044645  58.4639120  53.0564690  49.0284061  59.9160290
  44.1004992  47.0884657  73.5412407  43.4897947  47.3658371  72.8583527
  44.8668194  47.6489258  73.4192944  59.6709251   9.1615963  58.0792856
  59.4778109   9.9857706  57.6324320  60.1409054   8.6405575  57.4282312
  16.9612861  30.4147482  73.2233191  17.1234059  30.5444837  72.2889090
  16.0359550  30.1752996  73.2748795  31.7621660  25.8875442  53.7841225
  30.9748745  26.4224362  53.6826611  32.0155764  25.6621313  52.8890228
  53.6749315  12.7217865  71.8034840  52.9829025  12.1057093  72.0438480
  53.9222717  13.1382060  72.6291037  61.2238836  13.9565074  87.0574951
  61.0149574  13.4043539  87.8109550  60.4061127  14.4137716  86.8615532
  99.6469307 106.2565136  80.5089378  99.2854881 107.1415329  80.4605198
 100.0510883 106.2099266  81.3753700  39.1742563  19.9170709  68.3880949
  39.8196340  19.3655288  67.9459190  39.2089653  19.6394670  69.3034983
  27.4708891  15.6071746  44.2292738  26.8408632  15.2619231  43.5967398
  27.7086306  14.8519278  44.7671509  44.5309973  20.2120805  59.3681717
  44.0344477  20.8428454  59.8895216  45.3464890  20.6660891  59.1558313
  26.6468811  31.0843730  41.0206175  26.3036609  31.5889263  41.7580843
  26.8923211  30.2409840  41.4009905  28.1152487  14.2451763  55.2499151
  28.8842535  14.7915506  55.0876236  28.4693074  13.4383452  55.6239462
  40.7788181  28.7417531  20.3414679  40.9281445  29.3395567  19.6089637
  41.6558456  28.5345674  20.6641531  50.4542542  97.8798389  30.0080633
  51.1612892  98.1627941  29.4281793  49.9787474  97.2209263  29.5021343
  66.0432625  30.2728581  30.5561519  65.8670473  31.1674690  30.8474398
  65.6086540  30.2078629  29.7057867  36.8122101  91.9655895  51.9382954
  36.9080138  91.1042404  52.3446512  36.1757255  91.8298149  51.2363768
  33.0071783  45.4143238  35.8380699  32.8501010  45.4115963  34.8938513
  33.9599752  45.3784609  35.9224749  62.0592022  12.0276070  58.9528036
  62.5452662  11.2440252  58.6959505  61.9699430  12.5302339  58.1430912
  60.3151894  16.6016459  81.1130619  59.5215511  16.3839793  81.6019344
  60.0044250  17.1184361  80.3697014  19.9049473  12.5492525  35.0463271
  20.3926897  12.1733975  35.7791781  20.5272889  12.5487781  34.3190551
  57.9709291   7.3706132  73.5466862  58.3874273   6.7803514  74.1746569
  58.6825943   7.9298931  73.2352877  53.5457277  30.3599429  44.8105001
  53.7822247  29.5599413  45.2798605  54.3759394  30.8205748  44.6888494
  50.6402636  43.8082743  68.4607458  49.9543047  44.1162777  69.0530539
  51.3764000  43.5982847  69.0354109  10.6045675 105.4017544  48.8188410
  10.3527975 104.7519302  48.1626606  10.7093167 106.2141228  48.3235359
  35.6074095  33.9731932  64.9802637  35.0134254  33.2977676  64.6528244
  35.4909682  33.9545250  65.9301710  97.2179794 100.8702946  72.9993343
  97.6033020 101.2017822  73.8104343  97.9542255 100.8130264  72.3903227
  34.6211386  16.5823174  60.6986713  35.3607535  16.6458166  60.0943804
  35.0232744  16.4357483  61.5548468  66.5667963  44.3606758  41.6948414
  67.4939632  44.4822407  41.4903688  66.1492014  44.2282438  40.8437777
  45.4226398   5.5542153  53.0282831  44.5199013   5.5484110  53.3465004
  45.4967451   4.7571278  52.5035048  25.5654359 106.9424534  83.1399632
  26.4074183 106.5016460  83.2538986  25.2087855 106.5725708  82.3323631
 108.5797596  95.7633495  73.2218885 109.0649128  95.0508785  73.6381054
 108.8604355  96.5497017  73.6899757  36.5772367  27.2459483  68.5055304
  36.0711169  26.7597842  69.1564655  37.4903107  27.0589757  68.7236214
   0.1657102  94.9995995  71.7133665   0.9731685  95.4094124  71.4030600
  -0.5252663  95.6138420  71.4654112  31.9599080   4.3287075  28.5575628
  32.8619599   4.6461806  28.5157514  31.5114617   4.7871706  27.8469729
  43.8642693  22.5966048  89.7170353  43.5084152  23.3405042  89.2310238
  43.2485008  21.8834949  89.5481205  77.0874977   2.6294735  71.4135408
  77.0232248   1.9616747  70.7307959  77.9832983   2.9592055  71.3424921
  37.8245687   4.0608481  35.7279110  38.1565070   3.2507592  35.3408647
  38.5578775   4.3986732  36.2420750  75.1326084 106.2089539  83.4399319
  74.7176027 105.4709721  82.9934025  75.9491920 105.8501911  83.7873554
  30.1663971   3.8670993  32.3009896  29.4273520   3.2921216  32.1023750
  30.7462811   3.7818867  31.5442181  38.0775666  25.5948544  63.1038046
  38.0563259  24.8435187  63.6964893  37.4082398  26.1880255  63.4449530
  91.8499279  83.3447170  31.3018942  91.7199802  83.9664268  32.0180058
  91.7719364  83.8739395  30.5081272  59.8024082   6.3522202  38.5346842
  60.2249861   7.2098637  38.5805893  60.4720545   5.7387686  38.8371396
  58.7280369  28.7668991  27.4378061  59.0804195  27.8909898  27.2801948
  59.1131210  29.3076468  26.7482162  36.4114094   0.8244795  76.6606855
  36.2433887   0.5486828  77.5617599  37.0477724   1.5348363  76.7423391
  54.7108364  36.2186360  59.1349125  54.4354391  37.1295667  59.0319777
  55.3356218  36.2377620  59.8598289 103.4210205   4.9859416  45.7441139
 104.3763065   4.9844015  45.8046532 103.2161617   5.7528442  45.2092075
  49.0862131  44.9968195  21.2823009  48.9611912  45.2553558  22.1954060
  48.6258411  44.1611910  21.2047863  40.7864809   6.8519026  19.1422105
  41.5325069   6.9869071  18.5578704  40.1030207   6.4897794  18.5783148
  94.3588161  24.0146589  44.7015619  95.1040840  24.2130256  44.1345930
  93.8135242  23.4236312  44.1823626  21.7911792   4.0833551  79.5457888
  21.4884520   3.6956453  80.3669262  21.8501210   3.3448812  78.9396429
  64.7153902  15.0485051  54.0115070  65.2998543  14.5105183  54.5455551
  65.1159382  15.0468099  53.1421471  70.2925777   0.9960826  62.6654005
  70.8893681   0.2873690  62.9058170  70.7671595   1.4932032  61.9991636
  60.8057737  41.7596149  39.0041065  61.2697363  41.7363358  39.8410225
  60.3309107  42.5906324  39.0165353 113.9028931 101.0056305  40.0245762
 113.3098221 100.7362938  39.3231845 114.6275234 101.4379978  39.5726919
  31.6174340  18.6044896  71.7963457  31.0021853  17.8988504  71.9957829
  31.0783744  19.2858589  71.3946247  46.2461233  79.2364836   0.1765811
  45.9607363  78.4524965   0.6457823  46.7745686  79.7176361   0.8133446
   7.6332355 109.0717125  50.9692287   6.6794997 109.0403175  50.8941698
   7.8453356 108.3946800  51.6117811  42.6385355  10.7469738  35.3880215
  43.1285381  10.2983236  36.0771108  43.3025122  11.2347853  34.9007797
  38.0910206   0.3505607  64.8874426  37.7197814  -0.5051677  65.1022530
  38.0358243   0.4029001  63.9332724 102.3467350  36.2109399  65.1842213
 102.5923634  35.2858329  65.1929140 103.1782913  36.6801810  65.2517271
  50.1426840  39.5633364  19.4004476  51.0042906  39.8547244  19.6987092
  49.5289946  39.9551582  20.0218058  57.6513529  38.4427667  47.6179838
  56.8163729  38.2992959  48.0634642  58.2780075  38.5920191  48.3259821
  39.2404985  90.3720474  66.0400534  38.7881351  91.1180973  66.4337683
  39.6011639  90.7149506  65.2223921 104.5924854 104.9384880  48.5311794
 105.3905869 104.5471001  48.8862753 104.3334389 105.5885601  49.1842747
  74.3786049  17.0205081  29.9585795  75.0140190  16.7032969  29.3168163
  73.7942934  16.2766147  30.1049733   4.1216838  35.8227444   8.4760314
   3.7888905  34.9300337   8.3835638   5.0074983  35.7135081   8.8219106
  40.1713419   4.4784802  42.0849133  39.8067021   3.6191684  42.2966957
  39.8153663   4.6832410  41.2202835  27.6654768   5.5120093  60.9062433
  27.9940867   4.8407552  60.3081942  27.1249461   6.0790110  60.3561831
  56.9415474  25.4369903  81.6440010  57.6925802  25.8338237  81.2027550
  57.3012686  24.6657848  82.0822620  83.5536385  78.8821220  12.4158227
  84.3508720  78.6903954  11.9219673  82.9618931  78.1598234  12.2052157
 110.7687950  31.9751930  72.8217554 110.7553482  32.8441238  72.4204969
 110.0295353  31.9806886  73.4297800  44.8350668  42.3621130  53.8132477
  45.6305456  42.3936033  54.3447065  44.1691637  42.0033360  54.3998337
   5.3720707   1.7366914  78.2545900   5.8332926   0.9680852  77.9188061
   5.1824361   2.2610691  77.4765825  39.4251275  50.6843567  27.8997636
  39.3226457  50.4494810  26.9775033  38.5459447  50.5974770  28.2681680
  42.8229189  93.0057812  15.2839804  42.1859360  93.2357979  15.9604239
  42.9140663  92.0555115  15.3540194  46.0655069  74.5830250   4.8247316
  45.1948833  74.9180603   4.6102700  46.4452982  74.3443727   3.9791319
  18.8194120   7.2887260  78.7218618  18.4396780   7.7397233  77.9677820
  18.9152586   7.9714167  79.3859243   6.6435385  29.6017075   6.3575947
   7.2963226  29.1695285   5.8068442   5.9230542  28.9739203   6.4125329
  49.7554445  26.7755127  68.2975340  50.0770712  27.4123144  68.9357090
  49.1099644  26.2584996  68.7794971  12.6120484  11.3012326  70.6877995
  12.5510609  10.5868113  71.3219261  13.2968426  11.8724430  71.0356617
  32.9150963  45.6527948  41.4374018  32.8091502  45.9274626  40.5265999
  33.2058525  44.7425795  41.3808060  19.6557760  24.8993850  55.6132460
  20.3682542  25.3711176  56.0446119  19.6772492  25.2089691  54.7077465
  55.5284309  57.1971416   3.7531680  55.9423542  57.1828794   2.8902096
  54.7614288  56.6320658   3.6602816  33.7219834  18.3580172  43.9685726
  32.8619933  18.5606921  44.3367720  33.5381174  18.0724382  43.0736589
  48.7504768  37.5372887  72.3135805  48.4340286  37.4683619  73.2143259
  48.2651663  36.8637896  71.8370247  14.0231133  38.3739138  51.7660093
  14.6825826  38.5797119  52.4285650  14.2593873  37.4995279  51.4564085
   5.3188711  91.0021019  71.1667109   5.6345379  90.5691242  70.3735399
   5.9862268  90.8108902  71.8257284  83.1294250  31.2631440  40.6895924
  82.3210812  31.5878940  40.2929211  83.5437012  32.0420313  41.0610008
   5.3270030  97.7914143  68.4332657   5.3851181  97.2687912  67.6334476
   5.7513976  97.2538853  69.1019869  51.6238451  37.9478645  40.9677267
  50.8807230  37.4731803  41.3401222  52.0604706  38.3403802  41.7237139
  90.4197598  73.2270622  29.6455836  90.1540947  73.9376926  29.0619254
  90.7783699  72.5588322  29.0615511  20.1893687  12.8295672  39.0148902
  20.7296824  13.6021233  39.1805696  19.3543756  13.1826615  38.7077403
  65.5396414  28.8003540  48.7400770  66.1477423  28.6278343  49.4588852
  66.0331774  29.3561983  48.1370115  79.6738577  14.8395133  61.1521435
  79.3162823  15.0491452  60.2893448  78.9037609  14.7181273  61.7075253
  69.0416574   8.0657190  72.1175432  68.4500170   7.6671535  71.4793158
  68.6558962   8.9227051  72.2991848  98.8456917  98.3437729  62.8318596
  98.3070946  97.9717064  63.5302258  98.8715935  97.6620960  62.1603775
  11.9007599  28.3880019  77.4170637  11.9117737  28.7438536  78.3055925
  11.6136158  27.4813724  77.5257063  58.2403135  21.2325048  12.0103025
  58.0965805  21.0436416  11.0829926  58.1229353  22.1797109  12.0828128
  29.9275208  45.4074907  79.3704510  30.3403568  44.5439672  79.3589830
  30.5734396  45.9871483  78.9666986  30.3140664  16.1269844  49.2806721
  30.2442241  15.2094257  49.5441818  29.5714045  16.2644970  48.6926460
  69.9324179  23.7096810  92.6996040  69.4457006  23.8473892  93.5122395
  69.7026682  22.8202510  92.4306011  16.4728975  42.1161985  91.6128826
  16.7224801  42.9991531  91.3402462  17.0744455  41.9071627  92.3274994
  17.3592079  58.7495041  34.3699694  16.8408585  58.8071918  33.5673380
  17.1061814  57.9122543  34.7588396  94.1535282  54.2138243   0.6276231
  94.1609573  53.3293819   0.9935991  94.5992470  54.7486162   1.2845568
 111.8066311  47.5548029  68.3981085 111.0189152  48.0636072  68.5900688
 112.2048950  48.0024242  67.6516151   7.1548867  27.5741291  45.9650993
   7.2620142  27.4506760  45.0219584   7.2758901  26.7001820  46.3363218
  54.6118689  18.2950318  26.3931060  53.8539982  18.0353570  26.9169712
  55.3593493  18.1800926  26.9798684  38.3185530  16.6802835  94.3410492
  38.0966449  15.8244717  93.9742088  39.2550683  16.6239989  94.5308018
  29.6101022  22.2901654  64.9177456  29.3586850  21.5244484  65.4341745
  29.1706061  22.1664739  64.0764523  50.1419973  52.3522663  45.8364248
  50.2261782  53.1498766  46.3588810  49.8502684  52.6581621  44.9776173
   7.0254165 107.2924328  44.6618843   7.1652371 108.1043148  45.1492405
   6.3961220 106.8013287  45.1901245  50.6768084  29.3611002  78.7238741
  50.2924109  28.8022566  79.3992710  50.2117157  29.1222405  77.9220867
  94.5062065 100.3941345  73.4403229  95.3685570 100.7304478  73.1964493
  94.1711426  99.9908543  72.6394892  57.2135258  73.1462479   1.7771651
  56.9927216  73.0041599   2.6976484  57.4349594  72.2755766   1.4468189
  20.6863832  29.7792482  48.5892439  21.0571194  29.5519948  47.7365208
  19.8365223  30.1692700  48.3846712  29.7384095 106.2267685  57.8238297
  29.6105981 107.1478081  58.0509567  30.6449962 106.1784554  57.5205183
  50.9073067  16.3508725  74.0204859  51.2757730  16.8312418  73.2790613
  51.5914917  16.3809717  74.6892262  44.2454576  35.5676937  56.0733747
  44.5499325  35.2989268  55.2066040  44.3429613  34.7845006  56.6149759
  29.0611148   6.0791975  48.6996365  29.0067244   7.0012045  48.9509869
  28.7233615   6.0546869  47.8043413  34.2690945   0.0981098  85.6804371
  34.9411845   0.6293434  86.1074257  34.3188858   0.3456620  84.7571468
 113.3678627  92.6648998  62.8574419 112.9279518  93.5090065  62.7564430
 113.2457542  92.2287560  62.0141745  37.0574284  18.7217355  81.4963818
  37.2180414  17.8381586  81.1651325  37.3571754  19.2989695  80.7941151
  26.0580349  10.4033828  19.6587443  26.6167355  10.8504963  20.2944899
  25.1981950  10.3690040  20.0779414  42.8399658  36.2762308  42.7742195
  43.3594084  36.7949128  43.3885336  42.9311275  36.7332101  41.9380999
   3.9515561  92.6589966  39.3880868   3.4846258  93.3601284  39.8426461
   4.4214702  92.1955109  40.0813341  65.2326536  17.0662010  44.8434591
  65.6258011  16.6971552  44.0525913  65.1186991  17.9952490  44.6431684
  51.3089371  16.0454392  45.1713419  50.9543037  16.4044917  44.3579865
  50.5973673  16.1388910  45.8047199  46.4565992  26.0411024  67.9509354
  47.1114922  25.5305076  67.4748659  45.9858608  26.5214181  67.2698116
  63.7333584  98.6997604  12.6493526  64.1438341  97.9158878  12.2842729
  63.6552000  98.5153675  13.5853672  96.9000435  91.0160065  88.6097050
  97.1577930  91.1102104  87.6926804  96.0218239  91.3944054  88.6517429
  27.5809860  19.0381503  76.7470264  26.6826153  18.7662566  76.9347286
  28.1159377  18.5409665  77.3657846  28.0012798  86.5000057  51.8816328
  27.9404736  87.1239758  52.6049566  28.8132811  86.0207081  52.0464087
  80.4700184   6.1206257  51.2697220  80.0747299   5.4188991  50.7524681
  79.7467566   6.7206228  51.4517069  73.2202816  77.1862936   9.6952218
  74.1262579  76.9475460   9.4991624  72.9558420  77.7439356   8.9635521
 115.3258610 108.1909943  58.5616446 115.2584457 107.2454357  58.6943483
 116.0303402 108.2934284  57.9217672  12.5006533  65.3104305  82.2087955
  12.2687411  66.0845566  82.7218056  12.1812499  65.5028152  81.3272095
  54.0368223   0.6201748  67.6308250  53.4620667  -0.1240367  67.8098059
  53.8553667   0.8491508  66.7192984  26.5043259  12.7823567  73.2619905
  25.5576301  12.6585329  73.1936646  26.7650914  13.1142581  72.4028778
  29.8039412  19.6066129  30.1141477  30.5561519  19.2580092  30.5925655
  30.1490450  19.8187077  29.2468810  63.6970186  29.4243431  41.7594051
  63.9249945  30.2816558  42.1189499  62.7659988  29.3217731  41.9566679
  61.1544466  34.0559125  45.6027079  61.5514898  34.8776746  45.8913136
  60.2190971  34.1696501  45.7712841  29.1551590  40.8882666  79.6967506
  28.3454490  40.4902649  79.3770695  28.8890743  41.3832283  80.4716301
  29.5271087   4.5232147  40.0255203  28.6787701   4.1008765  39.8906732
  29.7044110   4.4116896  40.9595203   9.8350638 106.8893147  33.2292867
   9.7717929 107.7923679  32.9182863  10.6721342 106.8534946  33.6921716
 109.5482635  98.9174843  41.5582561 109.3986797  99.8482037  41.3920546
 109.0966511  98.7461567  42.3846483  18.0288911  93.9366722  41.6794109
  17.7326643  93.4753799  42.4640656  17.4910593  93.5781574  40.9734106
  26.0064340  62.7478409  93.5679913  25.7584190  63.6354876  93.3095264
  26.8965507  62.8373957  93.9084339  27.0545173  90.0786972  81.1295891
  27.3826671  89.3496513  80.6032467  26.6840696  89.6639442  81.9086838
  68.3786678  22.9819155  43.8717699  68.4086132  22.1873236  44.4046450
  67.6114750  23.4563255  44.1920567  97.4881649 107.6604748  28.7883878
  96.5875435 107.3452473  28.8642073  97.4184704 108.6101913  28.8853455
  41.3940382   3.8545266  11.3749993  41.9535875   3.1249130  11.1089063
  41.1340857   4.2693672  10.5524647   8.4327346  95.0878525  75.7654762
   7.5009763  94.8737049  75.7185459   8.7287527  94.6909142  76.5846491
  38.4567809 108.9114189  21.9522119  38.9937091 108.1477928  21.7405200
  38.5985613 109.5137882  21.2219453  55.9395313  77.5641823   5.6105763
  56.5305853  78.0766058   6.1622185  55.5367613  76.9359827   6.2100589
  13.5518277  91.7056465  37.6255846  14.4391882  91.3467884  37.6189375
  13.6422133  92.5752258  37.2358608   6.2307888  17.5194860  52.2822952
   6.4377290  16.6061819  52.0840979   7.0023012  17.8446317  52.7462769
  45.8346224  64.9751568   7.6495260  45.4789066  65.1299620   8.5245883
  46.4608192  64.2610359   7.7684152  88.7305355  71.9783115  12.5524104
  88.1411934  71.5651083  11.9214118  88.1916618  72.6402998  12.9855549
  15.4179978 101.1199951  52.2234201  15.3909683 100.3290749  52.7618885
  15.3480315 101.8394470  52.8508997   9.0016782  22.6785588  48.8882446
   9.9051851  22.8481555  49.1549778   8.5588801  22.4163628  49.6953487
  38.8152695  39.7054791  40.6609917  38.6289406  39.5649195  39.7326827
  39.5720243  40.2915812  40.6673193  39.8030591   7.7882397  36.3104939
  40.3183889   7.1414065  35.8285451  39.7800207   7.4557495  37.2077966
 103.1645870  99.3368912  66.8858147 102.9931450  99.3591690  65.9443569
 102.9358101  98.4457397  67.1499014  59.4410276  21.3928843  54.3133116
  58.8016701  22.0576191  54.5694017  59.0231752  20.5607128  54.5349360
  37.9568863  46.7624092  68.2567453  37.2035456  46.2295961  68.0021381
  38.2115936  46.4226294  69.1145945  36.2960124  41.9524145  51.8273544
  36.3958693  42.6903868  52.4287319  35.3507876  41.8097067  51.7781973
  54.4772005  41.8287230  70.9212637  54.4777012  41.2190676  70.1833248
  54.5553017  41.2693882  71.6940975  63.2727432  20.9752941   9.0250212
  64.0048409  20.7360482   8.4566671  62.4997997  20.6305456   8.5778832
  28.0597162  75.1600647  66.9292116  28.0947638  74.2196321  67.1041107
  28.9483976  75.3858709  66.6544533  62.1524286  37.6988602  39.4317555
  62.5752592  37.2998476  40.1921749  61.7372227  36.9662213  38.9767003
  42.5056601  27.0260072  51.3202667  42.3214149  27.0444489  50.3811502
  41.7597675  27.4737549  51.7195177  28.2373881  14.1279089  67.1021223
  27.5251842  14.4638860  66.5579557  28.5208106  13.3283055  66.6587973
  68.7901592  26.7854047  40.6084490  69.1860580  26.4180303  41.3987255
  68.4724808  27.6471496  40.8780909  51.8707275  30.2504063  40.6122017
  51.2083292  30.9199452  40.7830143  51.6717243  29.9361110  39.7302437
  43.4096193  45.7502460  32.2302771  43.5078764  46.6334534  32.5859761
  43.7838125  45.1789331  32.9009604  41.5047741  86.2231922  65.4111528
  41.8293476  85.8073044  66.2098503  41.1288214  87.0517921  65.7083511
  65.4844141   4.2733932  25.8239412  66.0743046   3.5686392  26.0914898
  65.6055498   4.9521530  26.4879012  51.7092991  55.9077024  38.0645990
  50.9203482  56.1933517  38.5252500  51.4167500  55.1782513  37.5182033
  43.8208485  29.3935657  75.6984520  44.6303701  29.4054770  75.1877975
  43.8421345  28.5561585  76.1616230  54.2059946  23.4387231  26.9747543
  54.8399591  23.9866734  27.4374342  54.1156387  22.6605034  27.5247002
  58.9637852  40.5415583  45.7038116  58.8927031  41.3965225  46.1283350
  59.0882492  39.9253440  46.4256287  54.3667889  10.2405155  87.6748943
  53.4317732  10.3103292  87.8674984  54.7132730  11.1155689  87.8494358
  33.1349397  17.7089334  41.4587164  33.7375975  17.1906817  40.9253788
  32.9823065  18.5022175  40.9452581  45.9357262  34.6099544  68.6041498
  45.6076336  33.7631655  68.9067078  45.5103159  34.7428465  67.7570391
  39.7923255  14.6798539  42.2754478  39.5944285  13.9317012  42.8387737
  39.2792249  15.3991914  42.6435661  56.0053253  23.2846427  68.0824089
  55.5719185  22.9227734  67.3094654  56.3847780  22.5239396  68.5223866
  49.2737436   1.3908105  75.1601219  49.2285252   0.6165429  75.7211018
  48.8959742   2.0928305  75.6899261  16.7635405  29.4782567  44.8561811
  17.2093356  30.3048182  45.0413704  17.3803830  28.9904690  44.3104744
  43.0671120  34.6453547  35.2054715  42.3058510  34.0650916  35.2023435
  43.7489700  34.1434956  35.6520581  52.0595932  30.0746322  67.2090864
  52.3661900  29.7523880  66.3615084  52.3501682  29.4125962  67.8363895
  49.5097065  18.6193001  63.6851311  48.6187553  18.4626091  63.3722687
  49.7360182  17.8260660  64.1707182  27.4835563  27.5478745  49.9222183
  28.2749510  28.0709767  49.7945881  27.5971675  26.7958999  49.3409634
   1.7584662  29.6585107  70.1050615   0.9967776  30.0508618  70.5318213
   2.0244695  28.9513469  70.6927633  35.1714802  20.4884696  58.6205578
  35.6791186  20.9905910  59.2580605  35.0809598  21.0759544  57.8702879
  32.6956773  50.5202532  74.0218401  32.8522396  51.4621449  74.0893936
  31.7423439  50.4367781  74.0014172  72.0673132  44.8829508  35.5728531
  72.9235172  45.3081512  35.6213021  72.0807838  44.4115543  34.7398853
  55.4654884  41.4096308  65.1947165  54.7550488  40.9216595  65.6111193
  55.2678871  42.3272324  65.3823233  53.2533216  16.8829191  83.0305386
  52.7127790  17.5042152  82.5426483  52.9933405  16.0247338  82.6956367
  35.5048180  15.0224149  67.6517057  34.9680638  15.1107097  68.4393167
  34.9190068  14.6279192  67.0056152  30.1144361  95.6914425  65.8349228
  30.1945162  96.0340977  64.9447489  30.8939719  96.0143566  66.2868977
  37.2187018   8.7488502  47.5344801  37.3871851   7.8219604  47.7039480
  37.2495890   9.1597712  48.3984375  52.5740004  15.1009929  55.8769035
  52.3267794  15.5726004  56.6723299  52.5422382  14.1774249  56.1263943
  47.3720074  20.8367562  39.5597482  46.5664721  20.4795575  39.9335814
  47.8926325  21.0990572  40.3189468  41.7334652  55.5580997  18.4103835
  40.9335518  55.7530499  18.8986135  41.8246126  56.2885189  17.7984941
  51.0484028  33.0166793  59.7241402  51.9274950  33.3594680  59.5631313
  51.1713123  32.3501205  60.4000282  73.8688850  11.8646228  61.4394665
  73.8097811  12.4738455  62.1753931  74.7343302  11.4653695  61.5279627
  39.3761206  23.7350512  24.6949291  39.8446989  24.3915415  24.1794801
  38.4665608  24.0332580  24.6926594  62.2343826  27.8412080  57.6141453
  61.7481136  28.4926867  57.1088266  61.7198324  27.0386505  57.5283051
  48.6602592  32.8459024  68.3800554  48.5518551  32.8527522  69.3310738
  47.8109121  33.1275010  68.0401421  65.2172852  24.2244673  54.1802597
  65.0661278  23.3264685  54.4751883  64.5229530  24.7338867  54.5981407
  40.3688478  21.1119342  76.1695337  39.4591331  21.0694861  76.4642382
  40.8175802  20.4376674  76.6796637  44.6399450  20.5670142  67.5049496
  44.2254829  20.8302546  68.3266306  44.9744272  21.3831854  67.1331739
  29.2128968  19.7850072  46.7989302  28.5059786  20.0099087  46.1940193
  28.9003658  20.0819349  47.6535606  27.6854610  40.6035042  53.4999514
  26.7498446  40.7740736  53.6083889  28.1141090  41.2669039  54.0406847
  55.2941847   9.1818625  25.6759691  55.6955767   9.7310632  25.0025487
  55.4624939   8.2854164  25.3856444  22.4998164 107.6164341  36.8417120
  22.1123338 107.5425148  35.9695745  23.4231806 107.8084087  36.6780710
  38.7976313  21.2812781  42.6769066  37.8889775  21.2075448  42.9686928
  39.1055536  20.3766537  42.6214981  79.6267033  75.9092903  10.0848544
  80.3843498  76.4942026  10.0935626  79.1012669  76.1867666  10.8352935
  62.2515249  43.5467672  26.7459655  63.0668116  43.7064362  27.2214103
  62.1773767  44.2861462  26.1425996  62.7088881  13.5134268  11.9870424
  62.3892927  12.6282310  11.8123436  63.0300808  13.8235557  11.1403513
  91.2046146  43.8292027  12.4708652  90.2501774  43.7583780  12.4872601
  91.4799404  43.5586452  13.3467782  58.1860876  13.4890902  56.5010309
  58.4373474  14.2468774  57.0291042  58.1917524  13.8124752  55.6001282
  64.5046711  86.1119080  28.4771776  65.0117588  86.5745354  29.1443110
  63.5923481  86.2464714  28.7336707  51.1721277  12.9702032  44.8747396
  51.4834547  13.8750887  44.8526573  51.8709183  12.4871850  45.3158855
  34.9831772  10.5924118  24.7220564  34.3880582  11.3412666  24.6862841
  34.7236657  10.1177514  25.5117297  98.9374924 102.2228336  25.7733870
  98.6245441 101.3185692  25.7491064  99.8723888 102.1580601  25.5784559
  45.6767988  64.5181227  33.0914927  45.6749487  64.2408895  34.0076661
  45.3783369  63.7480402  32.6076269  43.7721014  47.5463963  53.5115528
  42.8946352  47.1673679  53.4603024  44.2148638  47.2328806  52.7229500
  31.8982363  18.3833861  31.8819904  31.5678239  17.4897540  31.7898965
  32.5462556  18.3279586  32.5842929  49.1933632  46.8863869  40.8380270
  49.6999121  46.1912680  41.2580967  49.6108055  47.6968002  41.1299324
  55.6644535  43.7526798  31.6425490  54.8453808  43.9335155  32.1036911
  56.0170984  42.9757452  32.0764208  52.1464205  41.1626482  47.6702261
  51.6383028  40.4282713  48.0148125  51.9843102  41.1444283  46.7270327
  11.7354822  37.1750808  78.6507130  12.0987260  37.4134302  77.7977896
  12.4915695  37.1608615  79.2375374  36.5148592  24.4054246  39.4357395
  37.0976853  24.8973632  40.0141382  37.0828176  23.7584400  39.0173340
  58.4080982  10.2693248  38.7108517  57.6729631   9.8649973  38.2500601
  58.2842875  10.0182676  39.6262050  55.5336571  18.4813917  75.6877327
  55.6672049  17.7835429  75.0463247  55.7197380  18.0698419  76.5316725
  46.2078857  19.2038977  42.6844501  45.5926275  19.8523796  43.0267334
  45.9494734  19.0877843  41.7701340  49.8955679  48.3237076  21.4366770
  49.9196386  48.9494133  20.7126975  49.0854836  47.8320551  21.3015008
  34.2426467  58.7103653  25.9054685  34.3010187  59.4272041  26.5371060
  33.3741832  58.8058043  25.5144525  88.0523205  77.2585249  10.3180778
  88.4730053  77.8544235   9.6982735  88.6936665  77.1516943  11.0205698
  21.8836594  31.8001056  82.5307274  21.2698889  31.0683012  82.4676514
  21.3264585  32.5775361  82.5676060  46.4707756  35.0327563  62.8253031
  47.1006775  34.9618220  62.1080685  45.6212425  35.1105428  62.3911619
  62.3937702  23.7449241  26.3106060  62.4752378  22.9258013  26.7991042
  61.8900967  24.3189049  26.8877482  27.3453856   9.6615547  35.7671905
  26.4558840   9.3299639  35.8899403  27.3664689  10.4799843  36.2631345
  91.4386940  99.5823288   4.1640794  91.5410805  99.0577602   3.3699912
  90.7388401  99.1465473   4.6504265  39.1531157  21.2036133  66.1490154
  39.4026399  20.7630897  66.9613647  39.4456029  20.6116962  65.4559660
  56.3708782  27.8958297  71.9567776  56.4210081  26.9591641  71.7660522
  56.4348364  27.9498553  72.9103088  55.4326057  14.4123328  58.2538509
  55.5590963  13.9512730  59.0830994  54.5540142  14.1591537  57.9706335
  57.5870705  53.6941099  67.8174877  56.9096613  54.1255474  68.3382750
  57.9471636  53.0251884  68.3998203  24.5905685  15.9938097  79.0998840
  24.4790387  15.0431740  79.1091108  25.5134130  16.1287940  79.3152237
  25.3773046  36.1957836  44.0121937  26.1510849  36.7252398  44.2049932
  24.7274804  36.4780903  44.6558285  57.6204586  32.3242927  79.7100401
  58.2464743  31.6605091  79.4206858  57.9788208  33.1498027  79.3839407
  69.7603226  12.4714434  57.3681021  70.6291342  12.5316799  56.9708920
  69.5893717  11.5315938  57.4288368  61.1485529  55.8747578  34.3968368
  60.7935095  56.1384869  35.2457333  61.3857079  54.9545622  34.5118332
  84.8219871  93.3536298  -0.1232798  85.0770616  93.6241324   0.7587545
  84.5664548  94.1668589  -0.5587085  91.7457581  98.5063076  61.0248280
  91.2625027  99.3204212  61.1659336  92.6002502  98.6622047  61.4270353
  39.1318631  55.5430841  61.3671064  39.3392754  55.1428747  62.2115231
  39.2932272  54.8496437  60.7273149  32.6754761  26.7883229  73.9715338
  33.4148169  27.3105621  74.2827797  32.5380540  26.1350417  74.6575165
  29.3566346  27.9771209  56.7530966  29.7230625  28.6327100  56.1596632
  28.5001540  28.3275795  56.9977427  17.2852325  86.1421871  61.0277128
  17.9698002  85.6015873  60.6335688  17.3049688  86.9571018  60.5259466
  52.6955080  55.0081348  62.0378733  53.0432844  54.8847866  61.1546564
  53.4064293  54.7314262  62.6160192  17.0333064  46.7024565  16.0104191
  16.6796756  47.1348047  15.2330816  17.5145221  45.9493828  15.6675804
  36.3853288  52.5471640  59.9827337  36.0223341  53.3060408  59.5260286
  37.0401645  52.1953678  59.3796921 102.5399971 106.4287949  33.3259654
 103.2134533 106.6229343  32.6740527 102.0243454 107.2331047  33.3844805
  22.8925061  23.7992072  47.5707769  23.6231494  24.0041423  48.1542063
  22.6985431  24.6265149  47.1301270  12.3028350  46.6925240   8.3568507
  11.4317095  46.6779947   7.9604149  12.7353072  47.4471569   7.9571837
  41.9784069  49.5879841  65.3446054  41.2480450  49.0014410  65.5415058
  41.5855217  50.2973270  64.8359728  85.1215267  72.1572065   1.3610163
  85.3630733  71.2402725   1.2301957  85.6469727  72.4388075   2.1099085
  43.5442829  16.7217135  44.2746353  44.4569731  16.7248595  43.9861679
  43.0837011  16.2139511  43.6065960   1.5626906  88.4173393  61.4300156
   0.8254895  88.9875221  61.6483402   2.0419520  88.8943291  60.7525063
  86.6543770  51.3350439  49.5712376  87.1583271  52.1389627  49.4448614
  85.7885742  51.6359663  49.8470354  64.7955179  31.9653440  20.4222202
  65.2895021  31.2878895  20.8840299  64.2603207  31.4836001  19.7915709
  49.2211866  15.9778118  46.9428778  48.8334656  15.1647639  46.6190577
  48.5443211  16.6394126  46.8001413  14.8005986  13.0605221  41.8044281
  15.5241811  12.5163293  42.1150970  15.2195632  13.7304568  41.2641621
  36.1663818   7.3758996  32.1326733  35.8510447   6.4894342  32.3086643
  35.9476566   7.8692782  32.9232216  61.5832043  31.6398096  36.3843441
  60.9036589  31.4648843  35.7333064  62.3926353  31.3366413  35.9730721
  54.7103596  43.8334751  66.0659790  55.1127100  44.0005875  66.9182825
  54.7137833  44.6848154  65.6284475  27.6963830 102.6657963  83.2523251
  28.0032206 103.2143021  82.5303650  27.9730606 101.7807102  83.0150318
  41.0487986  50.0368404  59.4016027  41.2616301  49.1897535  59.0099669
  41.7812967  50.6034613  59.1594934  63.1756496  38.0783367  73.3270597
  63.9157248  37.5171614  73.0955315  63.4359074  38.9513421  73.0331898
  40.5296469  25.8249402  38.5848212  40.8826733  26.5439081  38.0607104
  39.6025395  26.0383296  38.6904979  55.2701664  51.3015795  62.9242039
  54.5002127  51.0166073  62.4320698  55.1859188  52.2539425  62.9703903
   3.3581302  93.6186409  27.8223252   3.1147784  93.5989761  28.7478638
   2.5367710  93.4650803  27.3553967  62.0860481  11.6258252  74.5033789
  61.6721201  12.3918414  74.9010134  62.0312214  10.9474933  75.1764965
  55.7013035  50.2769661  33.7231517  54.9381208  50.5303192  34.2423797
  56.3806343  50.9025717  33.9748573  50.9078455  19.2871606  50.9634447
  50.3012943  18.5903692  51.2140656  51.6263199  19.2168343  51.5919971
  45.7145071  56.6099358  65.5711412  45.8965731  55.6738663  65.4883289
  44.8753595  56.7309523  65.1268291  31.9593143  12.9039490  41.3014460
  31.8795562  13.8475370  41.1617613  32.2152662  12.8185725  42.2198296
  29.4551849  42.0201540  55.0690317  29.9012971  41.2276411  55.3675938
  29.9426007  42.7368402  55.4752493  93.4259224 105.7073116  54.8407030
  92.6881027 105.3040218  54.3832970  94.0565586 104.9958611  54.9519539
  11.4987469  13.3376563  72.9815149  10.9601033  12.5672996  73.1621981
  11.1420071  13.6938524  72.1678257  45.8725357  34.0956116  73.2512236
  46.0275412  33.1768537  73.0319309  44.9658251  34.2547655  72.9889679
  46.8073797  32.5574255  52.0950174  46.7400837  32.2388196  52.9951239
  47.0891905  33.4678960  52.1836567  66.2526608  47.5185251  42.5081682
  65.6980467  47.1529865  43.1973839  66.5605593  46.7557144  42.0187283
  46.4878988  21.9061041  73.4589767  46.6585684  21.8393016  72.5194883
  47.1489906  21.3440514  73.8630676  64.3788004  39.0098119  63.2467365
  63.9808130  38.1393290  63.2367802  63.6857462  39.5935774  62.9383135
  74.9618721   4.1418108  54.6441984  75.7077312   4.6406528  54.3108988
  75.2239752   3.2262108  54.5482206  94.2080307 108.6349487  57.0772600
  93.6969471 109.1398907  56.4447594  94.9143696 108.2479382  56.5600157
  27.2229362  31.3205004  48.6213875  27.7486849  31.0367131  47.8735304
  27.6448584  32.1266270  48.9186573  70.8228731  28.9600801  61.7916155
  71.5112591  29.5361257  62.1240711  71.1677313  28.0763268  61.9192362
  65.1175594  35.8820486  60.5848646  65.9775114  35.7132530  60.1998663
  65.2027321  36.7437744  60.9927940  48.4087420  97.2163010  11.9798827
  48.9568281  96.9268799  11.2504530  48.4575272  98.1718349  11.9517088
  51.7801952  55.6671190  27.0674276  51.2651348  55.1729965  27.7052236
  51.1897182  56.3575792  26.7660427  43.5653543  43.5367346  66.3085175
  43.8654995  44.4148970  66.5429735  44.2499542  42.9539633  66.6370440
  36.7735910  30.4731679  58.2566690  37.0730567  30.0301075  57.4627829
  37.0509481  29.8989677  58.9705324  60.8112907  25.4517150  57.2203398
  59.9543619  25.6296968  56.8327522  60.6261158  24.8598099  57.9494429
  49.0949106  27.9701114  59.5708323  50.0384760  27.8111982  59.5449829
  48.8590002  27.8621960  60.4922056  50.0255156  51.5058327  48.6698818
  50.0157928  52.4535751  48.8037682  50.2737665  51.3961506  47.7519655
  54.1584921  16.9070494  49.3136692  54.4811916  16.9832003  48.4157276
  54.1823244  17.8016078  49.6534157  46.1761808  36.2314868  52.1737671
  45.5849314  36.8878150  51.8051386  45.6782818  35.8352852  52.8888559
  65.2459860  70.9433937  91.6289616  64.3907976  70.9525061  91.1990738
  65.0458574  70.8286858  92.5579453  13.0616999  14.8134768  54.7771645
  13.8402677  15.3702867  54.7720814  12.8887296  14.6351564  53.8527679
  38.0752730  32.9501629  56.5540457  37.7560854  33.6630678  57.1073246
  38.6606598  32.4495983  57.1223688  52.8809977  13.8780689  66.7275238
  52.3820496  13.1237364  66.4140511  52.5798702  14.0074396  67.6268673
  28.8655448  38.7209082  88.1273079  29.7746086  38.8537812  87.8586483
  28.8245392  39.0734696  89.0162659   5.0450832  55.2159643  54.8069429
   5.2550787  54.3400669  55.1308823   5.8917165  55.6585121  54.7469759
  64.6658468  14.3513763  13.6418688  65.3155327  13.6761236  13.4464765
  63.8557386  14.0247416  13.2503808  68.5382366  15.0021386  33.7929058
  67.8201389  15.2437246  34.3778896  68.9082909  14.2099416  34.1824150
  74.9595547  38.4902430  50.5696154  74.8905754  37.5930381  50.2432775
  75.6849003  38.4630418  51.1936045  58.8909149  39.3437123  49.9540329
  59.3347788  40.1771736  49.7973204  59.5894670  38.7472367  50.2232313
 115.1708889 101.2349987  67.1302795 116.0999870 101.0222816  67.0421982
 115.1541233 102.0031357  67.7011585  60.7368851   2.6145437  42.0769501
  60.9604454   1.7068557  41.8711472  60.3589058   2.9576194  41.2672186
  38.1677389  27.1520543  41.6972876  38.2755327  26.3287497  42.1735001
  38.4615469  27.8244853  42.3118973  47.3930454  42.8859377  45.3954887
  48.1069279  43.3868217  45.7901001  46.7512417  43.5471201  45.1363468
  59.1290331   2.6284200  20.7028985  58.3643675   3.0850810  21.0535884
  58.9763689   1.7076503  20.9152865  29.1171193  18.9769459  54.5973778
  29.5192432  18.2462454  54.1276932  29.8574829  19.4906628  54.9201632
  51.7246056  13.0565071  90.0178337  52.3311234  12.9324186  90.7478905
  51.5921068  14.0035176  89.9748516  16.3571036  81.2043571  41.2007189
  16.0100329  80.9915066  42.0670128  17.1849048  81.6512489  41.3775253
  26.7325354  12.7632606  48.2308292  25.8814383  13.1851494  48.3486223
  27.2206140  12.9829001  49.0244055  61.1814833  20.1966047  60.6370163
  60.7795954  20.8906198  60.1144648  61.1639500  20.5312252  61.5336514
  12.9654455 105.1477718  50.6584358  13.8095164 104.9854565  50.2372122
  12.3347247 105.1488590  49.9384212   6.2940842  29.7672462  29.9758339
   5.8641493  29.2571092  30.6622362   7.2254294  29.5726848  30.0805879
  59.2714310  24.3190074  30.7679725  58.9658070  23.4119320  30.7744575
  58.6675215  24.7793984  31.3506937  45.0502491  24.0473509  54.9460840
  45.4537916  23.2964849  54.5106697  44.4814014  24.4332409  54.2799473
  84.2723751   2.7562010  37.9148436  84.0415764   3.1197977  37.0599985
  84.9063873   2.0664847  37.7184963  50.3361273  56.5994596  33.0084229
  49.5342970  56.1001825  32.8534365  50.7877064  56.5954065  32.1644473
  57.2228670  42.1815920  42.9791307  57.7367878  41.5972567  42.4217606
  56.9499350  41.6326761  43.7142706  53.9580631  29.2274976  84.4470310
  53.7295580  28.3006597  84.3764019  54.8441648  29.2836475  84.0893936
  39.0958571  20.3136468  55.5358887  38.5325885  20.2597857  54.7638416
  38.6271024  20.8954310  56.1342430  59.4100428  21.3978648  47.5579643
  58.5011768  21.3472772  47.8539944  59.5929384  20.5304813  47.1968174
  73.6985350  10.9198952  70.0301647  73.8360310  11.4034271  70.8447361
  72.9051113  11.3024807  69.6555424  28.1554437  11.1635947  83.5054302
  27.5583363  11.1584628  82.7573204  27.6730299  10.7151783  84.2000008
  40.1090574  45.0630713  42.9978418  39.2057753  45.2040195  42.7142096
  40.0312376  44.7543573  43.9005470  53.5016775  35.9875655  38.1358957
  54.1524220  36.1217856  38.8249183  53.8513947  36.4605141  37.3807478
  93.3588505  16.9100308  70.0497437  93.1478786  17.1410501  70.9543705
  92.9563618  17.6025057  69.5256090  66.4590073  13.8737416  72.4804163
  67.3735046  14.0008783  72.7329302  66.0435009  14.7188556  72.6517916
  46.3027191  41.2477732  58.1767654  46.0380316  41.0123920  57.2875118
  47.2109032  41.5367651  58.0877590  68.8874340  15.5152655  65.6581354
  68.8194513  15.3829265  66.6037035  68.4791040  16.3674545  65.5055904
  43.3433676  32.8962541  14.2463601  42.8540134  32.1055532  14.4734216
  44.2147684  32.7529359  14.6156132  94.7298813  98.2577801  51.2425900
  95.0714397  98.5672665  52.0815134  94.7448444  99.0306664  50.6780910
   9.8291814  88.0074310   1.9921030  10.4679716  87.3847198   2.3391044
   9.1571277  87.4599457   1.5861019  54.7288370   6.5152097  36.8781018
  55.3516960   5.9345883  37.3153162  54.4593763   6.0325593  36.0966468
  49.5765591  49.0991020  50.2712440  48.7499666  48.6604548  50.0698328
  49.4409800  50.0049257  49.9931526  19.8297322  51.4136600  83.5478115
  20.7776999  51.4584732  83.6726284  19.5896578  50.5373716  83.8490009
  95.1372814  38.4463787  92.7777100  95.4507542  37.7036548  93.2937717
  94.3629551  38.1131649  92.3242474  65.0426722  27.8605270  57.3579216
  64.1564274  28.0540109  57.6634836  64.9167395  27.2633219  56.6205454
  75.4333448  40.6472445  53.3496571  74.8759365  40.8861160  52.6090717
  75.1126766  41.1846828  54.0739250  83.4751415  56.1643028  30.5147505
  83.6366844  56.4290476  31.4203143  82.7669525  55.5231953  30.5753398
  77.2447872  46.0576916  48.7508440  77.0338345  46.9517183  49.0200138
  77.9411268  46.1608505  48.1022310  72.3185587  44.1965151  62.7452278
  71.6246414  43.9669132  63.3632851  72.8198147  43.3882904  62.6368237
  44.1296148  26.7635155  73.9557409  44.8666000  27.3739505  73.9770603
  44.5363235  25.8989477  73.8979197  56.9713831  31.3448262  60.5443144
  57.1218777  30.6297326  61.1625576  57.3181725  31.0200119  59.7133732
  48.6699963   8.8164705  82.6043987  48.4558201   8.6634874  83.5247040
  49.5552826   9.1800547  82.6217556  65.6500864  29.0464783  76.1245155
  64.8123837  29.3668818  76.4589262  65.6919241  29.3769360  75.2271414
  62.6532984  21.6252422  28.1749153  63.3565950  21.1102867  27.7794099
  61.9338083  21.0035324  28.2846427  37.0675278  56.3729095  70.6440353
  36.8839478  55.9755754  71.4953041  38.0143833  56.2824917  70.5367088
  55.5043221  30.4609609  57.1579218  55.4582024  30.9655380  56.3458204
  55.7869720  29.5889425  56.8823671  51.9443130  39.9131393  68.7762880
  52.8978586  39.9358892  68.8566732  51.6617346  39.2957592  69.4509935
  60.8710003  43.3799219  35.9345746  61.3924360  44.1072369  35.5949450
  60.7618380  43.5773563  36.8648076  60.6764507  37.0995378  58.9934921
  61.3234234  36.4175844  59.1740370  60.8628273  37.7829695  59.6372461
  49.8784876  30.7726836  49.1323614  49.6042061  31.6473722  48.8568211
  50.5986357  30.5504966  48.5422325  79.8417711  42.1836519  32.3329115
  79.0027237  42.3623848  31.9083142  80.4351807  41.9736195  31.6118145
  46.6651440  26.5351295  63.1073236  45.7578516  26.8132210  63.2326794
  47.1150780  27.3198080  62.7941608  54.0021181  31.0467029  59.4140148
  54.6853209  30.8139157  58.7853050  54.0291739  32.0026803  59.4541073
  34.4586968  38.9372325  60.2199793  34.1594052  39.2858005  61.0597134
  35.4138207  38.9521003  60.2812099  33.4848499  62.4862289  63.2398415
  32.5581765  62.3893929  63.4592247  33.4913754  63.0662298  62.4784040
  55.4185772  44.5839739  71.2283850  54.9687052  44.5221996  72.0710182
  55.5729675  43.6747408  70.9720850  71.9865084  23.5764790  37.8492379
  72.7494860  23.6786723  38.4181499  71.4222240  24.3175030  38.0699182
  60.6153393  26.3998842  39.3636012  61.2217379  25.6817794  39.1823840
  59.9982977  26.3826990  38.6320305  49.0064955  39.5605421  56.4777517
  49.4112015  40.4192019  56.3546848  48.9317656  39.4648480  57.4272203
  42.9963684  29.8647404  88.7215137  42.0524263  29.9157977  88.8718224
  43.1995821  28.9318204  88.7893295  39.8106050  24.0950584  51.2777615
  40.3623581  23.3668089  50.9923553  40.3750324  24.8649573  51.2076950
  48.3499146  46.4756441  46.5412283  48.1159210  46.8415260  45.6882286
  47.6344252  46.7398405  47.1195936  31.0458207  33.5268688  63.4927130
  30.0963473  33.6373401  63.4424305  31.2944484  33.9601421  64.3092251
  75.3019476  15.1522005  64.6626329  74.6174097  14.6159756  64.2625046
  75.2648592  15.9820235  64.1869736  40.5786133  44.0346432  53.7954473
  39.9140191  44.6278620  53.4452581  40.2700996  43.8225842  54.6764040
  51.5034056  25.9227848  35.2814627  50.7529259  25.3327584  35.3513432
  51.6752005  26.1994386  36.1815643  67.3847532  33.0939054  60.6265926
  67.3165464  34.0389991  60.4910278  67.6900530  33.0028343  61.5292168
 113.9332676  89.5127964  63.0837011 112.9942322  89.5470238  63.2661343
 113.9939117  89.1201115  62.2128630  75.5854225  47.3018646  59.6990633
  75.5888891  47.9776096  59.0211344  76.3846111  47.4620008  60.2009487
  54.4353104  11.2181079  78.2100916  54.8495388  12.0385671  78.4774828
  53.5005236  11.4213657  78.1771326  46.5145397  39.1328382  70.6227779
  47.1814442  38.4898543  70.8637047  46.8216276  39.4967747  69.7924280
  69.1936684  31.7526197  37.3818040  69.9631643  31.6066360  36.8315339
  68.5234833  31.1765456  37.0140839  54.8518610  21.6295505  58.0841923
  54.9424076  20.6783724  58.1416082  53.9178848  21.7898202  58.2192135
  76.5048075  63.4673262  52.3026943  76.9268465  62.6113510  52.3762989
  76.0473680  63.5812569  53.1357574  24.2170548  36.6788220  74.5865726
  24.3015647  35.8245969  74.1630268  23.9121056  36.4782929  75.4714584
  94.9828339  74.3805981  76.0981560  94.8244476  75.3229666  76.1537457
  94.8049164  74.0553570  76.9806528  53.5761547  24.4224381  59.5059872
  53.1513166  23.6732340  59.0883303  52.8591681  24.9068475  59.9152708
  70.1706696  30.9147835  39.7438908  69.8463249  30.0180387  39.8268270
  69.9405146  31.1710906  38.8508248  56.3213587  35.3812337  66.6058683
  55.8185720  36.1384511  66.3057661  55.8782005  35.1016927  67.4069309
  95.4170418  15.9523427  74.9819756  95.5668926  15.7843256  74.0516281
  95.2180862  16.8875313  75.0274658  61.2411547  15.3194475  13.6752164
  60.6704569  14.6080768  13.9658868  61.9034004  14.8893762  13.1341970
  47.8549910   6.0415119  79.5886660  48.1299925   5.7484913  80.4574203
  48.6721706   6.2538648  79.1377163  77.0156765  32.3749065  54.7314548
  76.1897659  32.5722742  54.2896938  77.5834608  33.1159401  54.5199728
  72.8061628   4.4204029  53.0899906  72.0166349   4.4599462  53.6297274
  73.5195017   4.3027723  53.7173176  55.6746387   8.2109046  32.6669335
  55.4687166   9.0586913  33.0607438  56.1183977   7.7252781  33.3622575
  63.8709164  18.5939717  47.1281528  63.7665462  18.8587546  46.2142467
  64.5316267  19.1923463  47.4769211  70.3505802  38.3782077  64.2114830
  69.7316504  38.9461088  64.6704483  71.0494184  38.9667797  63.9261055
  78.2910490  44.6301460  50.6163311  77.6667452  45.1592350  50.1198006
  78.6806583  45.2423573  51.2405396  36.4677811  52.5152731  66.0339928
  36.1515379  51.6119242  66.0204792  36.6124916  52.7321863  65.1129961
  56.9813299  37.9035473  63.9804840  57.4176121  37.5373316  63.2112122
  56.1022282  37.5254059  63.9599514  61.4144039  30.1573777  55.7811975
  60.7898283  30.7358956  56.2187529  61.9832325  30.7483554  55.2878284
  73.5107327  80.3557682  57.6189804  73.5212851  79.5784616  58.1774759
  74.4335699  80.5862522  57.5118303  69.5271587  67.8807878  52.0540047
  68.9344978  67.9832029  52.7986479  70.3485727  68.2764721  52.3454666
  74.5262480  48.1568432  54.2056370  73.9001942  47.8551245  53.5474205
  74.6777868  49.0766191  53.9881945  72.5748301  60.1716185  53.1391621
  71.8189764  59.9746275  52.5858879  73.3191061  60.1701689  52.5372601
  71.2403774  83.9889526  70.1773071  70.3836298  84.4079781  70.0958872
  71.5175009  83.8330078  69.2744684  85.9081554  70.2381754  55.1372957
  86.2905216  71.0874748  55.3580093  85.7031441  69.8406124  55.9835482
  98.6674309  44.0629196  37.3456120  98.2208538  44.4632816  36.5996194
  98.4198093  43.1391764  37.3054194  67.8189468  74.5822001  55.7866049
  68.7595510  74.6328068  55.6165218  67.7436209  74.0045071  56.5460968
   1.4148247  36.5837359  43.3846235   0.7894032  37.2998428  43.4953928
   1.3108104  36.3138890  42.4721575  69.4434977  70.8307266  68.9321518
  68.8714504  70.4991055  69.6242666  69.6595192  71.7219687  69.2064810
  86.6309738  81.1960316  76.3533354  87.5171375  81.4918041  76.5618134
  86.0879230  81.9780159  76.4525175  92.5544834  64.4650698  59.7870016
  91.6299725  64.2971802  59.6044827  92.9281998  64.6969557  58.9368248
  63.4033918  53.8477564  68.0091906  64.0175819  54.0594482  68.7121773
  62.6283455  54.3756294  68.2012558  72.5760889  63.8438845  68.4475231
  71.6914368  63.7857580  68.8084126  72.4446154  64.0656853  67.5257015
  82.8218079  85.5959702  40.3427315  82.4255180  85.6157398  41.2138224
  83.7225056  85.3104210  40.4957819  81.4046955  60.2743340  64.4264269
  81.3113499  60.4968882  63.5001516  81.9996071  60.9389639  64.7736740
  67.9900455  55.3105688  59.2198658  67.6609087  56.0131407  59.7804832
  68.8590050  55.1126528  59.5691156  77.9308462  75.1906157  41.1176634
  78.7392330  75.7030249  41.1312580  77.2561264  75.8147383  40.8503580
  69.5619154  53.7396097  62.3985958  69.7647762  53.6871386  61.4646149
  70.2073956  54.3529987  62.7498007  83.4771442  56.1943913  54.1016245
  83.0759430  55.3283691  54.0289783  84.2299366  56.1598873  53.5114145
  65.7080841  44.4859552  21.7735267  66.5079212  44.2980480  22.2646284
  65.4575777  43.6442852  21.3926435  85.5820942  56.4523125  62.9449034
  85.3317928  55.8046055  62.2860765  84.7504902  56.8002605  63.2667637
  61.4275122  74.5315742  69.9864721  60.9170866  74.0401602  69.3428850
  60.8831072  75.2908421  70.1947260   8.2840258  71.0021448  73.9701366
   7.7438235  70.6361341  73.2698154   7.7816904  70.8415031  74.7689390
  95.1127052  62.7708721  31.5325141  94.8279190  61.9404793  31.9140697
  96.0569000  62.6683569  31.4132738  74.1490889  92.9034805  57.6819515
  73.2152367  93.0010700  57.4958754  74.2891502  93.4144783  58.4791279
  74.3485165  49.3209076  34.2022085  74.1136551  49.0059757  35.0750709
  73.9967632  48.6595583  33.6062908  63.3573294  56.8761921  63.0285358
  63.8959599  56.9448185  62.2402477  62.4721098  56.7176199  62.7007008
  81.8608570  38.8819456  43.1163073  81.5534115  39.0604258  44.0050411
  82.3918343  39.6451735  42.8887558  99.9859238  90.9978390  57.0537758
 100.4100609  91.6696930  57.5875711 100.2074528  91.2326908  56.1526632
  58.4062195  74.6912384  57.4975729  58.8646126  73.8545179  57.4200726
  58.5214520  75.1074839  56.6433477  59.9244213  52.3569107  68.6567068
  60.6248569  52.9824352  68.8420391  59.9932861  51.7062807  69.3553972
  67.0537329  70.9431076  60.9797096  66.3031435  70.7699633  60.4114914
  66.7635441  71.6554403  61.5494537  67.6638651  67.4016476  66.7778683
  68.2363892  68.0662537  66.3947868  68.2413006  66.8811607  67.3363352
  63.8559961  81.2921810  28.4212279  64.3208647  82.0296669  28.0259514
  62.9973364  81.2958527  27.9982352  62.4372530  70.7342720  59.2136145
  62.2996092  70.2598715  58.3937168  61.6564274  70.5449009  59.7338867
  85.2700615  65.8840466  49.6742678  84.7832489  66.5865946  49.2433691
  84.5955944  65.2759933  49.9769163  70.1163292  76.2180614  68.9893818
  69.1656160  76.1097622  69.0147352  70.3246403  76.2882566  68.0577660
  63.2874155  54.5236492  60.4490709  63.5468149  54.0920925  61.2631369
  63.7794352  55.3447104  60.4459286  64.7613335  86.6126251  51.5843821
  64.1220236  87.2999191  51.3968945  64.4276619  85.8429337  51.1234283
  71.4012623  46.8258572  62.1704721  71.4030313  46.7263508  61.2184620
  71.6040945  45.9515095  62.5030565  69.4795704  64.7264671  65.3574562
  69.1990232  64.5829773  66.2613010  70.4352999  64.6883869  65.3944159
  93.5142136  51.1127090  30.3087640  93.7515736  51.4792109  29.4569635
  94.3282795  51.1295366  30.8120012 110.3951836  73.6055851  34.8761845
 110.2310467  73.1265926  34.0638685 110.8444214  72.9752684  35.4393196
  76.1428976 105.1502991  28.9205360  76.6143370 105.9528160  29.1440010
  75.4906082 105.4270077  28.2769656  49.1306353  93.0037022  58.9106417
  49.1250992  93.6624146  58.2161665  49.3901587  92.1941185  58.4708071
  66.4954901  57.8597403  65.2725649  66.7754269  57.5425196  66.1311913
  65.6823063  57.3867130  65.0959206  65.3814173  81.8227196  44.8569918
  65.5953360  82.3941994  44.1195107  66.0223722  81.1137486  44.8043966
 106.8204308  76.0422325  42.3418188 107.1695232  75.6807613  43.1564999
 107.4905586  76.6587925  42.0468235  75.0078487  62.5061226  54.6505070
  74.5065165  61.9824076  54.0255117  74.8268747  62.1035147  55.4998541
  83.1426144  65.6594038  55.6247330  82.9147720  64.7519779  55.8269787
  82.5489140  66.1814070  56.1644316  67.0589828  62.7029657  59.0070724
  67.1254110  63.3218718  59.7342348  67.9662514  62.5324583  58.7540388
  71.0298538  49.1960478  17.5957024  71.7418242  48.6456347  17.2695541
  70.2670574  48.6179543  17.6090789  76.9864178  25.1262403  54.9026966
  77.7951384  25.3312325  54.4334650  76.5856981  24.4220591  54.3930054
  64.4579601  52.0563936  65.7342863  65.3246546  52.4395084  65.5990219
  64.0408516  52.6288939  66.3781023  69.8162842  44.3777800  60.7536173
  70.6061602  44.0127277  61.1524439  70.1419210  45.0036860  60.1067543
  93.0660629  63.2239485  26.3036370  92.1944427  63.4998798  26.0201454
  92.9045391  62.4832010  26.8879628  47.7006149  96.2774754  29.7110271
  48.4340191  96.4380741  30.3047943  46.9661236  96.7483330  30.1047802
  32.6094031  24.6984959   5.9502602  32.4414086  25.6397510   5.9049857
  31.7417979  24.3044353   6.0408527  61.1340427  82.4173260  94.0221310
  60.7560015  81.5385437  93.9894199  61.6650820  82.4793148  93.2281590
  91.8482685  14.7906673  75.1943064  92.6410866  14.5672297  75.6819010
  91.2318039  14.0894020  75.4051113  74.4792032  89.8307323  29.9640059
  73.6995220  89.2799759  29.8932767  74.4426823  90.1845741  30.8526516
   2.2246064   9.0042889  85.2288914   2.6389369   9.8496991  85.0561333
   2.9540035   8.3868968  85.2840137  70.0495291  76.4533806  66.1047602
  69.5170593  76.5824842  65.3198814  70.2779102  75.5239582  66.0890388
  70.6290197  77.1774960  72.7036619  70.4669142  77.8547859  72.0469761
  70.3740740  76.3611507  72.2737551  83.9117336  23.8780642  43.8207245
  83.4138680  24.6955562  43.8124466  83.5830021  23.4051633  44.5852757
  77.5133705  86.0355854  64.1583776  76.7825508  86.1900330  64.7569466
  77.0988846  85.7647228  63.3391905  61.8736506  36.1641359  47.5399065
  62.4589777  36.3328552  48.2782555  61.6589594  37.0332074  47.2010088
  97.6566124  95.0799847  37.5287151  97.2624207  95.3511715  38.3577514
  97.3771572  94.1713905  37.4165154 107.1491337  73.1919241  41.1473560
 106.5472412  72.8947210  41.8297195 107.3183060  74.1096735  41.3603210
  66.6074753  53.9381123  65.9905624  67.0430422  53.7940931  65.1504612
  66.7952538  54.8520899  66.2041330  61.9984579  37.8778172  55.0993061
  62.4676895  37.7400064  55.9221458  61.0818481  37.9707718  55.3589582
  64.6293116  49.4139385  66.4250994  64.6005440  48.9521646  65.5871439
  64.4725561  50.3307152  66.1988640  78.3434248  37.3305130  43.3461094
  78.5049534  37.2987247  42.4031687  77.5751972  36.7745590  43.4763861
  64.1727781  53.2972050  62.8474951  64.0915823  53.9844275  63.5088348
  63.8369989  52.5104952  63.2771111  99.3813705  55.0613070  43.8112831
  99.9092674  55.8108997  44.0863514  99.6883297  54.8640108  42.9263639
  79.5347404  53.4471989  62.3193741  79.8661995  53.7868118  61.4880943
  78.9906359  54.1538763  62.6669168  93.7909794  96.4175320  72.3359394
  94.6459198  96.0590076  72.0976877  93.6416054  96.1072826  73.2290602
  84.9333000  80.8132553  62.0382690  85.6285858  80.1766205  61.8724442
  84.3485928  80.7310295  61.2848806  63.1334591  82.1087360  35.1288819
  63.6750221  82.8814697  35.2895546  63.7025595  81.5150452  34.6390915
 111.7726135  75.3053951  71.1631060 111.8988705  74.7489595  70.3945589
 110.9744167  74.9711752  71.5722656  42.2146034  19.1960275   9.9246806
  42.7948618  18.7664771  10.5531836  41.5064049  18.5675645   9.7842222
  73.9166784  72.1687222  41.4396429  73.7749195  72.3259258  40.5061436
  74.8191404  71.8545628  41.4952850  81.3597393  94.1814995  73.8381100
  80.6890869  93.8870716  73.2218552  81.0183430  95.0042152  74.1885805
  72.3618793  46.8781328  46.8692303  72.2031784  47.3559952  47.6832867
  73.2365942  46.5047312  46.9773245  63.2784224  50.7211685  68.9938450
  63.0718040  51.5189362  68.5069084  64.2236328  50.6137896  68.8876724
  64.2511511  55.5824709  65.5656767  63.4906912  55.4013729  66.1180592
  64.9394846  55.0146484  65.9120941  75.1940632  77.8269768  63.9577961
  75.5290508  78.6340284  64.3485451  75.1748800  78.0060387  63.0176878
  85.5495262  65.6473780  62.3178101  86.0925579  66.2536526  61.8140507
  85.0008583  65.2162409  61.6625881  78.3894205  93.5953999  49.8389339
  77.5133848  93.2160664  49.9088812  78.5454893  93.6657047  48.8971663
  87.6225281 107.3893261  61.3081789  87.7673244 108.2885361  61.6025829
  88.3844757 107.1897602  60.7642555  49.1440201  86.0977268  70.6198120
  49.8351955  86.6263866  70.2210426  48.7004471  85.6850243  69.8787594
 103.4139252  62.4199867  75.2110243 103.6387539  61.5273142  75.4733562
 104.1940594  62.7402067  74.7581625  94.0270615  60.1176262  32.5874376
  94.2126656  60.1142931  33.5264659  94.6384048  59.4791651  32.2201943
 100.2852058  87.2263813  55.1614809  99.6846294  86.5350723  55.4401112
  99.9319267  87.5275421  54.3243885 100.5954742  74.3011475  92.4525166
 100.1193428  73.9753246  91.6887283  99.9930668  74.9209690  92.8637981
  79.8413706  99.2508602  84.1879654  80.5504036  99.0927982  83.5646534
  79.4455338 100.0724316  83.8971710 101.6107178  77.6974058  47.4861860
 101.6921711  78.2930470  48.2310438 101.5447140  76.8278980  47.8809357
  81.6508102  66.1931896  49.7953129  80.7461548  66.0940599  50.0919724
  82.1739674  65.7712126  50.4768372 100.9776497  77.5052214  57.1285295
 101.1989498  77.6747751  58.0442286 100.0658512  77.7848101  57.0467472
  94.2012310  59.8395443  14.8364627  94.2897892  59.8079872  15.7890356
  94.9381161  60.3765011  14.5450723  77.5396442  87.3272896  20.8005643
  77.2973680  86.5181255  20.3502417  77.6477146  87.9689503  20.0985503
  58.9151239  76.5167046  61.7880726  58.4773159  76.1319828  62.5473785
  58.6309195  75.9782696  61.0494566  82.9161453  72.2336054  33.6688399
  82.9413891  71.9194984  32.7649975  83.0905819  73.1723356  33.6011314
  75.0426102  80.0954151  84.5985031  74.1944647  79.6889925  84.7765446
  75.2829742  80.5189133  85.4225922  63.7263632  97.7509499  15.2336848
  64.5387459  97.5365829  14.7750843  63.5566616  96.9898129  15.7887554
  93.4459782  75.9273624  71.3494349  93.5705853  76.8365479  71.6216278
  93.8141823  75.8890104  70.4667187  79.3189955 101.1514187  63.4294748
  79.0840483 102.0748043  63.5210371  79.1493940 100.7743835  64.2927885
 102.3383045  61.1331892  66.9918585 102.6798820  61.1068773  67.8856516
 103.1125927  61.2580204  66.4431143 110.7248402  22.5504422  40.8149004
 109.9899387  22.0499969  40.4603481 111.4525032  21.9287586  40.8307600
  25.7317781  41.3311005   4.2095929  25.0156355  40.8536196   4.6283814
  25.9939766  41.9857073   4.8568755  74.9933529  94.9423027  66.8488693
  74.8561764  94.0881538  66.4391947  74.6490812  94.8404217  67.7361870
  88.7131977  76.1116028  38.1387353  88.1708241  75.4433584  37.7197933
  88.1194592  76.8494320  38.2777405  28.6641669  76.0677481  78.1222153
  27.7394342  75.8590603  78.2546997  28.8572979  76.7311049  78.7847042
  75.4087400  97.3590183  61.0771227  74.6462631  97.0693016  60.5762005
  75.0536394  97.9721642  61.7207003  60.1756382 102.2917747   3.2978141
  60.3291750 102.7453041   2.4689785  59.2380905 102.0988083   3.2951516
  99.1993523  58.7865353  50.4586983  99.9099159  59.2052507  49.9728870
  99.6392632  58.3066320  51.1604118 107.0100880   3.2432982  72.8779888
 107.3749924   3.2370305  71.9930983 107.4624634   2.5302213  73.3286715
  97.4810600  45.8204651  71.4793968  97.4493599  45.2923393  72.2770882
  96.7330742  45.5198812  70.9632587 103.9025307  96.4716434  58.1463432
 103.4704304  96.7195415  57.3289871 104.8341465  96.4495373  57.9276228
  83.8143349  61.3104391  55.1664591  83.6188507  60.4132032  55.4366159
  84.7074413  61.2684584  54.8246622  27.2589707  56.0440159  67.2158718
  27.7483702  55.9500837  68.0331182  27.9234338  56.2630558  66.5626144
  84.0230274  67.9356718  69.2228556  84.1238880  68.8536263  69.4746780
  84.1033554  67.9387522  68.2690382  75.7246876  50.9545851  64.1073179
  75.8471632  51.1714220  65.0315571  76.5576506  50.5660391  63.8400412
  76.9415092  68.1838608  67.0255232  77.8381205  67.9113436  67.2206020
  76.5594053  68.3802652  67.8808880  82.0661068  70.0560808  50.3342724
  82.9363155  69.7161961  50.1258373  82.0370483  70.0695324  51.2909365
  64.1617107  92.9363728  92.0678902  64.7411680  93.5186481  91.5765476
  63.5707521  92.5738335  91.4079189  72.4669886  55.2531624  56.5907001
  72.7173948  55.9781885  57.1632957  73.2503843  55.0782061  56.0692501
  15.7138002  51.3450193  77.9810810  15.5233026  51.8760014  78.7543869
  15.0728583  51.6311359  77.3302650  38.6418796  36.1970758   0.1471712
  39.0677071  35.4273534  -0.2302257  38.7261558  36.0777307   1.0931552
  94.6608925  46.4406013  39.5502925  93.7876606  46.1326075  39.7928667
  94.5868778  46.6640854  38.6224961  82.9154301  92.5737667  54.9433088
  83.7556171  93.0065060  55.0951242  83.1434536  91.7570400  54.4992304
  88.1671906  68.0086517  54.7527981  87.7344799  68.2770300  55.5633307
  88.3951473  68.8310719  54.3193293  29.2397285 104.3273163  61.8484497
  28.7864089 105.0468445  61.4091158  28.5553503 103.6791039  62.0148277
  96.4623928  60.1689482  57.5640249  95.9131813  59.5206642  57.1231985
  96.0031319  60.3547573  58.3830357  86.3435173  70.2115583  52.2761345
  86.8900681  69.4941568  51.9554472  86.2343693  70.0306463  53.2097244
  60.7303667  98.7335587  90.5679417  60.7797623  99.6107101  90.9479427
  60.8160353  98.1431007  91.3164330  79.2864656  70.6194305  70.9569263
  80.2066040  70.5725384  70.6973600  78.8143873  70.7741928  70.1387453
   0.3426898  89.8118782  53.4482050  -0.3958187  89.7655869  54.0554094
   0.2930808  88.9971638  52.9481936  80.9842110  94.8493862  67.7129602
  81.7297935  95.1579285  67.1980286  80.2765465  95.4568672  67.4975395
  89.2333984 107.5671959  67.6973915  88.7229824 107.3816490  68.4856081
  89.0460300 106.8330956  67.1123934  90.2285004  89.3381023  61.7934275
  89.8493004  90.1917362  62.0026112  90.3874397  89.3712997  60.8500957
  61.4684582  48.8963366  35.0144434  61.5601635  49.6863365  34.4817829
  61.7232609  48.1824398  34.4299293  33.7755799  31.0285163  13.0315638
  34.6852493  31.2293148  13.2516003  33.4340620  30.5838203  13.8073516
  80.7409763  79.5122528  41.8749094  80.3969860  78.7187338  42.2850704
  81.6338730  79.5880222  42.2113991  62.7795172  93.3966064  48.8891268
  62.5792265  93.8067245  49.7305059  63.1791878  94.0953445  48.3711958
 104.6806240  81.1225224  40.6948185 105.0137997  81.1608124  41.5913439
 103.7292194  81.1655807  40.7908297  87.6718044  62.3206043  35.1414847
  88.5898495  62.4238253  34.8909593  87.2370720  63.0940056  34.7821999
  13.3898532  72.8755760  79.4186783  13.1653011  72.4671841  78.5826015
  12.5878060  73.3218622  79.6903086  91.0195065  68.4439611  55.5572605
  90.3468323  69.1192627  55.4694653  90.5614471  67.6241207  55.3721476
  95.5037498  75.8559656  34.7303200  95.2473927  75.0959539  35.2527189
  94.7913361  76.4831305  34.8542881   0.7795715  93.0397320  73.6808681
   1.6143522  92.5817204  73.5828972   0.8486465  93.7919426  73.0929565
  95.6157398  85.7534790  27.1075988  96.4221859  85.4256821  27.5056314
  94.9157810  85.3869247  27.6479149  69.5121622  86.7808819  88.3488846
  69.3017578  86.3274384  87.5325871  68.6699200  86.8769932  88.7934399
  74.2042685  70.3136921  45.8081245  74.7565794  71.0030985  45.4394770
  74.0116787  70.6109524  46.6973829 105.6772614  72.9021454  49.4052458
 105.1734447  73.4202194  50.0329447 106.0490704  72.1902466  49.9260092
  55.8596849  77.1618986  16.4889526  56.3473129  77.3752260  15.6933749
  54.9407053  77.2628117  16.2409139  90.3708363  69.5483780  73.2705450
  90.6766319  70.4186678  73.0149794  90.3054905  69.5880985  74.2246866
 104.7606182   9.2337161  76.9165373 104.1730022   9.8061180  76.4232826
 104.2990494   9.0676594  77.7384949  96.2807083  55.2196360  49.8533106
  96.1289692  54.2878151  49.6954393  97.2314548  55.2974558  49.9323750
 104.4120884  82.2847271  58.3730173 104.8055267  82.8819561  57.7368164
 104.0173435  82.8594780  59.0288162  93.4773254  68.9114046  56.8981028
  93.9498615  69.5471430  56.3607264  92.7449036  68.6312151  56.3492060
  94.9597263  99.5734215  35.7451272  94.6926022 100.2971268  36.3118100
  95.6422901  99.1206932  36.2404752  73.3566666  96.1914444  55.0014210
  73.3127880  95.9630775  55.9299469  72.4438953  96.1991882  54.7132874
 100.9293175  30.0535083  64.7813940 100.2068043  29.4700122  64.5495892
 100.5230904  30.7384324  65.3125143 113.4624100  72.8413630  41.1971426
 112.5754452  72.5963593  40.9335327 113.9935970  72.0710039  40.9955740
  74.6900177  48.3090496  49.5336819  75.0486898  47.6351976  50.1111794
  73.7716246  48.0638981  49.4210291  58.5769033  90.0425529  63.6840487
  59.3925142  89.5419884  63.6629152  58.6531019  90.5917645  64.4643021
  70.4466391  84.3729115  52.5423145  70.9871674  84.7406483  51.8431473
  69.7400856  83.9175224  52.0844603  86.3063145  34.6625638  14.2641377
  87.1545887  35.0388908  14.4987249  86.5194798  33.9439034  13.6688924
  62.1326733  79.4743013  59.8876810  62.2487354  78.5766935  60.1992226
  61.3890409  79.4250727  59.2869949  87.8940678  72.1768904  56.1618280
  87.5392151  72.9281759  55.6865597  87.8444386  72.4312162  57.0832872
  66.9559813  82.3552322  60.5673599  67.8029394  82.1535110  60.1696062
  66.5876579  83.0417633  60.0112677  84.1719532 107.6526165  73.9636564
  84.2908192 108.6022663  73.9800978  83.2517147 107.5304317  73.7302828
  12.8143358  33.7673283  14.5389974  13.4975481  33.3889771  15.0924432
  13.2048547  34.5687795  14.1905677  86.5773487  73.3610106  62.5242615
  85.8961773  72.8938055  62.0405674  87.3974037  73.0656862  62.1286345
  76.1623383  79.3918896  74.1988468  75.6183004  79.4390106  74.9849987
  76.0901451  78.4815979  73.9118242  91.4344406  76.3844490  84.5344543
  90.5945396  76.6952276  84.1965103  91.2040138  75.8515549  85.2954769
  72.1314478  90.1173306  46.0460758  72.6630306  90.8355141  46.3893843
  71.3093710  90.1737595  46.5331459  15.1494169  70.9057617  81.1692047
  14.9325514  70.5883598  80.2925873  15.9326744  71.4413261  81.0430431
  64.5079041  67.9218388  59.6917105  63.7889576  67.8435993  60.3187943
  64.5425510  67.0685387  59.2593718   0.5187585  42.2387552  75.5392122
   0.7869730  43.1398153  75.3592730  -0.4294383  42.2404099  75.4082489
 102.3791790  38.3669043  30.7005525 101.9234085  38.4156513  29.8602366
 102.2607422  37.4606681  30.9850478  81.0334492  75.7256794  72.8915691
  80.5993843  75.6206369  73.7381983  81.6738987  75.0149584  72.8609514
  32.0835471  77.7170610  82.1867752  31.9194603  78.6499500  82.0488453
  31.7914295  77.5524902  83.0833340 100.8051586  59.4210482  70.3884935
 100.7004070  60.2137423  69.8622847 100.3929996  59.6332788  71.2259388
  64.1341400  79.2234468  71.9587708  64.5415688  79.4466829  72.7956724
  63.3903551  78.6690903  72.1947956   7.6194340  61.2051821  38.7782121
   7.1965486  62.0606041  38.7030602   7.4863338  60.9516144  39.6915674
  92.0934010 100.8563519  64.9400997  91.4058876 101.1846352  65.5195713
  92.1365166 101.4986610  64.2317200 109.4003391  74.8118305  60.2274036
 110.1321507  74.5513678  60.7867241 109.6577168  74.5300865  59.3495607
  15.6225443  68.2403040  83.8884354  14.8662329  68.3105612  83.3059502
  16.3170099  68.7212992  83.4383297  65.9137344  91.3895512  87.8516102
  66.4163446  91.8319893  87.1676064  65.2948475  92.0513916  88.1601238
  67.4513006  83.6333084  65.7742786  66.9106913  83.1652260  65.1379824
  67.3634434  83.1268692  66.5817690  92.2303295  90.9806061  93.4920502
  93.0354214  90.7998562  93.0068970  91.9476128  91.8386745  93.1757545
  70.7889843  67.1826887  70.7873201  71.4696932  67.0787430  71.4521980
  70.0052643  66.8041325  71.1856985  74.6704102  49.9805927  47.3343801
  74.1108894  50.6633329  47.7045631  74.8866081  49.4185543  48.0784273
  30.2973199   5.9124601  70.3848553  30.6346440   5.8409518  69.4919205
  30.5144095   5.0732362  70.7908201   4.9491400  58.3928108  14.1819525
   4.3444014  58.1732845  13.4731984   4.3918464  58.4732056  14.9560273
  96.4409161  77.8282881  70.1746035  96.3286495  77.5118780  69.2782116
  96.3595295  77.0440626  70.7173729 112.7076054  71.1936474  47.3613882
 112.9378605  71.4235783  48.2615805 112.0462608  71.8387842  47.1110868
  81.7703342  72.2311974  81.0678959  82.6177025  71.9650507  81.4247799
  81.1530113  72.0894766  81.7855740  10.1446140  96.5217209  79.0963030
   9.9860686  96.8664265  78.2175112  10.3964520  95.6092930  78.9538574
  83.7823486  85.0672054  68.0346489  82.8252029  85.0778389  68.0340147
  84.0117550  84.1481304  67.8971386 106.4086056  91.7231369  80.2812004
 106.8968582  91.3089752  79.5696497 107.0824623  92.1060085  80.8429337
  12.0293379  33.2661843   5.3638685  12.4089515  33.0639911   4.5087409
  12.6806951  32.9580760   5.9939760 110.4035473  79.5039511  52.3955345
 110.0478172  79.9321270  53.1742239 110.9748840  78.8173723  52.7396441
  99.9254513 108.2776737  46.5868521  99.7178936 108.6670113  47.4363041
  99.1342545 108.4077168  46.0640383   6.7075515  63.7401533  39.0080833
   5.9270096  64.0826893  38.5725856   7.3474103  64.4493055  38.9454675
 101.1368370  79.7669935  49.4354868 101.2301254  80.1604748  50.3030682
 100.1933193  79.7634602  49.2742920   6.5975732  60.8018923  54.4374561
   6.3853353  60.0876331  55.0383043   5.8486956  60.8452129  53.8428688
 102.0954609  69.0061426  51.8770838 102.5393581  68.5242033  51.1792850
 101.3838100  69.4680595  51.4339018  84.1145039  58.9477968  61.8650579
  84.3032742  58.2858944  61.1998653  83.6877060  58.4627056  62.5712872
  97.6130867  90.2288628  82.7677536  97.8956795  89.3201828  82.6644516
  96.8066502  90.2886009  82.2555733  59.6264935  94.4300747  58.7730169
  58.8381338  94.9722099  58.8015461  59.5423031  93.8451385  59.5260048
  54.1205931  98.4157467  81.8938732  54.2563343  99.3604946  81.9663429
  54.7714043  98.1287003  81.2533474  77.3159838  77.8672743  52.3802185
  77.0685482  76.9818640  52.6467848  77.0816612  77.9126120  51.4532518
  71.3742924  92.6421642  56.6741371  71.3779879  91.7756748  57.0808411
  70.8142138  92.5430012  55.9042549  42.7752447   7.8140581  54.3952227
  42.0770025   7.5960499  53.7778425  42.9980183   6.9801897  54.8090696
  76.7409086  64.4806051  49.6954441  77.1364546  63.7426996  49.2314768
  76.6303110  64.1675329  50.5932093  75.0314760  87.7765179  12.2951055
  75.8825970  87.4101353  12.0551312  75.2227116  88.6787891  12.5511718
  80.1426411  74.6643686  27.3169017  80.8189869  74.3249321  27.9030490
  80.6229115  75.1850224  26.6730952  80.0933647  63.7197113  54.8919821
  80.8329964  63.5850954  55.4844856  79.3667507  63.2543564  55.3063536
  82.1913338  80.7960415  74.8680019  83.0662155  80.9632587  75.2185059
  81.8399715  80.0998592  75.4230690  69.6815681  82.9852390  74.5011568
  68.9211893  82.8158092  73.9449644  70.3922844  83.1671333  73.8863134
  91.6469097  89.4650078  59.1460323  92.0701504  90.0183201  59.8024940
  91.8859863  89.8616600  58.3083296  78.2570362  71.2806940  68.7366056
  77.3418522  71.5597582  68.7084627  78.7563610  72.0796251  68.5674477
  88.7519932  81.0998344  67.2955561  89.3734550  81.0885906  66.5676212
  87.9328537  80.7816029  66.9160986  91.8376732  89.7907448  36.0317445
  91.7918205  90.4765224  35.3655243  91.4259911  90.1789474  36.8037891
  90.9559059  58.1329298  65.7559538  90.4229164  57.3378468  65.7539320
  90.3890419  58.8002872  66.1426497  14.9296319  45.3197193  70.0403976
  14.0276742  45.0008297  70.0085688  14.9746418  45.8306789  70.8485603
  87.9920673  55.1457262  10.4939961  88.2835770  55.8806276  11.0336041
  88.7976360  54.6818161  10.2657592 100.7887650  92.1881962  71.3281298
 101.7351723  92.3143291  71.3961649 100.4453659  92.4944973  72.1674633
  90.8505249  55.9580135  28.1210303  91.0463810  56.8821716  27.9667425
  89.8968506  55.9020424  28.0610776  95.4468822  63.2241440  63.7485123
  95.6722927  62.9680061  62.8541899  96.1388206  62.8423738  64.2886066
  97.4508762 107.7233505  87.1325111  98.2882214 108.1647110  87.2749424
  97.2154427 107.3732948  87.9917336  70.6647778  73.6295938  65.4512835
  71.2705755  73.5342503  64.7163343  69.8258114  73.3175421  65.1121712
  82.7883720  45.6604815  50.3127098  82.5480556  46.2908792  50.9917402
  82.0951080  45.0011158  50.3418636   1.3263939  58.4416580  49.9591970
   0.4156905  58.1780910  49.8273468   1.3033669  59.0036011  50.7337427
  79.6170712 103.0935574  48.6588764  80.0479507 103.5072708  49.4068146
  80.3226185 102.9410553  48.0302477  65.6138563  81.4258671  71.0864544
  65.6928492  80.6008720  70.6075287  65.2998877  81.1701870  71.9537973
  81.5748692  67.2856188  57.3660898  82.2481918  67.1836901  58.0387545
  80.7882214  66.9029856  57.7546978  80.7207584  68.0958462  54.8791218
  80.1030064  68.8242579  54.8155928  80.8255100  67.9519653  55.8196306
  78.6697817  86.7798996  47.1310425  79.4567871  86.9070625  46.6012526
  78.0340719  87.3962116  46.7673683  77.0507288  75.0440073  61.2568951
  76.2834692  74.5677900  60.9394598  77.1680117  74.7371674  62.1559668
  54.7272825  88.0394459  62.2570753  53.8784504  88.2071209  62.6664639
  55.2214003  87.5563717  62.9194355  66.0817528  95.3974533  82.1660900
  65.8090401  96.3060284  82.2939396  65.7597351  94.9392414  82.9423428
  87.4748039  59.3936110  60.9638357  88.4050179  59.6143007  61.0109377
  87.0449448  60.0494862  61.5127325  68.1660604  80.1803303  55.0155973
  68.9817524  79.8636389  54.6275473  67.6364470  79.3921900  55.1363420
  82.2347355  72.8965616  71.5641260  83.1184292  72.7105093  71.8814564
  82.3685360  73.4406471  70.7880449  39.3365312  12.8497767  14.6315670
  38.4539557  12.9021120  14.9983835  39.9003959  12.6834917  15.3869736
  88.1589031  85.8417988  73.4570217  88.4976482  85.2077961  72.8249454
  88.2918739  86.6921139  73.0380869  11.9658709  86.5220356   2.8444833
  11.2503350  86.1096096   3.3283687  12.5256300  85.7930565   2.5771019
  90.1281643  78.0608606  73.3525944  89.5392323  77.5180864  72.8283978
  90.4964542  78.6863089  72.7285671  69.1113377  95.3236198  48.5777426
  69.7044182  96.0423946  48.3589840  69.5310068  94.8833179  49.3168259
 109.6877289  55.4362535  47.5077486 110.1314449  54.7635221  46.9912434
 109.3869686  56.0749578  46.8613482 105.8482933  91.2570190  92.8942585
 105.3522110  90.6282902  92.3700142 106.5103531  90.7281017  93.3393955
 113.0962753  68.6449051  53.9840746 113.9504910  68.4630489  53.5923195
 113.0401325  68.0430365  54.7262573 111.5399647  58.0414343  66.6171169
 111.7826843  57.4169493  65.9334993 112.2734451  58.0207729  67.2317791
  98.5317326  75.1106977  60.7631588  99.4718266  74.9633932  60.8668900
  98.3203793  74.7208738  59.9148703  54.1256332  43.6767149  -0.1562172
  53.5741234  43.0838871   0.3542909  54.9872255  43.2597208  -0.1587421
  83.0680752  83.3114624  12.4665582  82.8836155  84.1319466  12.9237294
  82.6773453  83.4268093  11.6003895  92.8663540  72.7489328  43.9253283
  93.0847740  72.8153610  42.9957485  93.5841084  72.2415829  44.3043470
  95.6635666  76.9349575  66.4968061  95.0186062  77.2395658  67.1351433
  95.5868149  77.5494146  65.7668877  84.1693783  71.0224724  44.4738197
  83.5824966  71.6698790  44.0830851  84.6414852  70.6475830  43.7303162
  85.7357883  82.8388119  36.9346857  86.4980412  83.2619572  37.3298550
  85.2105236  83.5623837  36.5929580  14.1178560  93.1848907  56.6413021
  13.6985123  93.5259533  57.4312782  14.7261870  93.8747215  56.3761806
  87.2829819  32.1106315  56.8112993  88.0740261  32.1055007  56.2723637
  87.5448799  32.5563955  57.6168633   1.9925614  59.8804951  68.3219862
   1.5131438  59.6376514  67.5298882   2.7101374  59.2488813  68.3707476
  77.3700237  84.6406174  37.6747394  77.9610348  85.0846481  37.0666480
  76.6114283  85.2209091  37.7381968  72.9926825  72.8531075  55.3098202
  72.1019983  72.8223896  54.9605751  72.9989576  72.1981955  56.0078764
  78.5783005  78.2108116  47.3001814  77.7380037  78.2660818  46.8451262
  78.9539194  79.0872812  47.2168350   2.0143786  33.4065986  13.4012175
   1.9756992  34.3608451  13.4656203   1.1327534  33.1487823  13.1319606
  90.0023556  84.2345238  62.5167179  90.6353188  84.9009132  62.7841234
  89.3473721  84.2325211  63.2147264  78.9635992  70.3752041  55.0415993
  79.1543627  71.3119173  55.0906754  78.1688643  70.2649546  55.5635834
  96.3861656  77.4592590  39.9597979  97.1329403  77.6036692  39.3786645
  96.6970158  76.8121767  40.5929518  98.1145096  98.5731411  34.4385743
  97.8154373  97.6697922  34.5422792  98.9859772  98.4938812  34.0506363
  77.2697449  64.3311453  15.6529427  76.3998270  64.6791077  15.4569888
  77.7336550  65.0620604  16.0613298  84.7023678  80.4013062  86.2368870
  84.8195934  80.6934357  85.3329182  85.1078701  79.5346403  86.2630177
  98.7231159  48.7361097  49.3754292  98.7821293  48.6234093  48.4267235
  98.9399719  47.8750324  49.7328615  51.9557333  69.4744492  73.8916206
  52.2420406  69.1965675  74.7617054  52.5997114  70.1308823  73.6258698
  99.7762680  92.1442223  44.0362787 100.4513645  92.1229267  43.3580303
  99.1004658  92.7230549  43.6834621  92.1955204  89.1632366  68.0400324
  91.4646244  88.6195278  67.7461052  92.3194695  88.9220238  68.9580059
  87.6214218  95.5427742  81.8293190  88.3819389  95.0585938  81.5077305
  87.4134159  96.1571121  81.1253643  56.0286427  96.0096931  44.0738010
  55.4916430  95.4472160  44.6319103  55.5697298  96.0220051  43.2338715
  64.6938658  95.0937843  68.1539106  64.8043489  95.7496262  68.8423109
  64.0722990  95.4899406  67.5432158  96.5024281  80.6197834  69.6694994
  96.6823959  79.6953773  69.8407507  95.5657864  80.7172203  69.8410749
  73.8178778  74.9901628  41.7680502  73.5863543  74.0614176  41.7606068
  73.1539917  75.4069138  41.2186861  85.0638866  99.3617439  18.3966434
  85.6773949  99.6185207  19.0850484  84.2053890  99.3871593  18.8192272
   8.7248266  31.1461091  28.3310890   8.3081394  31.7195487  28.9743400
   8.0028880  30.6404495  27.9578018 111.2233925  77.8109360  69.8285437
 110.7833862  78.4819412  70.3504372 110.8604145  76.9841623  70.1462221
  81.1677551 100.4488850  32.4510884  80.3436565 100.4765892  32.9372191
  81.3445091 101.3625622  32.2270536  65.9683466  99.9725246  88.9603233
  65.5030060  99.4107151  89.5800495  66.7067146  99.4409370  88.6629009
  49.2315197  83.1753445  78.1576777  48.4207535  82.6861668  78.2976532
  49.2861605  83.2816982  77.2079706  12.8801250  18.7549675  62.4480391
  13.5461473  19.2858207  62.8848934  13.3782458  18.1545830  61.8933821
  89.1206169 108.6226940  48.6307144  89.0192223 107.6716328  48.5928059
  89.9563599 108.7919807  48.1958532  77.4808407  83.6717796  32.3924351
  77.0393181  83.8502121  31.5621042  77.7758980  84.5302391  32.6961207
  87.1823502  96.4571571  19.0279043  86.5623760  96.4641094  19.7571623
  88.0343151  96.3115215  19.4392097  65.8641863  79.5086622  37.9328322
  65.9066343  78.6957073  38.4363484  65.8954620  79.2261887  37.0187974
 115.2911282  56.5012503  84.5031166 115.7214451  55.6712389  84.7083950
 115.8543873  57.1670628  84.8976707  95.3003693  74.1642332  39.6870470
  95.5414677  74.5695925  38.8541102  94.6386814  74.7495317  40.0555992
  85.9250069  57.3366022  57.5188971  86.0003757  56.3980961  57.6913738
  85.0473404  57.4429703  57.1519804  88.7142563  84.2580509  41.7550182
  89.2545795  84.9886513  41.4541578  88.8760948  83.5622215  41.1179495
  80.9668541  49.5850658  38.0537963  81.0102177  50.0915861  37.2427535
  81.8817806  49.4413233  38.2956100  83.8816738  51.2975168  27.8852868
  84.3305779  51.9036007  27.2958994  84.5877361  50.8456707  28.3473897
  85.3920555  60.1658630  44.3077946  85.4826927  59.4401836  44.9253750
  84.5831680  60.6047773  44.5710182  90.8197784  94.7791290  85.2519703
  91.5952587  94.3770504  84.8605728  90.1586246  94.7472382  84.5605278
 103.0216312  91.3801575  53.4757233 103.6838531  91.8843842  53.9484262
 103.5181236  90.6998825  53.0208015  73.7793350  84.3999672  42.5511360
  74.1369963  85.2851391  42.4820614  72.8756237  84.4823456  42.2465849
  90.8766937  92.0479774  86.2045479  91.2724304  92.8092766  85.7802200
  90.6099033  92.3661995  87.0669746 103.0072498  96.9956112  27.5898981
 103.4762478  97.3169327  26.8198133 102.3362446  96.4121914  27.2355151
  79.6112108  85.8853817  74.7892237  78.7938166  86.2736130  75.1012754
  80.1632786  85.8302402  75.5692339  61.6850233  91.5598488  85.8671093
  60.8918285  91.8608952  85.4238796  61.4612246  90.6879807  86.1926842
  14.8557973  72.2178030  31.6550159  14.1741502  72.8168726  31.3505387
  15.6763542  72.6741743  31.4688849 100.4399872  58.5302877  33.7158012
 100.8969212  58.6163664  32.8791189 100.4593468  57.5919390  33.9038467
   2.0515145   2.6998794  22.8384709   1.9885954   2.1759778  22.0398474
   2.3864621   2.0921698  23.4978127   4.5693329  87.1993732  47.2951365
   4.5965481  86.3927937  47.8098488   5.3219587  87.1339130  46.7073441
 115.1411057  66.1723566  32.3933554 114.9972343  67.1186399  32.4021292
 114.9633598  65.9114361  31.4897180  76.4102697  96.3707352  41.2889576
  76.5224171  97.0936680  41.9062233  76.7020416  95.5968761  41.7708731
  99.1496277  62.1462631  44.6320343  98.8160419  61.7704153  43.8173580
  98.9892197  63.0859613  44.5455980  70.8531570  33.4873104  16.5502608
  71.0798693  33.9662623  17.3474050  70.3608608  34.1174030  16.0240865
   3.1243187  76.1662483  57.4457216   3.7573546  76.7218256  57.9005051
   2.7837101  75.5850458  58.1257391  15.3791976  85.5760574  50.3279448
  14.7059298  85.7833195  50.9760094  14.9186814  85.0722408  49.6568823
  70.2460384  54.7145987   0.7286195  70.9232426  54.0759611   0.9516967
  70.0978804  54.5890808  -0.2086785  80.7971382  99.5387268  50.8916187
  80.2252102  99.2134094  50.1964235  80.9911537  98.7666225  51.4230824
  73.0127335  96.4352608  59.7483158  72.3873806  96.9495296  60.2589035
  72.5148726  96.1415386  58.9853716 103.8075066 103.4535313  24.8436117
 103.7251186 102.5393677  25.1151800 103.0964184 103.9038277  25.2994800
 101.1213493  99.1779327  60.6772470 100.3501415  98.7168598  61.0072041
 101.8588066  98.7596035  61.1215258 103.3599949  92.2191143  22.5864816
 103.2543659  91.4517021  23.1487608 104.2359638  92.1233940  22.2126627
  86.3949394  71.6965008  39.3288517  85.5912399  71.5236664  39.8192000
  86.9196129  70.9039307  39.4419026   2.5624469  -0.1718429  54.4142723
   2.9865173   0.6787869  54.5275545   2.1541551  -0.1226906  53.5499144
   2.8445742   4.7146609  50.4994297   2.0048720   4.6928763  50.9584045
   2.8197500   3.9543697  49.9184227  83.2992554  63.2515669  61.2638855
  82.5500965  62.6561832  61.2414551  84.0388107  62.6967192  61.5117455
  88.8168335  99.1538429  80.2547836  88.3015537  99.7818470  80.7610798
  89.6914196  99.5405388  80.2124119  87.3900604  99.7728252  75.4328156
  87.6211834  99.2354107  76.1904383  87.9158783 100.5664062  75.5327225
  65.9537411  15.9609008   1.3103431  66.6331482  15.9954822   0.6369631
  65.3725338  16.6923451   1.1019616 107.5226784  98.0130768  63.6215973
 106.8042278  98.6258602  63.4649277 107.2573662  97.5275993  64.4027281
  77.8824854  78.3387375  55.4361629  78.4884167  77.5977898  55.4451132
  77.6170349  78.4200096  54.5201063  98.4786129 102.6585865  83.7854385
  99.4060230 102.6569462  84.0223598  98.0329418 102.3154640  84.5599556
  72.5979519  67.4049425  66.8348026  71.7886734  67.9061890  66.7345428
  72.6683283  67.2495842  67.7766848  50.1988316  87.2481251  57.9104662
  51.0787821  86.9301319  58.1124496  49.8013592  87.4123764  58.7656069
  11.7317307  60.4616547  74.2233467  12.3083997  61.2140036  74.0904713
  11.3101459  60.6289434  75.0662661  74.0370703  60.7230234  50.9362936
  73.6190939  61.1732435  50.2022457  74.0767717  59.8063040  50.6637478
  85.2187824  99.7193623  61.9004536  85.3151512  99.1585350  61.1307669
  85.5810833 100.5627823  61.6291285  13.4432507  44.4935656  52.1086788
  13.0787027  45.3672504  52.2501469  13.1679118  43.9920187  52.8760529
  50.8600521   8.2200241  57.8207779  51.4571714   7.4978548  58.0161047
  50.0382757   7.7926975  57.5793123  80.7552242  54.8829412  27.2939491
  81.2837982  55.4803419  27.8230524  81.1213875  54.9558163  26.4125609
   3.1246874  72.3359203  39.9016953   2.5314379  71.6158533  40.1156759
   3.9627865  71.9101858  39.7212195  13.0202937  78.1214809  60.5157852
  13.7528241  77.5915289  60.8300829  12.5931931  78.4362316  61.3124943
  86.7212963  60.0509787  22.8236532  86.2145805  59.6287346  22.1299863
  86.2010193  59.9168873  23.6158419  95.9433556  84.9902725  71.4750910
  96.2232494  85.0458908  72.3887634  96.7573833  85.0247288  70.9727001
  72.7820253 103.3776569  48.8421822  73.3864975 104.0151787  49.2222071
  73.1340694 103.2047367  47.9690313 114.8097229  71.7650652  64.6519566
 115.2730179  72.5490093  64.3569565 114.0934372  72.0991230  65.1919317
  57.1090651  29.4866848  16.9235790  56.5270901  30.1869988  17.2187042
  57.2418833  28.9425731  17.6998091  23.5161257  11.9371796  92.0606327
  23.9456654  12.7509892  92.3241520  23.1051683  12.1441650  91.2212849
  21.5501785 107.9419899  88.4257317  22.2248101 107.3209953  88.7004471
  20.7862258 107.3973370  88.2360935  50.9691381  31.8296099  72.0591927
  51.7077255  32.3892832  71.8194342  51.1521673  30.9942341  71.6292191
  68.5765266   3.9227799   2.1208531  67.7265310   4.3172136   1.9254963
  69.2148542   4.5404065   1.7640552  51.4874077 109.0849400  41.2127876
  51.3273191 108.1431103  41.2724161  50.6209278 109.4667625  41.0725832
  79.5545101  80.2664185  56.5671301  78.9845848  79.6854925  56.0632038
  80.4371166  80.0647545  56.2563658 107.6800346 108.6244297  57.9472971
 107.2833157 109.2867184  57.3814201 107.7917671 109.0649700  58.7897158
  71.8708515  94.3894100  49.7506762  71.6615105  93.4834671  49.9780178
  72.7582979  94.3479824  49.3943644  49.5020723 100.6429386  65.1187229
  49.6894789 100.1195145  64.3395376  49.1891575 100.0086975  65.7637501
 104.2032433  86.1989594  78.5078049 104.6527386  86.8708897  77.9952621
 103.2803535  86.2961483  78.2731390 104.5195675  92.7947521  39.9148846
 104.2890072  93.2505512  39.1053605 104.5505905  91.8702698  39.6687317
  27.5311160  16.0791850  40.7255554  27.7566051  15.1504064  40.6730604
  28.3707380  16.5231442  40.8445692  78.1297398  53.5625219  52.9247999
  78.1692839  52.6206160  53.0905628  78.0405521  53.9550161  53.7932587
  40.3001356   2.4558225  60.1558971  39.7432137   2.2940856  59.3943787
  40.9658957   1.7692375  60.1158857  99.7992706  80.0395203  39.4528604
  99.1570950  80.1377583  40.1558447 100.6272221  79.8788357  39.9055290
  60.5008078  75.9317160  58.7263489  59.7055817  75.6420612  58.2792044
  60.4868269  76.8854475  58.6461163  77.3639727  76.8362427  20.0147557
  76.8112755  76.0547638  20.0212574  77.2786999  77.1825314  19.1264749
 106.1654663  90.9114742  34.8378658 106.1365604  90.6837273  35.7671285
 106.6464520  91.7385387  34.8088145  95.8808708  76.3377142  11.3819528
  96.2813663  75.5733252  10.9677720  96.2937927  77.0867920  10.9522974
 112.6786041 100.5133247  45.8886242 112.1409702 100.9783554  45.2475929
 112.5340462  99.5870113  45.6955290  75.8586597  91.1529732  36.8872619
  76.3195038  91.6746140  37.5443387  75.1025343  90.7952881  37.3526263
 107.9947090  87.2282887  81.9994450 107.1609211  87.6969910  81.9627762
 107.9336929  86.6924667  82.7902699  76.1520338  84.1940117  40.4472780
  76.2533808  83.3128643  40.0873756  76.8446779  84.7049427  40.0284338
  96.1879063  92.9528427  53.8096237  95.2607155  92.8227520  54.0086651
  96.5765095  93.2199478  54.6426153  93.8533688  78.5171366   8.1948656
  93.9806080  78.1710672   7.3115331  93.9799118  79.4614458   8.1026751
  10.0130558   4.3803659  72.5436926   9.5321977   5.0534284  73.0253506
  10.0482225   4.7079945  71.6449976  77.3799658  58.9055347  43.4495020
  76.7688894  58.3114958  43.0136824  76.8792534  59.2717075  44.1784954
  63.7293482  95.8786488  76.2243986  64.4999790  95.9786415  76.7832947
  62.9897690  95.8897972  76.8319654  93.8749123  85.4967403  74.7867346
  94.7968769  85.3447247  74.5791292  93.4518051  84.6525192  74.6302080
  87.9218292  79.4083405  38.8172984  87.1438313  79.9622393  38.8816452
  88.2817459  79.3969488  39.7041798 112.9291344  63.1655788  46.6249847
 112.5823212  63.2016516  45.7335520 113.6013031  62.4848413  46.5931177
  82.7343750  79.8715878  63.6091614  82.5123596  80.7372665  63.9520073
  83.6444283  79.9531412  63.3238745  56.6417789  11.9616628  14.1270101
  57.2366571  12.7108252  14.1602933  56.2785816  11.9833732  13.2416582
  11.3371861 102.6349068  56.4515972  11.6209209 102.4516678  57.3472261
  10.6175137 102.0226765  56.2983561 112.7179909  81.6493797  37.8962874
 112.0054150  81.4090443  37.3040867 112.9725742  82.5297165  37.6198268
   4.9711919  85.0426769  44.7176409   4.4988826  85.4858398  44.0128326
   5.5949098  85.6955147  45.0354481 105.6485081  98.1674194  67.9251194
 104.9743652  98.7691784  67.6094437 105.3046703  97.8365326  68.7548971
  74.2868280 106.1171150  48.9850378  73.8548374 106.9198322  48.6930609
  75.0107193 105.9974670  48.3702993  80.4713058  69.8683071  63.8259363
  79.8396397  70.4099751  64.2990351  81.2001038  70.4595518  63.6374807
  86.6932487  70.9801292  77.9676342  86.0664749  70.3034306  78.2234907
  87.3981285  70.5012274  77.5317049  95.3217125  80.0167751  73.7912893
  94.8860359  80.2801228  74.6018839  95.2432346  80.7796192  73.2184505
 106.3795948 105.8055496  72.0560551 105.4796410 106.1152744  72.1580076
 106.4831352 105.1417637  72.7378845   2.1300545  23.4073639  48.1871891
   2.1041721  24.2834139  47.8023577   1.7932589  23.5258508  49.0753126
  89.7443485 104.3753815  75.3754330  89.3321609 104.8612309  74.6610928
  89.5981598 104.9183750  76.1500406  95.9588432  90.9523869  63.2718182
  95.0609875  91.2703037  63.1769276  95.8972549  90.0102711  63.1141567
  94.1145706 105.4336739  69.8896456  94.1872597 105.8998585  70.7224846
  93.2818317 105.7292271  69.5216227  71.9727993  76.0338831  50.9910727
  71.8689251  75.9618139  51.9398880  72.2296000  76.9446278  50.8467388
 109.7237682  92.8375435  67.9249525 109.6104813  91.9367790  68.2283068
 110.3953934  93.2017803  68.5015678  46.6249037  81.5134048  88.0441856
  46.9441891  81.4498138  88.9443207  45.8879423  80.9036541  88.0078220
 104.3165970  73.1526804  46.8483305 104.7956085  73.7861252  46.3139772
 104.7164726  73.2197952  47.7154064  97.9541874  93.0497360  83.1906700
  98.9093113  93.0178165  83.2449436  97.6943874  92.1468258  83.0076504
  25.8469033   3.0366275  64.7693968  26.7494488   3.0594626  64.4513988
  25.3127575   3.0485299  63.9751816  92.6815987  86.7309761  65.9016895
  93.2615280  87.4297237  65.5989408  91.8005371  87.0481300  65.7032299
   0.7563210   9.6821958  60.2438354   0.3080812  10.0642800  59.4892979
   0.3967825   8.7978202  60.3134298  60.7725525  95.3134918  35.3539658
  61.6722822  95.4437256  35.0543737  60.2322626  95.5553055  34.6017408
  39.8760533   3.9747837  55.3912449  39.5735765   4.8497766  55.6344032
  40.8306980   4.0313983  55.4322100  63.5239267  79.1443253  17.1448863
  63.5486460  78.4130573  17.7620280  63.5522509  78.7306929  16.2821364
  80.4958630  80.8554459  72.5108862  80.3161716  81.4863014  73.2079983
  79.9633455  81.1547089  71.7739344  53.0874920  30.9529924   5.9365517
  53.5455084  30.3169894   5.3870475  52.4209404  31.3297629   5.3621101
  98.9492130  83.8064861  57.2455883  98.5127926  84.0898132  58.0490160
  98.7502289  84.4937897  56.6097784  21.9782615  88.5750294  51.8501711
  22.5461864  88.7519646  51.1002493  21.1904502  88.1883144  51.4680243
  73.1518364  74.1119623  58.3436108  73.7401009  73.5143137  57.8820992
  73.4515572  74.9853420  58.0914068  81.2179661  80.0311184  49.8590136
  82.0900059  80.1716995  50.2278137  80.7737732  79.4754744  50.4994678
  12.6261222 100.4356861  79.5897150  12.5245345 100.0806332  78.7066269
  11.8452775 100.9730053  79.7231197  96.5564632  70.2148104  69.7584295
  96.4182949  70.2694941  70.7040262  96.9279194  69.3434525  69.6206474
 109.2338657  96.9829369  39.3719316 108.6892128  97.6456261  38.9471674
 109.6972656  97.4593639  40.0607824  61.6993475  28.9160848   2.7022716
  61.6888905  27.9671454   2.5772315  61.0638189  29.0726542   3.4007096
  74.5812416  91.7752171  54.9517679  75.1652622  91.7287350  55.7087326
  74.3421698  90.8648872  54.7774553 111.9040966  62.2056293  70.1195908
 111.4774895  62.7659941  69.4713354 112.7954960  62.5485706  70.1830721
  95.9536552  90.1723099  67.4889421  95.1773643  90.6831169  67.2594166
  95.6109142  89.3129921  67.7345848  86.3533306  80.8138847  50.0183296
  87.2814560  80.6385040  50.1734352  85.9063530  80.0234699  50.3211164
  92.6667976  77.1294641  38.9117432  92.1850491  76.9261503  38.1099892
  92.9010010  78.0532885  38.8227010  69.6245527  54.8702240  25.5488563
  69.2608309  55.1521921  24.7095513  68.8675642  54.8173904  26.1323071
 105.4680634   3.8728192  68.5225916 106.0659981   4.6116072  68.6361885
 105.0866127   3.7378404  69.3900681  97.0131588  61.0087156  71.9805527
  97.0190430  60.5213928  72.8043938  97.6248932  60.5345154  71.4173985
 110.3797531  59.0714788  49.0044117 110.4276752  58.6710405  48.1363201
 111.2350464  59.4838381  49.1255093  90.0065041 100.7382488  57.2912407
  90.1984978  99.9501896  57.7995014  89.1385078 100.5786610  56.9206238
  88.1266689  94.2975140  84.2995930  87.9130554  94.4288826  83.3758354
  87.2772980  94.2677307  84.7399521  62.1930504  90.5414200  70.1668692
  62.1195889  91.2005711  70.8570528  62.9370356  90.0001049  70.4308653
  70.6613111 108.1225967  47.4659824  71.5146542 108.1376743  47.8993511
  70.5265665 109.0231705  47.1709490  63.2315350  81.7497444  84.9068260
  63.9050865  82.4180031  85.0332928  63.1413841  81.3351440  85.7648563
 100.5666351 108.6671543  75.7381058 100.7275486 109.5010757  75.2965975
  99.6737576 108.4312630  75.4864025  89.2431355  98.4997940  90.5027962
  88.9130783  99.3045330  90.9024143  89.4917583  97.9484558  91.2447071
  97.5700569  51.7403030  59.2168951  97.0027542  52.1874475  58.5888338
  98.0084038  52.4478006  59.6896839 114.8192024  82.9335403  72.2115421
 113.9955139  83.4211636  72.2133875 115.3625298  83.3836174  71.5646553
  87.1337605  65.4499865  30.6118846  86.4281464  66.0955763  30.6513762
  86.9157600  64.8148680  31.2940335  10.4414725  11.9718242  47.1103859
  10.3436935  11.1744881  47.6308918   9.6059042  12.4277425  47.2113609
  24.6792483   9.2891639  52.8708792  24.5851517   9.6212596  53.7636805
  24.0317416   8.5871071  52.8069925 114.3137836 104.0876675  65.2055740
 113.8027477 103.9642906  66.0054827 114.8276520 104.8784828  65.3692436
  80.4254532  67.7097130  36.8833756  80.7703495  67.2874022  36.0966516
  79.5570898  68.0204964  36.6272783  23.9689827  47.4663973  55.6921005
  24.9021792  47.4445105  55.9039879  23.8131523  46.6528654  55.2123928
  49.7993994  96.6266632  55.6532860  50.7558155  96.6286182  55.6146431
  49.5357084  97.3593616  55.0966454  98.9223480  90.7080936  63.7248564
  99.4587994  89.9154186  63.7357473  98.0434608  90.3995037  63.5044956
  85.2931023  57.8210545  45.9253263  85.3728104  58.5604763  46.5279293
  84.4331074  57.4472094  46.1173582 106.4673996  55.6796789  72.0752287
 107.0093250  54.9022770  72.2101259 107.0727062  56.3369942  71.7320490
 109.7617054  63.6792135  40.9047365 110.5140591  63.1029081  40.7703400
 109.9833298  64.1838408  41.6873407   0.5524654  96.0375500  90.9382725
   1.3851881  95.6017494  90.7569313   0.5946919  96.8524933  90.4379559
  77.6777554  69.7041178  43.9336252  77.0970964  70.4622698  43.9989567
  78.5419703  70.0435638  44.1663170  67.4058294  95.5203342  71.3595104
  67.5596285  96.4567566  71.2342215  66.5372610  95.4715919  71.7588186
  15.8948767  88.1174088  66.6579819  16.3910139  88.6491489  67.2803402
  16.0480154  87.2151184  66.9384336  10.7552505  80.7035542  55.5274487
  10.3037488  81.4395618  55.9405851  10.8932316  80.0776482  56.2383842
  47.8455305  96.6492939  44.2667484  48.3769989  95.8697987  44.1049910
  48.2675123  97.3377705  43.7527943  27.4948573  92.3211670  40.5691576
  26.7591429  92.9125214  40.4102325  28.2092905  92.6810551  40.0435162
  41.8921804  98.2549763  62.9404449  42.3463774  97.4559975  62.6729107
  41.8693304  98.7937450  62.1496010  92.8542328  89.3442440  79.4838524
  92.4594784  89.3400478  80.3558540  92.1103954  89.4051266  78.8844919
  73.3287239  80.3474998  52.5989676  73.5688591  81.1773586  52.1867704
  74.1584063  79.9859762  52.9106760  65.7495832  92.6131630  60.1179409
  65.9493542  91.6772079  60.1006269  64.8486853  92.6599026  60.4379845
  91.3787079  97.9577637  39.3430042  91.1395168  97.9392338  40.2696514
  92.3196888  98.1332493  39.3419933  93.4363365  99.2158508  86.9754791
  92.5521660  99.0020847  87.2734547  93.3271885  99.4579124  86.0558510
   3.8423264  52.3956966  89.3256950   4.6846443  52.3721743  88.8716316
   3.1987271  52.1913338  88.6472797  82.7232838  78.9088583  69.1488981
  83.3206844  79.3628645  69.7432280  82.4699020  79.5744753  68.5093784
 105.2955627  77.6772499  68.9045191 104.4289494  77.2991848  69.0537930
 105.1473999  78.6229134  68.9036274  70.0933552  84.6621418  57.2258997
  70.1899385  85.3071976  57.9264784  70.6951475  83.9571571  57.4647999
 109.6454048  71.1624098  51.7487860 109.8736191  71.9591761  52.2276592
 110.0250244  70.4537153  52.2682762 102.5997543 107.4017334  80.3846741
 103.4126282 107.1849728  80.8412933 101.9456863 107.4714375  81.0800648
 102.3828983  49.4993973  64.8818779 101.9310093  49.4540834  65.7244730
 102.2907448  50.4123783  64.6094656 109.5809841  77.4580717  64.1483974
 109.4213676  78.3871126  64.3146372 109.4537926  77.3582649  63.2049513
   1.2799548   4.1079408  61.2944126   1.2481269   3.3722872  61.9059944
   1.4630909   3.7057725  60.4453230 115.7495022 102.1503639  23.9114881
 115.0354195 102.1154022  23.2750154 115.6678009 103.0140781  24.3159080
 105.8313847  60.2527714  60.2983618 106.2049198  60.5565453  59.4710541
 106.1390781  59.3503380  60.3830433 108.1197929 104.8677826  27.6939082
 107.3734665 104.2844582  27.5562549 108.1199837 105.0382996  28.6357975
 112.1284962  97.6013470  47.4087954 111.5747929  96.9383240  46.9964409
 111.7015266  97.7830124  48.2460070  28.8185453  53.2831907  14.3292737
  29.1602349  53.5534620  13.4769630  29.5985746  53.1328678  14.8633039
 101.8350029  70.4684877  47.6482010 101.6784954  70.9176350  46.8175411
 101.2237930  70.8777905  48.2606792  90.9811401 103.9654827  54.3057203
  90.5662060 104.7678852  53.9891577  90.3852940 103.2659245  54.0377617
  46.0645771   8.7539417  21.2939572  45.8833790   8.1586820  20.5665898
  45.5732536   9.5476162  21.0820222 107.2897625 102.7503490  22.0258594
 107.6171780 102.7016830  21.1277127 107.5193119 103.6328411  22.3169732
  80.0455952  88.6647415  88.8607407  79.8313427  88.8905907  87.9555798
  80.9856510  88.8300991  88.9327717  75.8952427  79.3201923  68.1978321
  76.7848253  79.5117998  67.9009199  75.5263519  80.1758480  68.4169388
  14.7589636  87.0425415  56.7157125  14.6740413  86.2293148  57.2133970
  15.7004726  87.2139931  56.6958714 116.0250187  73.2517910  42.1626759
 115.2744579  73.1948423  41.5713596 115.9960556  72.4378395  42.6655436
 101.8477821  81.7852497  46.2990856 101.2467289  82.3569679  46.7766762
 101.2995243  81.3571358  45.6415462  66.5251160  60.9758139   4.8232991
  66.3271999  60.3927898   5.5562037  66.1064959  60.5621672   4.0683907
  93.6307430  78.0777597  67.8395653  92.8291035  77.9057121  68.3335352
  93.6263561  79.0244293  67.6980448   6.5338719  99.6596909  47.6500702
   6.8453634  98.7798786  47.8625011   5.6317735  99.5302105  47.3573494
  80.4353428  83.2682991  66.9211483  80.3999519  83.9497948  66.2499142
  79.7069263  83.4719086  67.5078249 107.6154995  58.1232643  59.8466158
 107.3651028  57.3074675  59.4130182 108.4822941  58.3254242  59.4944477
 101.1567688 101.4370632  62.1211433 101.2744617 100.7795048  61.4355850
 101.2656307 100.9522438  62.9392672  11.5491223  97.7093983  74.0606594
  10.8563709  98.3687305  74.0204906  12.3617208  98.2152748  74.0573263
 107.0420742  97.5089264  83.5840988 107.0621586  98.3354759  84.0664291
 107.8802204  97.0931816  83.7863350 112.5139713  87.6268959  33.1990433
 112.7180290  87.1357155  32.4032187 111.9266224  88.3237648  32.9064131
  16.4680767  13.8251841  58.6544752  16.8698478  13.0180776  58.3329296
  17.1494913  14.4894826  58.5514545 102.4321842  37.3022079  38.2760262
 102.0144844  36.5604687  37.8383207 103.2872009  37.3796034  37.8527188
  93.4929657  85.6903553  57.3218679  93.3032703  85.8710766  58.2425117
  93.4705734  84.7357178  57.2556162  24.8437738   6.7999107  70.0004244
  24.8600984   7.2785389  70.8292055  25.5188942   6.1284429  70.0982809
  68.6159468  90.4824162  53.3312273  68.4881687  90.2912998  52.4020481
  69.0876913  89.7213745  53.6696196  99.2845631  81.3741398  61.5779591
  99.1643429  80.7975388  60.8234262  98.4443760  81.8228340  61.6727829
  84.0440178  95.0950146  75.3690767  83.2958126  95.3431892  75.9120655
  83.6649513  94.5689106  74.6649837  16.0831118  90.9717751  37.0001030
  16.5250313  90.1484203  37.2075272  16.6441989  91.3862419  36.3446450
  99.4084072  93.2524490  46.6013336 100.0355339  93.9729404  46.5393972
  99.6292210  92.6789665  45.8674479 109.4797134  93.4514427  63.8990688
 108.8654137  92.8158951  63.5317135 110.2723789  92.9444408  64.0747881
  90.0823879  22.6016521  45.9029341  90.3283978  23.1794715  45.1805496
  90.0745010  21.7257428  45.5169916   6.4970458  88.4688950  65.5971766
   6.8259311  88.4677505  66.4961004   5.6659651  88.9412022  65.6467962
  59.9770355  82.7379513  56.6561699  60.6467485  82.5502682  57.3138142
  59.2276287  83.0539608  57.1609116  84.6574974  82.5634670  67.7216911
  85.5628490  82.8689957  67.6648188  84.5008183  82.4519157  68.6593676
   3.6290309 103.9802170  73.3175278   3.7253353 104.7041893  72.6987982
   2.9260764 104.2586994  73.9044952  39.9999022  18.4950304  79.3087149
  39.4899774  18.2973099  78.5231495  39.9117017  17.7136254  79.8544836
  20.2408910  97.9370213  31.6025162  20.2128530  97.1768475  32.1835303
  19.4019830  98.3762932  31.7421746  91.8848038  97.8224945  51.2011957
  91.7864323  97.0655823  50.6235790  92.8311920  97.9293919  51.2968445
  37.0549369  45.7954454   3.3334580  37.8238368  45.6256580   2.7892160
  37.0248437  45.0575256   3.9423966  76.9395781  80.1266766  64.3001461
  77.3752213  79.6118593  64.9794197  77.2806931  81.0134983  64.4159842
   2.6521400   7.3205209  70.6108046   2.0790911   7.9950476  70.9753084
   2.4458434   6.5331686  71.1145449  97.0712280 102.1551800  60.8641624
  97.9067993 102.6219559  60.8517742  97.0154572 101.7872715  61.7460775
  73.3669090 108.2064819  33.2472253  72.4832439 107.8389549  33.2644033
  73.2530689 109.1167545  33.5205030 103.6541080  85.4795456  54.9718094
 104.3801308  84.9067307  54.7248268 103.2622719  85.7422543  54.1389370
 109.3290615  76.6733074  78.0510473 109.1193104  75.9951401  78.6931753
 109.7744465  76.2050343  77.3449421  89.2106628  89.9251747  40.7285261
  88.8762665  89.5694637  41.5518618  88.4277725  90.0877380  40.2023315
  38.4767771  27.3549056  52.4068785  37.8456283  26.6369104  52.4555016
  38.1361747  27.9270458  51.7192173  18.0464196  99.4372749  31.3356996
  17.1113503  99.2416286  31.3957167  18.0872357 100.3905296  31.2591219
 112.1186638 101.4803600  83.0732822 112.4418259 101.8983269  82.2750950
 112.0242214 100.5571365  82.8388214  16.9440627  78.4448051  41.0913277
  16.7127347  77.9715490  40.2921104  16.9254839  79.3674707  40.8372116
  31.9876838  34.1464353  13.9226186  32.2613811  34.1928768  14.8386776
  31.2812257  33.5005951  13.9161658  30.0198722  -0.0564827  85.9445190
  30.1738691   0.7115055  85.3943253  29.1922164  -0.4169970  85.6263256
  85.9712982 105.2395153  57.9822445  86.1090374 104.6190357  58.6979723
  86.8351746 105.3394318  57.5822973  80.3637028  71.8893909  78.8120985
  80.7271576  71.9400597  79.6961594  80.9961891  72.3562479  78.2659912
  50.6667614  11.3326383  56.6879702  50.7369518  10.9059942  57.5419474
  51.4932823  11.8048728  56.5875006  17.8478503 108.2808971  58.7803268
  17.3757792 107.5969028  58.3054209  17.9676771 107.9226971  59.6598530
  91.0303402 106.2806702  45.9058952  90.2023792 106.6843605  46.1661530
  91.5711880 106.3132954  46.6949797  43.3030224   1.8768269  31.8448257
  44.0661669   1.4461559  32.2300029  42.7514124   2.1018015  32.5940585
 103.9585304 106.9673729  72.7577448 103.2758141 106.4492226  72.3315382
 103.8136578 107.8596497  72.4429512   3.4596324  92.5116253  43.9954710
   3.8724631  93.0522156  44.6689463   2.6772565  92.1579170  44.4185638
  52.8977680   0.7157168  22.3425293  52.1912718   0.6524073  21.6998124
  52.4834347   0.4942450  23.1765008  39.9084592  31.6491389  41.5629482
  40.6884670  31.9326496  42.0398569  39.5499563  32.4544358  41.1898518
 109.2167377  74.0744162  62.7653122 109.5123863  74.9848127  62.7643204
 109.9962044  73.5697079  62.9975462  14.3541896  16.9646525  56.1129951
  14.6112752  17.2544658  56.9882917  13.9493203  17.7352309  55.7148457
  21.6362119  76.1441565  77.8345251  22.0334101  75.8760214  77.0059299
  22.1319127  75.6701374  78.5022259  73.8573790   0.2163989  67.3020697
  73.9539766  -0.5410285  66.7248344  72.9495907   0.4950662  67.1816683
  16.7662907  88.0342293  47.2993660  16.9561970  87.8051376  48.2091379
  17.4549019  87.6014423  46.7946482  98.3997631 101.2694550  48.1528425
  97.9883194 102.0414925  47.7643871  97.7612972 100.9540558  48.7924576
  85.5488873  91.3985920  78.4335756  85.2861977  92.0339203  79.0996027
  85.2267838  90.5594730  78.7627506  43.8695621  60.0825262   0.3839295
  44.5148849  60.7718325   0.5409140  43.0338478  60.4746914   0.6369530
  96.7430496  92.9772091  13.3155942  97.2927952  93.4544468  12.6940966
  97.0784569  93.2304287  14.1756034  23.5057235  17.6608324  84.4385433
  23.3067465  17.0017099  83.7735653  23.7144804  18.4499800  83.9386463
  93.6176491 101.8090630  67.2594929  94.2729378 101.6846943  66.5729427
  93.0516529 101.0400391  67.1925163  68.7662745  43.4616661  91.8945503
  68.2560492  42.6574707  91.9903183  68.1786728  44.1552591  92.1943474
  54.9966860   4.6017376  60.3500319  55.5574989   3.8619900  60.5834723
  55.5555439   5.3707206  60.4621649  11.7055011  30.8135796  63.5828352
  12.5776839  30.9922099  63.2312393  11.5548420  29.8879981  63.3909130
 111.1329079 102.6401615  62.3897028 110.5352020 102.7383709  63.1308746
 110.5628014 102.6388645  61.6207981  95.0615883 103.4957027  91.3224602
  94.4356155 103.9579868  91.8798542  95.1282024 102.6229191  91.7098236
   8.5932881  69.9814320  65.8152533   7.9129976  70.6074619  66.0632944
   9.1211420  70.4461145  65.1658869   3.3624938  52.7158308  52.3045921
   3.6633927  53.2100868  51.5420914   2.6906872  52.1279955  51.9591093
  26.2070012  71.9415236  19.5000327  25.6786275  71.6637135  18.7517858
  26.9801044  71.3779402  19.4697523  91.6624546  73.8883686  32.0042729
  91.5080833  74.8197556  31.8463993  91.1314774  73.4423733  31.3444400
  74.1539621 107.8880024  74.9335575  73.8725424 107.0078659  75.1833630
  74.2877769 107.8370762  73.9871264 102.9153538  88.9841270  38.8992095
 102.8653526  89.4552898  39.7309160 103.1342220  88.0854988  39.1457915
  89.1846180  88.9196682  75.7768631  89.2962170  89.2391777  74.8814917
  88.2864189  89.1582584  76.0061026  16.6663337  88.8512516  63.8065910
  16.1344659  89.0470982  64.5779514  16.4466107  87.9456711  63.5877895
 110.0410748  72.1983576  32.4448228 109.1273212  71.9293785  32.3502517
 110.4284763  72.0371294  31.5844989 103.6025238 104.7592831  63.7238407
 103.2176590 104.2691326  64.4503784 104.5227528 104.4958782  63.7180519
  82.7466774 100.9040165  64.9226952  82.4518776 101.4044952  65.6835175
  83.6910534 101.0560989  64.8872471  19.1421258  84.2331219  60.0034094
  19.7402430  83.7063599  60.5335188  19.7072136  84.6659374  59.3634319
  91.4890766  83.5697556  90.7223320  90.9934616  84.0170383  90.0363731
  92.2349930  84.1449261  90.8926678  81.3151741  74.9435902  52.3834515
  81.6343594  74.0417910  52.3500538  80.8722973  75.0721312  51.5446615
 109.8362446   2.8940666  54.2165327 110.5862713   2.3311709  54.4084740
 109.3348503   2.4096346  53.5606623  58.6804676   4.5094866  74.9573660
  59.0525723   4.1304392  74.1610670  59.4202614   4.5711416  75.5616283
 106.9604588  48.9932060  59.9029875 107.1881104  48.6533737  59.0375900
 106.0056400  48.9361668  59.9391222  21.6279674   3.6043400  87.2430897
  22.1842980   3.5120326  86.4696598  21.3319421   2.7140594  87.4328327
  76.4180374 105.0456429  46.4419127  76.7060518 104.6815205  47.2789860
  77.0313835 104.6865082  45.8007717 105.9458923  52.6700115  51.0770082
 105.9115791  53.5092163  50.6178951 105.0337791  52.3828745  51.1196995
  18.1162703 101.5961742  51.8862152  17.1635151 101.6713238  51.9395256
  18.2674682 100.9549046  51.1918449   2.0758052  97.7094364  62.8264570
   2.5059688  97.5431156  61.9876957   1.5492266  96.9259930  62.9850864
 104.4822598  68.7560606  61.1948633 105.3246784  68.4602737  60.8497906
 104.5591450  68.6446524  62.1424437 108.9557076  87.4705315  32.1298599
 108.5874653  87.9456520  31.3849521 108.7080956  87.9925632  32.8930068
 114.4425869  99.0954399  47.3364639 114.4545269  99.5513821  46.4949179
 113.7591553  98.4322548  47.2398901   4.9768758  50.2615499  79.9085379
   4.1085923  49.8591471  79.9281693   5.1171219  50.5722952  80.8029652
 102.6651669  93.6233425  51.1138296 102.7502823  92.6700592  51.1293030
 102.6211452  93.8448048  50.1836443  90.8011532  16.8608594  47.3129845
  91.6362762  16.4467716  47.5305367  90.9921455  17.3944342  46.5415907
 109.6899414  67.8444338  51.4164066 110.4499340  68.4047270  51.2591696
 109.8674393  67.0522070  50.9093523  43.2232046  17.4174559  77.2483921
  42.7838659  17.5293779  76.4053679  43.0355740  18.2258141  77.7254486
  54.7548962  78.6772776  92.9791069  53.8043070  78.5650110  92.9765511
  55.0258446  78.4454203  92.0908165  52.6240921  45.8191586   7.3565394
  52.4743271  44.9133396   7.0858109  52.4670792  45.8160067   8.3007681
  14.1997015  19.5398641  80.9603596  14.7673798  20.3077912  80.8950901
  14.0684390  19.2613244  80.0540352  17.0541525 101.5180683  37.2761559
  16.5733540 101.2994957  36.4778495  16.4025080 101.9310951  37.8427243
  10.0376081  87.5858593  43.1115866  10.2493334  87.7123642  42.1867085
  10.0904202  86.6390610  43.2420540  84.4212627 102.8046417  41.7536974
  84.8732090 103.4138203  41.1698532  84.3522358 103.2754993  42.5842190
  89.1524124  79.7145367  45.2653313  89.2865276  78.9184713  45.7796526
  89.6565628  79.5701170  44.4645786 109.6811676  74.5967484  52.2009277
 109.5011234  75.4205275  52.6539183 109.4663334  74.7749710  51.2853336
   3.7577802  88.0851746  40.4574394   3.2978776  88.8990784  40.2518082
   3.4736019  87.4717236  39.7798347  75.3183746  92.2769547  34.5006418
  75.6815863  93.1446362  34.6779346  75.5475760  91.7591000  35.2723479
 102.4420261 107.3808384  63.8436270 101.6509724 107.9140949  63.7654161
 102.1181965 106.4917088  63.9879036  36.6348958  85.3443527  76.1730146
  36.9786191  84.9990273  76.9969273  37.2594428  86.0237980  75.9189796
  95.4870796  98.8542652  67.6907158  95.5742073  97.9347897  67.9421473
  95.6885624  98.8668251  66.7550421   5.4782176  14.1727674  40.9298563
   5.4957539  13.3032358  40.5300570   5.6581235  14.0140009  41.8564939
  90.8371449  93.4710407  38.3973789  91.5263557  94.1175461  38.5498810
  90.6232643  93.5634327  37.4689651  31.5759492  22.8189707  50.8134222
  30.7619214  22.9624391  50.3307104  32.2656703  22.9366875  50.1602268
  12.7843249   8.0116272  61.1460304  13.4596133   8.0786943  60.4709625
  12.2963738   7.2200817  60.9188938 113.1187248  83.2375813  78.7566805
 112.9606915  82.3568535  79.0966463 113.2839108  83.1077766  77.8228235
   7.3837638   3.2418740  79.4216299   6.7837435   2.5231621  79.2224789
   6.8783903   3.8261664  79.9868107  83.2591343 104.8187160   2.7844992
  83.7374210 104.0750217   3.1510913  82.3395634 104.6255684   2.9670358
   6.9149691  80.1840782  73.7400198   7.6267987  80.7233715  74.0845299
   7.3018235  79.7243500  72.9948807   2.5830665   6.2508309  11.4242041
   3.0110908   5.5649096  10.9118187   2.4573694   5.8605295  12.2891295
  16.7476940  89.8531532  34.2278457  17.1698344  89.2691517  33.5977864
  17.2418535  89.7287273  35.0381279  59.7963190  60.0589418   3.1689820
  59.7410631  60.5032206   4.0150291  59.0273094  60.3640556   2.6875597
   6.9390178  61.5428734  60.0062513   7.1774733  60.6470919  59.7676229
   5.9915662  61.5112877  60.1388025 107.5062370 106.5758801  56.2323332
 107.3667336 107.2409821  56.9064331 106.8572617 105.8993053  56.4254856
  34.7644305   9.2739719  42.8153849  35.1278210   8.4826690  42.4178696
  34.6890640   9.0617329  43.7457085  49.0379143  91.4276314  56.5059137
  49.2978001  92.1256447  55.9046888  49.8309994  90.9045696  56.6227865
  96.4089298  80.5438900  49.8798704  97.1149063  81.1902809  49.8809624
  95.6721210  80.9932518  50.2938890   9.5104802  17.4751449  76.2221479
   8.8557428  17.9536438  75.7136297   9.0377295  16.7191553  76.5703106
  71.7543602  83.5222149  72.8909779  72.6703024  83.2442188  72.8908539
  71.5133238  83.5531616  71.9651413   7.9390442  23.5349870  59.3948555
   7.8899831  22.7199388  58.8953352   7.1550328  24.0206003  59.1384649
  87.0123863  74.5724916  86.6719341  86.8787861  74.5688105  85.7241154
  86.9248486  75.4921341  86.9225883 114.6266842  17.1320879  82.4224854
 115.3725052  16.8184912  82.9339981 114.6609116  16.6232944  81.6124344
  28.8842273  11.4492524  72.4316549  28.2281160  10.9959877  71.9022226
  28.3766484  11.9072449  73.1016111   1.5049894  99.9756908  24.0129089
   0.9248947 100.7246590  23.8758969   2.2336946 100.1237297  23.4101605
  12.6357031  99.2362022  56.7655087  12.5425339  98.4307957  56.2567043
  12.0815146  99.8714161  56.3120699   8.2459670  14.5629704  38.1713843
   8.1781590  14.6222460  39.1243362   8.5759956  15.4198253  37.9009891
  19.8113799  88.7668228  60.0140429  18.8767409  88.6854362  59.8241472
  20.1804137  89.1741943  59.2303944  85.7294846  93.3576393  64.3457365
  84.9048996  93.7053013  64.6854782  85.8293533  92.5105572  64.7801495
 113.3292294  95.2098751  49.4073963 113.1863785  95.8850956  48.7441492
 112.5413227  95.2369022  49.9502754  89.2069244 104.3967247  70.8513784
  88.8803291 103.7100410  71.4327908  89.8885536 103.9681339  70.3337717
  96.8266678  84.1183662  41.3828802  96.3960934  84.8766422  41.7776632
  96.1182690  83.4927654  41.2311363  91.4226723 104.1780281  44.0594339
  91.3566780 105.0894833  44.3442440  90.6364632 104.0341568  43.5327387
 109.8166370  93.0854702  49.1537237 110.4347610  92.7340698  48.5128880
 110.0294399  92.6283836  49.9673700  26.4055586   0.4986491  36.3080883
  26.1270523  -0.3122514  36.7336535  27.2091365   0.7455972  36.7658091
  93.9409637  94.9197674  38.5480976  94.5391083  95.1481819  39.2596340
  94.1996765  94.0342999  38.2926607  13.0268466  97.5414467  66.7944479
  12.0965850  97.6091385  67.0095348  13.2422972  96.6218376  66.9498348
 103.2574177  83.7733173  60.5185699 102.3122883  83.7974167  60.6681776
 103.5198689  84.6935558  60.4959249 104.0395451  96.6351032  55.2869987
 104.1500950  96.3554668  54.3782520 104.9239159  96.6160297  55.6527281
  98.2673168  96.1447048  54.5549870  97.6758862  95.8228683  55.2353287
  98.4085560  97.0652103  54.7762394  82.2052002  93.5930347  83.5042763
  82.3658085  94.2720985  84.1594887  81.8545055  94.0663433  82.7498055
  80.3175259  74.6124792  35.8121920  80.8571053  74.5603848  35.0232816
  80.3324604  75.5390787  36.0518217  89.0664482  98.5576153  50.6804132
  88.6574554  97.8242779  51.1399508  89.9784565  98.5435200  50.9707308
  82.0120144 108.6767864  57.6736784  81.2921333 109.2717361  57.8834867
  82.5118923 109.1346169  56.9978428  81.2615204  85.7766819  77.2912073
  81.0538101  86.4910030  77.8935623  81.2882137  84.9964523  77.8450632
  90.3350544 104.3604374  36.1502409  89.9286366 104.8963165  35.4691410
  90.7849026 104.9899960  36.7137384  69.4562912  10.3952670  79.9247551
  69.4012403  11.0257268  80.6428909  68.9782286  10.8087087  79.2058992
  12.6876664  83.6691284  86.7960453  12.1124220  84.2516899  87.2919846
  12.1659529  83.4057808  86.0379601  79.5702600  59.5359278  36.6819501
  79.3699598  58.6003113  36.6549802  78.9976645  59.9226427  36.0195184
   3.3498949   7.3410428  75.8680964   3.7813389   7.5819188  76.6878939
   3.4957528   8.0909204  75.2913475  20.7256317  94.7790623  42.1894598
  19.8231721  94.6414280  41.9016171  21.2591672  94.5112896  41.4412165
 110.5073833  89.5638084  87.7295589 111.0424519  88.8379574  88.0506039
 110.9867382  89.8976231  86.9712639  82.2229671  92.0348263  66.7599726
  82.2150421  92.9298496  67.0992279  82.3197556  92.1383572  65.8133221
  41.2175655  17.3986316  81.8542862  41.7185163  17.0194685  81.1321259
  41.7703152  17.2665751  82.6245213  88.7055111  68.1152248  51.7527628
  89.5747089  68.0257988  51.3619518  88.4257412  67.2157860  51.9229698
  15.5223691  22.7631283  42.7372885  15.0421071  21.9411397  42.8368711
  15.4303479  23.1984735  43.5847807 111.9940472  81.2842751  33.5641766
 111.1425114  81.1444378  33.9783764 111.8686867  81.0028076  32.6579261
  11.5929139   3.1518456  41.2413883  12.2243142   3.4497461  41.8962288
  11.1054718   3.9402726  41.0026073  87.3045540  72.6913023  58.8350677
  86.8393326  73.5276270  58.8160944  87.8991985  72.7648830  59.5815420
 111.2298203 100.1513958  72.2667217 110.3974533 100.0364399  71.8082762
 111.8942928 100.0552654  71.5844727  58.1969309   4.1605532   5.0722289
  58.7191629   3.3623403   4.9924505  57.3142719   3.8501126   5.2741492
  61.9457293  30.7822800  16.4372063  62.3512650  30.7099128  15.5731821
  61.0273743  30.9812689  16.2548459  23.1112170   3.5057393  54.0373230
  22.7737999   3.3491698  54.9192905  23.9729595   3.0890694  54.0330887
  35.4981518  96.1149406  61.5592384  35.9752941  96.6435051  62.1989107
  34.8823214  95.6028080  62.0833731 102.2570229 107.2484493  44.0980577
 102.8827095 107.6078987  44.7269821 101.7860985 106.5739918  44.5875120
  88.6346912  82.1382618  40.1216125  88.8025856  81.7972755  39.2431116
  88.7442970  81.3814259  40.6972980  93.0595875  80.6762695   4.5615003
  93.7763786  80.0537491   4.6836096  93.2642841  81.3970661   5.1571435
  37.2877145 108.9134884  47.4878216  37.3055792 109.7698116  47.0604658
  36.3694072 108.7829018  47.7242279  13.0241430 100.2720737  35.7028008
  12.8168046 100.1138973  36.6237903  13.4650242 101.1216831  35.6990361
  54.6171093  16.2890708  68.9291954  54.9851561  16.1071646  68.0645084
  53.9436293  15.6194341  69.0485430  66.9200039   1.0867776  45.7311010
  67.6612902   0.7658902  46.2446785  66.9975138   2.0401022  45.7684755
   1.7107703  77.0508814  38.6693478   1.1833502  77.7820873  38.3477950
   2.0563574  76.6384792  37.8776884  41.0749435  25.0578356  62.6361036
  40.4511976  25.2716398  61.9422293  41.2253189  24.1172647  62.5415134
  22.8632903 102.6618099  31.8785596  22.8697062 103.2950306  32.5963521
  22.0965981 102.1145916  32.0487571  65.7390928  19.1309536  18.9406562
  66.2712908  19.4038701  18.1933177  65.3085327  18.3278751  18.6475432
  53.1124449   3.7462154  51.8547297  52.8422976   4.6013945  52.1892786
  52.8576708   3.1292588  52.5407982  32.1785975 101.6378880  45.6700563
  32.3604012 102.5708675  45.7828569  32.8756142 101.3261223  45.0928211
  29.3683290  83.3205700  58.5981226  29.4395566  83.0341339  57.6875639
  29.6718526  84.2283154  58.5880947  76.2479877 103.6125374  31.3249874
  75.6193352 102.9095268  31.1612535  76.1400223 104.2079353  30.5833173
  15.2734399  99.0480328  31.2340093  15.0594378  99.7184467  31.8828440
  15.2545273  99.5107746  30.3963065  42.7874994  18.0192351  41.1037588
  41.8869543  17.8788710  40.8112669  43.2212305  17.1789372  40.9554148
 114.3750858 102.8348064  84.5048904 113.5979939 102.9137325  83.9516068
 114.0411282 102.5136757  85.3424931  46.4991760  10.7223475  42.8611803
  45.9232950  10.3799093  43.5447979  47.3006439  10.2052867  42.9419708
  60.9456968  28.0017519  34.6431494  60.4899645  27.1898746  34.4208932
  61.5573788  27.7512479  35.3354836  82.9707909  12.0878553  59.1541481
  82.4523735  12.8876948  59.0662289  83.5632324  12.2655141  59.8846865
  73.2847166  81.0576344  35.2981472  74.1551781  80.7103920  35.4929614
  73.4444094  81.9561291  35.0092912  54.8809671  95.0486183  77.6002264
  55.1704454  95.4230690  76.7682314  55.0357056  94.1086674  77.5065851
  77.9276371  95.2210712  30.6419778  77.2507048  94.5769882  30.8496881
  78.5379457  94.7520828  30.0729394  10.3096068  91.8593216  26.0267425
  10.0044703  91.4143467  26.8173862   9.5461208  91.8725300  25.4495525
  81.1417294  90.4017925  29.0143466  82.0379353  90.1552391  29.2429328
  81.2346363  90.9414673  28.2292652  87.4475574 100.5286121  82.0979118
  86.6022015 100.1026630  82.2399521  87.2782230 101.4567661  82.2594166
  55.9765387  14.1293097  81.5528202  56.0549068  14.4836950  82.4385452
  55.7069826  13.2199323  81.6816807 114.2386341 105.2386093  41.4052916
 113.6639881 104.5213032  41.1379290 115.0539589 104.8087788  41.6635990
  96.5451050  88.5200596  62.3546600  96.0137749  87.7317429  62.2429419
  97.2389698  88.4358883  61.7006731  33.8582540  20.3141356  39.8835588
  33.3353639  20.8453155  40.4841137  34.7652459  20.5054784  40.1222706
  18.1118548  73.4309769   4.6444601  18.7797356  74.1017056   4.7869211
  17.4752939  73.8465691   4.0628186  18.1515002 103.4546947  64.7385931
  18.3089101 104.2678165  64.2587090  18.9741230 102.9706955  64.6660614
   2.3573118  74.6326923  59.5141649   3.1403285  74.1480827  59.7754574
   2.2881672  75.3398705  60.1555347  25.3082013  81.4276791  87.1598721
  24.5702147  80.8819485  87.4315071  25.0324273  81.8048859  86.3244724
 106.7607307  97.4798393  71.7895031 106.4217758  98.0231094  72.5009871
 107.1864033  96.7450142  72.2311592   6.8755192 107.8909874  76.6127443
   6.3397855 107.3110485  76.0715532   6.6478711 108.7724781  76.3171196
  30.1795411  14.7592533  78.9127350  29.8885131  13.9588666  79.3496752
  30.7069921  15.2128327  79.5702267  35.7130575  11.2630463  61.0123253
  35.7397771  11.1698401  60.0600529  35.6637073  10.3648877  61.3396025
  79.4406891   0.4128435  88.5811996  80.0668907  -0.2755022  88.8054180
  78.8791513   0.4864264  89.3528843  17.7666068  39.2984366  46.2136459
  18.0340540  40.1780891  46.4799356  18.5069132  38.7405181  46.4521933
 112.4364376 106.6316891  48.6243725 113.0046177 105.9082985  48.8891411
 112.9312229 107.4195957  48.8493872  37.6184011   4.3767217  71.1005163
  37.0460725   3.9485714  70.4638386  38.4800792   4.3801552  70.6837082
  43.8001394  26.6928315  35.1063871  42.8678322  26.7045093  34.8898339
  44.2033005  26.1853385  34.4020104  24.5172143  96.3848114  37.2055888
  25.4591513  96.4498425  37.0482516  24.3236017  97.1076965  37.8023958
  47.1176720  29.0272760  26.7677641  48.0333424  28.7720037  26.8800712
  46.6425610  28.1979823  26.7151093  17.0081842  88.5569477  56.9677353
  16.7962348  89.4490337  56.6929770  17.7734327  88.3203602  56.4436674
  26.5779185 108.0299568  57.2250605  27.0197821 107.7383327  56.4275980
  27.2762942 108.0924129  57.8766727 100.1851940  88.0907440  63.9104652
 101.0020161  88.0883694  63.4114408 100.4091644  87.6660156  64.7385168
 106.7175102 103.4684277   8.8256389 106.6258907 103.8656998   9.6916729
 107.3360634 102.7496719   8.9560628   0.8315440  86.6099834  41.8942070
   0.6582117  86.3123989  41.0011053   0.6787615  87.5544834  41.8658495
  35.4278898  41.9022560  69.2625523  35.0464225  42.2504759  68.4566641
  36.3647199  41.8394518  69.0764523  15.4615343 108.9370346  32.0092750
  14.6128333 109.0302753  31.5765572  15.2863538 109.1439915  32.9272699
 113.1355953  98.1014347  84.0884209 113.9366722  98.1740570  83.5695362
 112.4526310  98.4687519  83.5272789  25.8413672  27.3676085  34.8623586
  24.9205709  27.2904372  35.1121736  26.2933803  26.7285633  35.4133010
  43.5639334   4.8863623  27.9692364  43.2010269   4.0497375  28.2600808
  42.8410339   5.3145397  27.5106382  61.6025209  73.9804697  41.7394352
  61.4688826  73.0503988  41.9220400  60.9381342  74.4256878  42.2653627
  17.3042297  66.7946196  38.9667988  16.7458749  67.2345591  38.3257627
  17.3577917  65.8904362  38.6572528   2.5293878  84.8501110  27.7293324
   2.3198755  84.2688751  28.4604311   2.2894353  84.3498993  26.9493079
  37.2593927  18.3046055  59.1240597  37.7829289  18.0112076  59.8697519
  37.3854303  19.2532003  59.1013527   6.2473553 109.3966103  33.2531500
   6.3202876 108.8290405  32.4858332   6.8149120 108.9890385  33.9073586
  33.9096808  13.9423871  45.5867958  33.6528563  13.4587681  46.3718987
  33.8564372  13.2983696  44.8806524   9.2126441  94.8179817  58.5644388
   9.6130961  95.3729248  59.2337036   8.7582862  95.4304314  57.9859114
 111.1834145  90.4346561  16.3835359 111.1918545  89.9798965  17.2257674
 110.2892685  90.3237152  16.0603905  72.6038790  38.9163923  86.6784573
  72.8412580  38.2950139  85.9901428  73.2033062  39.6522093  86.5539837
  21.9606185  35.2938557  88.7021065  21.1573792  34.9395943  88.3206177
  22.6108050  35.2189827  88.0036259  16.5394485  74.1582394  26.3226247
  16.8862629  73.5382986  26.9642043  15.6161261  74.2534399  26.5563893
  41.5541077   8.1677401  42.1949577  41.3514137   8.5274643  43.0585194
  42.3306656   7.6264870  42.3372078 113.9884663  95.2195358  57.4046087
 114.9044418  95.2822113  57.1338701 113.7717533  96.0964870  57.7212048
  21.8439579  -0.3376130  39.8570657  22.3361325   0.3021063  39.3425226
  21.5071225   0.1615933  40.6010866   0.6464855   1.1579056  60.1934814
   0.8258139   1.5209210  59.3261337   1.1929631   0.3735656  60.2425194
  20.7101679 106.2925434  43.4106207  20.2699614 105.4722691  43.6333561
  21.2322879 106.0816479  42.6365757   7.5209534  92.6048756  46.3874674
   8.3263338  92.4528694  45.8930111   7.0738828  91.7585087  46.3831186
  87.2702408  96.7284679  47.0146990  86.9962978  95.8168507  46.9140577
  87.9270649  96.7057514  47.7106142  83.9123535  91.0024166  50.6084490
  83.4523582  90.8625507  51.4361429  84.8327541  90.8406448  50.8156300
  23.9180970   4.9879876  73.8414812  24.0863729   4.1575098  73.3962584
  23.1475806   5.3447926  73.3996391  55.6577969  35.4965687   5.3275979
  55.0394440  35.0528455   4.7470933  55.3429079  36.3996053   5.3676856
 103.9233875 106.3133240  42.0480442 103.2990456 106.5908241  42.7184343
 103.8014603 105.3660393  41.9846296  60.4823017  13.5989153  80.2700996
  61.2583590  14.1226506  80.4692650  60.1314354  13.3553231  81.1267090
  91.1143970  76.5299225  36.3936067  90.4833794  76.5885639  37.1109676
  90.5861950  76.3045359  35.6278157  27.1783662  35.7919359  34.3951583
  28.1278300  35.6973815  34.3189526  27.0223689  35.8933878  35.3340960
 106.1066723  24.7760606   4.9327752 105.9079170  24.7285318   5.8679056
 105.8859539  25.6742764   4.6863505   0.8313116  77.0242643  54.4604921
  -0.0383040  76.6388226  54.5674372   0.6828474  77.8066778  53.9294434
  24.0302849  97.8525162  75.5281973  23.2380033  98.2665443  75.1859999
  24.3699598  98.4778690  76.1683464  42.9702520   9.1770208  47.9068375
  42.2869682   9.6609789  47.4430037  43.2395029   8.4943891  47.2922230
  28.2947683   6.6938919  53.4221601  28.7732625   6.7632210  54.2482805
  27.5781679   6.0879040  53.6105633   6.4024097  77.8529596   8.0106580
   6.2274426  78.4940624   8.6995739   5.9844869  78.2189369   7.2311509
   3.3366713  99.1655636  10.9400225   2.9200983  99.0965557  11.7990553
   2.7158448  98.7537575  10.3390002   7.1529901  93.1647682  69.7935200
   6.7241132  93.4241295  68.9780283   6.4627910  92.7393723  70.3023386
 110.3690434  96.1722088  45.2825737 110.6233311  96.8489456  44.6551895
 109.7670937  96.6145134  45.8811140  35.9020209   1.5367968  32.8588200
  36.0090280   0.8269212  32.2256851  35.2401066   2.1077859  32.4688530
  67.1141481  26.6466236  36.9800401  66.9514084  25.8239865  37.4415731
  67.1552229  27.3058677  37.6728177  46.5525103   5.8375549  38.0039835
  45.9093809   6.3339877  38.5101175  47.3191404   5.7868421  38.5748911
  22.9120231  86.4507389  42.8744221  22.7920294  86.1756992  43.7833691
  22.0562792  86.3141251  42.4678850  32.4900460   2.6043004  48.3094454
  32.9940224   3.0949390  48.9586878  32.0615602   1.9116867  48.8123560
   6.1336046  97.1843338  23.3366299   6.1213225  97.0051193  22.3964381
   5.8966088  96.3504791  23.7425184  37.3874378  86.4268208  29.3370414
  36.4893413  86.3824463  29.0088820  37.8576851  86.9392872  28.6794090
  63.9759827   1.4765078  51.0463810  64.8251295   1.7765033  51.3707066
  63.4095621   2.2453940  51.1112881   3.2112840 107.2576046  59.1404819
   3.0607745 107.5162601  58.2312632   3.4897405 106.3433933  59.0864658
 105.0238037 102.7054214   4.3962669 105.8949471 102.9534245   4.7058573
 104.7499657 103.4356689   3.8413119  20.8696961 104.6284771  25.2172565
  20.1193500 105.0192642  25.6650352  21.1336327 103.9018440  25.7816815
  41.0463381  13.5400593  46.0195398  40.1444483  13.7469113  45.7745028
  41.3131380  14.2648327  46.5850067  35.4161620 106.4800739  46.7914057
  35.9881735 106.8371868  46.1120653  34.8683906 105.8430290  46.3327694
  57.5569296  19.8140526  57.3888588  57.7702951  20.1119184  58.2731581
  58.3752871  19.4453394  57.0563412  32.6858926  86.3175106  71.5319061
  33.5597682  85.9326363  71.5985918  32.8335404  87.2606277  71.6023016
  86.7498016  66.6455364  90.6459522  87.4035454  67.2542572  90.3019905
  87.2605228  65.9844780  91.1132812  16.5694726 109.1382217  47.7969885
  15.7068384 109.1032791  47.3836184  16.4684904 108.6348820  48.6048794
  20.3212118  80.1086807  28.3208990  20.2736568  79.7402811  27.4387097
  20.9694409  80.8096981  28.2530880  35.3787541  89.4998646  54.5188522
  36.0214400  89.8755836  55.1205397  35.8809686  89.2926884  53.7307596
  16.7457998 102.7525330  74.4623089  16.5800190 102.6706600  73.5231352
  17.1655369 101.9270134  74.7042990  93.5567474 105.2499676  14.1112161
  93.6267948 104.9457264  15.0160706  94.4634533 105.3545570  13.8228226
  50.5022573   3.9669541  24.5921612  50.5759811   3.9044598  23.6398530
  50.8761740   4.8218226  24.8057508  17.2346687 102.6462269  29.6690059
  16.9091070 102.9936886  30.4993701  16.5396416 102.0627022  29.3645883
   7.0276493 109.1336250  63.8173294   7.7608818 109.6027279  64.2154980
   7.3382348 108.2322884  63.7315130  15.3498173 102.0651436  39.2286277
  14.6260965 102.1134377  39.8532295  16.0657477 101.6648960  39.7220612
  64.8128700  27.7130055  35.4990339  65.4968977  27.5850463  36.1562777
  64.0074348  27.4331355  35.9339786  97.3526859  73.5851479  64.1708183
  96.7700291  73.8685942  64.8753786  96.8181133  72.9934025  63.6413956
  24.8720431  91.2302399  20.0538135  24.3152404  91.9487858  20.3536415
  25.4242587  91.6215420  19.3769264  56.8783903  14.1523111  44.0793705
  56.6739273  14.9508953  43.5928631  57.2270823  14.4634235  44.9147463
  15.6219387  85.0714779  25.9861541  15.0971615  84.2888069  25.8179998
  15.3874707  85.6733704  25.2797723  17.6562357  85.6444454  27.8393078
  17.3692441  85.2629757  27.0096397  16.8670928  86.0443974  28.2047200
  18.3401024 104.2167377  20.3483629  19.1933322 104.4462681  19.9801946
  18.5008109 104.1272545  21.2877226  81.0949898  11.9941807   6.3622802
  81.5699577  12.2630918   7.1486217  81.1062908  12.7681720   5.7992160
 110.7166290  89.9592018  59.5138359 110.6925488  89.0418625  59.2415190
 110.1825523  89.9874783  60.3076839  76.1617231  28.8805127  51.9018984
  77.0973682  28.8769293  51.6999435  75.8869362  29.7844124  51.7479897
  76.2107182  10.4481184  55.1247215  77.1102905  10.2371752  54.8747206
  75.7645559  10.6160223  54.2946720   9.2976028  95.2597427  62.8075790
   8.9661050  95.9053516  63.4317064   8.5217589  94.9705791  62.3272896
  56.2850666  15.8692181  66.6806269  56.6380501  16.7393255  66.8664932
  56.4767456  15.7259488  65.7538223  89.2449284 107.0581627  37.8490281
  89.5360279 107.8485394  38.3037806  88.3467388 107.2528362  37.5814652
  64.4325924 105.3347492  44.7919321  64.8863554 105.9284782  44.1937542
  63.5359430 105.6680679  44.8258686  21.3089204  90.9225273  73.4792805
  21.5972233  90.8170033  72.5726509  21.8394327  90.2976513  73.9735746
  46.4427280  15.4260814  24.1672850  45.8514023  15.8230317  23.5277581
  46.6242838  16.1272407  24.7931027  20.9487200  97.0423603  52.8108931
  20.8658552  96.8400955  51.8789864  20.0603795  96.9515228  53.1556129
  75.8957052  17.0257354  17.3984635  74.9911547  16.7456853  17.5384223
  76.0066509  17.0109451  16.4478302  18.6563575  90.3911018  74.6101570
  18.7219322  89.5218658  75.0055838  18.8266408  90.2444267  73.6797190
   7.6547259  66.3800716  44.2422628   7.5421190  67.1498394  43.6845827
   6.7748213  66.1886978  44.5668793  18.0264413  74.9330139  11.8225729
  17.1211219  75.2424717  11.8519676  18.5267210  75.6128597  12.2739732
 106.9899273  98.2400894   7.6260978 106.7156124  98.1480694   6.7136765
 107.5851440  98.9897156   7.6228136  71.8173265   6.4090431  33.5578799
  71.4131689   6.3007176  32.6969743  71.5660095   5.6219757  34.0411973
   2.8324836  66.5100861  20.2240562   2.6571429  67.4310923  20.4170179
   3.3716798  66.2104654  20.9559917 114.8912525  96.5007019  79.2921305
 114.6755886  96.9867706  78.4962273 114.4915104  97.0082092  79.9984407
  32.9539704  93.0400753  25.2753687  32.1978593  93.1029892  25.8589554
  33.4298396  92.2683239  25.5822706  84.4809055  11.6449785  43.1888390
  84.1257954  12.1872663  43.8931465  84.3537617  10.7458401  43.4915209
 114.2250156 100.2935600  42.7621365 113.8331318 100.4700851  41.9068527
 115.1495552 100.1328468  42.5734043  44.8242617  39.9915552  45.9633446
  44.8589134  39.3253398  46.6497755  45.7265186  40.3012943  45.8844280
  70.8220339   9.5206332  74.9800205  69.9791384   9.8044258  74.6261597
  70.5970526   8.8546515  75.6297016   4.1338712 103.3300018  42.1305132
   3.6337930 104.1172504  41.9151211   4.9760377 103.4539795  41.6927767
   2.7582297  85.3949451  23.4873819   3.0952334  85.2784824  22.5990701
   2.1336322  84.6787834  23.6023974  43.1224871   2.2195455  43.4892607
  42.6959467   2.1509416  44.3434191  43.8633013   1.6157162  43.5422945
  80.3494167  52.3012733   3.7133867  80.4436779  51.3499355   3.6654213
  79.7440434  52.4456120   4.4406611  19.8034728  85.7211590  53.7168884
  18.9254403  85.4418468  53.9762592  20.2646947  84.9065590  53.5170650
  14.0539718 107.6078224  67.9592180  13.2842457 107.2398949  68.3932495
  14.7645926 107.0061970  68.1812477   5.0232959  97.8585052  17.7738285
   5.6023747  98.0763340  17.0434535   4.4111940  97.2180271  17.4113989
  22.6805520  14.7366858  27.3316479  21.8898892  14.9792016  27.8135920
  23.3936930  14.8798287  27.9538774  38.3974981  21.8274856   8.7866229
  38.9596057  21.5335131   9.5034540  37.5301480  21.4883995   9.0078747
  49.4542217  23.5163260  45.2496958  49.6530914  24.1805267  45.9096336
  48.8501787  23.9505148  44.6473312   2.6411870  94.3747711  59.8039341
   2.8239819  95.2920341  60.0075388   1.6867091  94.3270493  59.7498417
  83.6679077  11.5810347  18.6988127  84.1227913  12.3412907  18.3364272
  82.8425312  11.5429735  18.2155538   4.7860092 105.0485134  39.2676187
   5.4639608 105.7082748  39.4136286   5.1242256 104.5121765  38.5505509
  95.4639339   7.9684693  29.1383696  94.7353268   8.3281052  29.6443677
  95.5075169   7.0491624  29.4014406  42.0503807  11.3229251  30.8837366
  41.3148165  11.5822852  30.3288412  41.7645597  11.5313160  31.7731810
  53.4411526  12.6840270  56.9830418  54.3019772  12.3729479  56.7029667
  53.3250475  12.3124313  57.8574944  40.6079674 103.4382248  44.1432619
  39.8775434 102.8826618  43.8711309  40.8578873 103.9111328  43.3494520
  26.9523263  97.2240162  40.5650854  26.0065675  97.2274208  40.7125854
  27.2564912  96.4166641  40.9797049 111.0095310  79.7890377  31.4837861
 110.4037571  79.1123199  31.1815739 110.4956532  80.5963707  31.4646459
  30.4792762  89.5812702  58.9937401  31.0004759  89.9005890  58.2571125
  30.4077291  88.6383152  58.8456011  36.0387802  91.3973618  36.7332578
  35.6586790  91.1310196  35.8961082  36.2229586  92.3305988  36.6265798
  64.7619820  83.6236858  81.5313148  65.2747154  83.5312557  82.3343086
  65.3689337  83.3848286  80.8307552  47.5330114  39.1919279  65.0903225
  47.3166609  38.2644486  64.9943781  47.3877001  39.3770337  66.0181475
  26.8637609  86.4492035  58.5570478  26.6838551  85.7735729  57.9032993
  26.0331750  86.9147491  58.6551809  44.9547625  25.1578212  13.4691143
  45.4100609  24.5858884  14.0870368  44.1362858  24.7000170  13.2774365
  56.9170618   5.5246001  53.4770060  56.3605976   5.7528365  54.2216444
  56.6368723   4.6433270  53.2298565  35.6557417 107.5284958  70.4795933
  35.5749869 108.4813881  70.5210114  35.2736402 107.2198105  71.3011456
   9.9533671  78.6581707  61.9219780  10.0028336  77.7411699  62.1919584
   9.0237522  78.8071728  61.7492151  14.9638820 105.9584808  32.2180986
  15.1267362 106.8990231  32.1467972  14.0130091 105.8740425  32.1478033
  74.2961359   7.7149880  13.3957338  73.6714220   7.5057822  14.0901375
  74.6276522   6.8645138  13.1076002 108.7006950 105.2338028  47.5092697
 108.1816483 105.2743149  48.3124971 109.1176033 106.0933971  47.4498940
 105.2572918  92.5454903  54.3895483 105.7808876  92.1641827  55.0943041
 105.7859230  92.4170113  53.6019754  42.0447254  71.4713669  14.3587244
  42.0967531  72.4257326  14.4107270  42.2913265  71.2668467  13.4567308
  59.2056465  50.4149771  28.2315040  60.1194096  50.1299191  28.2280183
  58.9438009  50.3686428  29.1510272  20.4090929  71.4729595  29.4269943
  20.1023531  70.6648970  29.0156841  20.6267071  71.2177372  30.3235102
  58.0293751  15.1456273  58.7565708  57.1825790  14.8056197  59.0456486
  58.4906483  15.3604114  59.5673275   7.4346584 104.3574333  35.5145407
   6.8051702 104.2684650  36.2301254   7.1760285 103.6860752  34.8831773
  91.0369778 107.2347546  21.8133163  91.7371845 106.7376137  21.3904786
  91.0899639 106.9857311  22.7360368  27.4227262   5.4440230  70.2670717
  28.2614374   5.7754272  70.5879593  27.6558542   4.7003961  69.7112799
  38.9316392  15.5560708  13.2558012  38.4897590  14.9598491  13.8603616
  38.7091565  16.4302325  13.5760736  97.6345348 100.5683804  29.8453712
  97.9240704 101.4764118  29.9340987  98.2453251 100.0682449  30.3867006
  55.0056410  15.7912934  54.8990631  54.8003101  16.5224075  54.3163633
  54.1615915  15.5391061  55.2735138  51.8782425   3.7010166  45.4078293
  51.1732101   3.8441247  46.0392427  52.4892282   3.1184608  45.8589983
  39.5820928   8.0601722  12.1803927  39.1307259   8.3216888  11.3778305
  39.1012168   7.2909629  12.4858546  60.0896072 105.6242561  31.2301922
  61.0449266 105.6400871  31.1723757  59.8286486 106.5402126  31.1345720
  61.8562460  12.5741577  33.5992670  61.6960382  13.4624672  33.2807183
  62.5253439  12.6792943  34.2756462   7.6692915 102.9246521  83.8636208
   8.5604298 103.2737827  83.8490391   7.5351751 102.5735569  82.9832935
  51.0209227   4.2420304  55.2400064  51.5697432   5.0210565  55.1497602
  50.8016062   4.2101258  56.1711979  58.0142164  35.3556204  35.5743051
  57.2911596  35.1722312  36.1741281  58.6407471  34.6492052  35.7313633
 104.2953777 107.4161243  61.6464043 104.6895981 108.2401943  61.9322777
 103.8839722 107.0613289  62.4345064 105.0593090  42.4301481  89.2561817
 104.6625519  42.9324007  88.5444546 104.5274067  42.6409531  90.0235653
  38.2695532   6.6433567  54.9529076  37.8481674   7.4581271  54.6793842
  37.6593351   6.2573290  55.5812788 103.9193058  86.3323212  36.2386250
 104.6452236  86.7712975  35.7952619 103.1338501  86.7358685  35.8692479
  95.3712940  99.2900085  28.8752079  96.0460091  99.9287033  29.1055465
  95.6546307  98.9357185  28.0323339  47.4574995  27.1137500  12.6341259
  46.9622898  27.0208144  11.8202698  46.7984581  27.0439839  13.3247983
  62.9420185  10.7802165  81.6083431  62.3385715  10.5020225  82.2973156
  63.3090353   9.9644560  81.2676525  46.7281199  42.8755188  17.4013162
  47.0426702  42.9145718  18.3045137  47.5088358  43.0282974  16.8689847
  88.1575108  57.4341822  55.7256937  87.4452496  57.2631502  56.3418627
  88.9175320  57.6090288  56.2806940 104.7931957  44.2248917  44.8729372
 105.1679707  43.4955883  44.3790817 103.8804626  44.2636967  44.5872068
  61.1560345   8.5812849  32.6264095  61.6385508   7.8097928  32.3294115
  60.2378559   8.3114022  32.6076722  70.3869438  22.1134424  62.0166302
  69.5047379  21.7614746  62.1352005  70.9582949  21.4780164  62.4479389
  27.3000693  19.6218872  56.6845655  27.8769135  19.5248497  55.9268951
  27.7784443  19.2100000  57.4041080   9.1333234 105.3436565  85.0508308
   9.5207387 104.7626877  84.3961334   9.7894162 105.3922749  85.7461071
  57.5964546  13.5751748  23.1337190  58.0375051  12.7262473  23.1015968
  58.2906580  14.2122757  22.9651475  37.2212386   5.0984812  52.3821449
  36.5891433   5.1999110  53.0937624  37.6781106   5.9388351  52.3460150
 107.0132542 106.3692570  32.5687027 106.9468021 106.7796993  31.7065215
 107.1622467 107.0986748  33.1703591  52.8949594  29.0757036  31.8530750
  52.1981525  28.4385085  32.0101595  52.4496126  29.9229908  31.8550253
  70.0802183   0.4250735  67.1360350  69.3512487  -0.0003702  66.6845608
  70.1510191  -0.0412506  67.9689598  11.0812211  95.3228188  60.5568695
  11.3100493  96.2518120  60.5280972  10.6582308  95.2065754  61.4076328
  95.2656555  39.2448163  37.7244353  96.0197639  39.8108888  37.5597668
  95.0812340  38.8390708  36.8773270  62.5043964   0.8649065  64.6443462
  63.0620241   1.5603504  64.2955685  62.9123497   0.6254708  65.4764938
  54.0412807  23.1893396  55.3583050  53.8143063  24.0301895  55.7554007
  54.5149422  23.4217191  54.5596313  36.9418931  33.3539319  78.6268187
  36.8844867  32.8734255  77.8009558  37.8096008  33.7576723  78.6092043
  49.5394087  25.3104234  47.6511145  48.7436914  24.9733639  48.0627632
  49.5387316  26.2449789  47.8580809   4.9796388  88.5906887  52.8244019
   4.0697572  88.3681870  52.6273155   5.0624532  88.4473228  53.7671757
  78.8574934  25.1055741  90.7746124  77.9661846  24.7897315  90.6261635
  79.1638851  25.3739524  89.9083996 100.1585674 104.9708366  14.6182859
 100.2635574 105.5591583  13.8705719  99.8691940 105.5395508  15.3317618
   7.8304750  98.1267357  72.5302029   8.6043203  98.6886978  72.5701237
   7.0924687  98.7361145  72.5149822 109.9479961  96.7986774  24.9869084
 109.7049713  97.0663834  24.1006231 110.2612591  95.8996010  24.8881125
  76.6476250   0.6785998  69.6545315  76.5874290  -0.2445306  69.9003696
  76.8961620   0.6645998  68.7302637   7.6775461  96.9065285  39.9598598
   7.0512605  96.2109756  40.1603651   8.5316807  96.5261269  40.1647568
  33.0992174  12.4933302  47.9242611  32.2519970  12.8327954  48.2127237
  32.9824972  11.5434790  47.9044724   3.8037005  73.4662485  15.4658782
   4.5050064  73.3897352  14.8189259   3.4977001  74.3693066  15.3817379
   9.8849565 103.2840252  34.6455574   9.2783338 103.9269352  35.0128508
   9.3229842 102.5725842  34.3385243 108.2632160  78.4916401  41.5590811
 107.6124763  78.5948992  42.2534180 109.1028309  78.6421061  41.9934177
  23.8601542  21.9192719  58.7734604  24.0659952  22.3173833  59.6192503
  22.9053688  21.9570804  58.7169695  61.0292816  31.6760206  47.8071737
  60.5287457  31.3724804  47.0498371  60.9798193  30.9529185  48.4323978
  61.0211229  11.2028444  48.0915689  60.7263517  10.5145264  47.4952793
  61.9374561  10.9901607  48.2685709  72.9758930  40.2971649  34.8576713
  73.3051634  39.7538853  35.5736756  72.0528460  40.0562286  34.7791457
  68.0331850  38.9665365  89.5240402  67.9002237  39.9133325  89.5701694
  68.0363083  38.6803269  90.4374409  51.8392849  34.6813440  86.4352322
  51.5242672  35.5212188  86.1011600  52.2045946  34.8876214  87.2955990
  13.9187586   3.4625298  52.1736288  14.7556710   3.0218011  52.0267725
  13.6782718   3.8119692  51.3155556  99.5499420  80.6272221  12.1989417
  99.9514961  79.9015760  11.7210090  99.7424603  81.3997173  11.6675031
   3.3580732  99.0762615  49.4241667   3.6078513  98.5646725  48.6546707
   3.1091881  99.9311924  49.0729237 113.8939857 102.0943069  18.3218586
 113.4045506 102.5714207  17.6517463 114.8066044 102.1529102  18.0391502
  43.7887478  24.8372841  52.2203064  44.3592405  24.4523072  51.5550518
  43.0743790  25.2346921  51.7223358   4.5364034  83.5875797  40.3752804
   4.6060753  83.1796932  39.5121431   3.6785027  83.3147717  40.7005644
  86.9510174  31.1374378  22.6632380  86.7526817  30.2784109  22.2904563
  86.2011719  31.3337207  23.2248783  39.7699475   1.3740270  56.3511848
  39.0995765   1.6745096  56.9648170  39.9365091   2.1306479  55.7890368
  11.2104356  87.2154999  48.0663824  12.1506476  87.0777225  47.9512691
  11.0293925  86.9033051  48.9529467  48.1390762  13.5437453  33.0639505
  48.6718225  14.2204332  33.4816909  47.4193335  14.0241659  32.6548147
  86.4231586 104.8717213  36.8753815  85.9621906 105.1309204  36.0775375
  87.2568798 104.5175934  36.5659809  60.4542255   4.6607208  65.3141022
  60.6221390   4.7100380  64.3730354  59.8849154   5.4085678  65.4953289
   2.5293893  91.2320232  51.6376162   2.8589484  92.0404911  52.0300531
   2.3069622  90.6764793  52.3846960  14.9084842 104.1786671  49.0034580
  14.4817340 103.6506939  48.3286524  15.8314979 103.9299965  48.9540434
  14.0411913 101.5450764  32.6052117  13.4098363 101.6404629  33.3183169
  13.5054326 101.5232563  31.8122935   4.7249073  92.6269531  60.2474546
   4.8356897  92.4097347  61.1730719   4.1137740  93.3636665  60.2458048
   3.9354572 105.9753132  54.4487667   4.3632621 105.4955769  53.7394905
   4.4984543 106.7349529  54.5977783  66.2444305   4.3987641  28.9081907
  66.7741728   4.7564951  28.1957078  65.8951473   5.1687700  29.3568802
  69.3132067  25.6722713  43.1033802  68.4246063  26.0124660  43.2077312
  69.2259645  24.7287941  43.2393074  53.3427143  13.0139375  22.5713611
  53.3330488  12.5122988  21.7561936  52.4315882  13.0117559  22.8647494
  18.5651278 106.0540962  25.6557250  18.2005632 106.3039589  24.8066711
  18.9055645 106.8711758  26.0200214  21.3157558  98.0483818  74.6145773
  21.2084579  98.1876564  73.6736631  21.0301709  97.1459866  74.7572327
  65.8498526   6.1694568  22.6119208  65.8692884   5.2788997  22.9622960
  65.2196455   6.1301035  21.8925309  54.4372463  27.0446420  28.4204865
  54.2344809  27.0132685  29.3554401  54.9101734  27.8688693  28.3054996
  49.2712498   5.8131301  39.1393161  49.7737408   5.3426349  38.4742045
  49.9342680   6.2048209  39.7078395  40.2078581   2.6779693  24.4370914
  41.1127615   2.9636222  24.5627213  40.1097107   1.9281924  25.0239754
 107.6360416 100.9030437  64.9066687 107.9309750 100.3223133  65.6080914
 107.1032047 100.3440857  64.3410873  55.8358192  98.8556290  -0.1577413
  55.0353765  98.3339024  -0.1000311  56.1008024  98.9891815   0.7523029
  32.0021820  13.6735570  88.8806725  32.3018265  13.0746019  89.5645523
  31.4274073  13.1410241  88.3308792  31.1836672  15.6842947  33.0091262
  31.4176941  14.7583020  33.0723929  30.4758167  15.7963371  33.6436534
  45.3328896  24.0656495  30.6840301  45.1863861  23.2009864  31.0676026
  45.7216978  23.8852429  29.8281574  53.4861660  92.4305534  42.8939295
  54.0051460  91.6316128  42.9866123  53.6059523  92.6893139  41.9801855
  18.0467093 105.3357697  94.2707729  17.6008260 105.8547783  94.9401379
  18.8371181 105.8357716  94.0670967  98.3853436  79.6049166  21.8541622
  99.1526413  79.9828100  21.4244127  98.7164879  79.2764187  22.6900244
  72.3705101  13.0859387  72.8537416  73.1583977  12.5881135  73.0719995
  72.0686769  13.4362149  73.6918592  35.0572062  76.7055988  77.7698040
  34.5757031  76.3268900  77.0343018  35.3347015  77.5664806  77.4565840
 111.0392094  99.6646595  60.7836008 110.0987530  99.8096561  60.6799650
 111.4291096 100.0524998  60.0001478  16.4343250 106.4290810  21.0216689
  15.9508276 105.9388351  20.3567505  15.9930217 106.2165546  21.8440533
  91.7634773  95.4590416   5.1002324  92.4464512  95.7650948   5.6969821
  92.2414780  95.1109886   4.3474954   9.9621731  97.6163292  37.0669675
   9.7033346  96.6953182  37.0356631   9.1715789  98.0779362  37.3464417
  43.0719805   0.2863898  63.0872965  42.4641323   0.2019297  63.8218832
  43.9162922   0.0076433  63.4417963  60.9088230   8.2430232  18.2850337
  61.6313696   8.6104572  17.7759659  60.5259371   7.5784940  17.7122939
 103.3045959  90.4438782  28.2569766 103.5454559  91.3143253  27.9398870
 102.3594093  90.4939938  28.3996034  14.7604477  80.8239365  28.9622188
  13.8999069  80.4828548  28.7185597  14.7829390  81.7054176  28.5897875
  56.0063839  18.7084007  86.4719868  56.8258429  19.0059078  86.0767555
  55.4132462  19.4544947  86.3838768  35.1764226  29.8763180  42.4587393
  35.1499772  30.6307769  41.8702459  36.1093140  29.6985149  42.5784445
  50.9059477   9.8155892  60.2056837  50.7880116   9.2781651  59.4224215
  50.5469227   9.2847306  60.9166813  37.9634500 108.8309002  28.3523726
  37.3783016 109.1585445  27.6693773  37.4618888 108.1410122  28.7867975
  27.4914718  26.5414882  62.6064920  28.0071259  27.2313619  63.0241156
  27.9954457  26.3035679  61.8282700  48.0855560  19.5657432  53.3543301
  48.0254126  18.9617991  52.6141500  48.8943672  19.3166757  53.8015652
  24.2914605   4.8865640  23.8634753  24.8277926   5.1232779  23.1068063
  24.4659710   3.9551830  23.9987850  68.6579990   2.2497252  17.7259660
  68.9887571   2.6456350  18.5322452  69.1837358   2.6462191  17.0312560
  29.9688554 107.3479176  52.2834778  29.9551058 106.6381359  52.9255533
  29.7055626 106.9329643  51.4620686  35.4683638 106.3225269  26.8221784
  35.6850886 106.7065716  25.9726095  36.3150406 106.0871983  27.2016406
  37.3105979  25.2599788  76.2698364  36.9277644  26.1244845  76.4191771
  37.0589638  24.7503114  77.0400000  97.8677750  18.0003512  67.4497175
  98.1844234  18.7466657  66.9408131  98.6599827  17.6053643  67.8138924
  61.7631292  22.8363085  53.8054371  61.3014698  23.6747861  53.8130569
  61.0764313  22.1835518  53.9417601  46.9322157  20.8452177  23.7452650
  47.7160454  20.7277608  24.2819643  46.4109945  21.4920163  24.2208767
  29.1917920   5.0567120  36.3874435  29.2126536   4.1232792  36.5983939
  30.0207925   5.2191228  35.9373140  77.4197340  74.4413471  46.5355015
  77.8869677  74.7636986  45.7647753  76.5728521  74.8864746  46.5057325
  56.1843681  23.9104056  44.9776602  55.8290052  23.1470847  44.5223713
  55.4804802  24.5582271  44.9445009  55.1555586   2.9810506  12.5106132
  55.5980301   2.1549261  12.3157537  54.4546843   2.7402776  13.1164467
  57.0534706  29.7112203  62.6610851  57.2177124  30.2469349  63.4371424
  56.4829111  29.0082192  62.9717064  66.7313290  15.5688286  46.5810680
  66.1570644  16.1704648  46.1072731  66.2951660  14.7193491  46.5149164
  30.5015993  98.9114571  18.8826752  31.0239720  99.7118950  18.8311613
  29.6952248  99.1209507  18.4113979  68.7673903  29.5478702  60.2506304
  68.8846827  30.4962373  60.3060484  69.5254707  29.1855741  60.7092047
  96.6181374  50.6955576   9.2318475  95.8268070  51.0739660   9.6150362
  96.6161251  51.0033226   8.3254778  65.2167940  33.0304193  30.5095053
  64.7893524  32.8759384  29.6670914  65.4132938  33.9672303  30.5101562
  48.6947393  42.6516867  58.3327389  48.3828831  43.2217836  57.6299095
  49.6077251  42.4720907  58.1081486  93.9053154  44.4747829  14.2259991
  94.0293312  44.9508858  15.0470805  93.1240749  43.9418173  14.3738186
  65.5004740  32.7471089  39.9747610  65.3728056  31.9765401  39.4214487
  66.3400936  32.5942540  40.4082394  47.7842617  16.0479355  53.8814354
  47.3521280  15.2072251  53.7307739  48.4313965  15.8658898  54.5628357
   6.2865031 109.0835762  29.5798755   7.0165467 108.6622620  29.1262627
   6.5891445 109.9769783  29.7425652   7.4983448  78.6575127  30.4773068
   6.6956830  79.1595554  30.3361678   7.5591391  78.0834103  29.7138000
  34.1810155  17.9353118  70.8690548  33.2912159  17.9175127  71.2214327
  34.7426033  17.7812767  71.6287422  26.9936109 104.1117954  47.7285004
  26.7238688 104.9146843  48.1744242  27.0116472 104.3474770  46.8009424
  74.0714264  28.1024742  53.4501028  74.8837376  28.0357265  52.9481792
  74.2925501  27.7490401  54.3117380  33.8031316  11.9964039  43.6651754
  33.6795878  11.0717762  43.8797235  34.5603728  12.0073402  43.0797720
  62.4525595  12.7126205  56.1483335  62.5438738  11.8104815  55.8416748
  61.7441940  13.0757487  55.6167412  62.8728247   5.6607580  11.3334370
  62.4680376   6.3106090  11.9079566  63.2365322   5.0068074  11.9303417
  53.1006765  34.9590015  54.2739201  53.2972479  34.0388465  54.0981150
  52.2890139  34.9379086  54.7808599  66.4448547  13.2254422  58.6204624
  67.3466253  13.4461260  58.8535881  65.9711266  13.2439113  59.4520140
  12.3924625 104.5558834  44.8357725  12.0172858 104.1512871  44.0536165
  12.7795804 105.3726482  44.5207024  65.2533770  41.9565296   8.3474195
  65.5278158  42.2265768   9.2237693  64.5611858  41.3134193   8.5007536
  93.9922810  21.3524175  56.0564041  94.6982002  21.0941839  56.6490459
  94.3520164  22.0888638  55.5619621  21.0927272  83.5117531  53.4937143
  21.7808270  83.0902576  52.9788351  20.9864926  82.9470634  54.2592716
  71.1608028  50.2280521  42.1664381  70.2618456  49.9174881  42.2744226
  71.2977171  50.8255720  42.9015923  46.9219255  31.8471289  43.1950521
  46.8027449  30.9262228  43.4273386  46.8238926  32.3175788  44.0228796
  69.3528414  27.0746875  55.6944370  69.1889381  27.4039292  56.5781641
  70.1363039  27.5428438  55.4059029  34.5364237  13.7838936  23.2419848
  35.2804184  13.7247133  22.6426506  34.9056482  14.1470158  24.0469980
 106.8597412 102.8879642  47.4845457 106.6549873 102.7119827  48.4028769
 107.4853992 103.6118221  47.5131083  71.1163425  17.1929395  67.6716566
  70.3600502  17.7649784  67.5411606  71.5249634  17.1353698  66.8079758
  25.5130386  21.8168736  48.4929705  24.6241713  21.4653540  48.4421349
  25.3981590  22.7144146  48.8051462   5.9158045   8.6912960  89.7594166
   6.3265204   7.8922927  90.0897789   6.4486969   8.9398664  89.0041256
  69.5096922   8.2308847  48.9325476  69.3263960   7.3793799  49.3295050
  68.7344551   8.7576240  49.1269398  54.4674063  45.0384378  38.6360574
  53.5145950  45.0836706  38.7156177  54.7026396  45.8158827  38.1296229
  23.5114884 107.9327297  55.4679632  24.1386247 108.0885506  54.7618103
  23.8106251 107.1218681  55.8793592  82.7223969  25.3652000  24.0120220
  83.3037949  25.5720115  23.2802796  83.2916260  24.9508309  24.6604872
   3.9967659  67.2800398  80.6158829   4.6224654  66.6241074  80.3085041
   3.8107952  67.0282602  81.5204620  29.2912555   6.4189094  56.1958694
  28.4362721   6.4614654  56.6241550  29.8885059   6.8452311  56.8105030
  49.6025372  13.9047968  55.2333927  48.9959764  13.2808149  55.6320906
  50.1308632  13.3763862  54.6351528  77.9936218  14.6219718  63.3986092
  77.3667622  13.9355099  63.1704664  78.3977795  14.3169141  64.2109060
  96.4193821   9.4622350  54.6006775  97.2883606   9.7427678  54.3135834
  96.2103748  10.0419807  55.3330946  65.6735563   2.2705559  87.4063873
  66.2957001   2.1720845  88.1271362  66.1363411   1.9274919  86.6419506
  59.9678659  39.1718459  39.0408444  60.2653694  40.0777435  38.9567471
  60.7638597  38.6748886  39.2296720 102.9479599 102.9649925  37.2611499
 102.8216743 103.5898590  36.5471315 102.1027851 102.5236225  37.3454642
  78.2706594   5.0448018  45.9278250  78.8808489   4.5208329  46.4468241
  78.6294508   5.9316450  45.9595919  25.1513195 102.8413391  66.2048054
  25.7109761 102.0648956  66.2167835  24.6414113 102.7566528  65.3991699
  85.6052399  21.4103866  39.3823242  84.9277496  21.8561292  38.8738441
  86.4294243  21.7246962  39.0106082  76.2621260   4.6421909  61.6136551
  75.5352736   5.1984859  61.8937492  76.6257381   5.0898200  60.8496857
  44.8995209  47.0589590  22.0007443  44.2277527  47.6271343  22.3777437
  45.5439234  46.9530010  22.7005649  40.7266092   3.9719582  36.7251182
  40.4767275   3.4673873  37.4991989  41.3573933   4.6139288  37.0510268
   9.8818237  92.1601009  71.9813347  10.0607347  93.0952072  72.0803356
   8.9389813  92.1120453  71.8233109  48.1640053   7.8528595  91.3030148
  47.5612450   7.3169065  90.7875824  47.5961733   8.4450305  91.7961025
  83.4636211  22.5035334   1.9644898  83.3380508  21.6023302   1.6673379
  84.0415382  22.8936362   1.3087004  76.5711927  21.2521672  39.3181753
  76.9458580  20.4365897  38.9854717  75.6984425  21.0069871  39.6254635
  77.7452040  38.1515312  37.8098392  78.5549641  38.6234355  38.0043268
  77.0595074  38.6676192  38.2337570  28.9819264  18.6251545  19.0404987
  28.6980224  17.9248929  19.6280909  29.1608095  18.1834507  18.2103598
  63.5203028  50.9719324  91.6358376  62.5809860  51.1549997  91.6158104
  63.9134645  51.6812754  91.1274242  72.2721863  39.4383168  30.6989336
  72.8569221  39.4381261  31.4567733  72.2848034  38.5336471  30.3864527
  30.7245231  15.7964861  45.8412600  29.9627900  15.2186012  45.8864403
  31.4736772  15.2163363  45.9770060 103.8454914  94.8301506  53.2066488
 104.0897655  94.0377140  53.6847734 103.3640480  94.5106125  52.4435329
   6.3075948  80.8306408  52.4836493   6.5341812  81.5048885  53.1241798
   6.7711508  80.0490665  52.7844620  74.6244764  41.9134808  26.9795036
  75.4954195  42.1736145  26.6794562  74.0920210  42.7029848  26.8825054
  51.4459229  42.1308804  38.1064844  51.3614988  42.0521450  37.1562719
  50.6562281  41.7149878  38.4523845  34.0981936  93.7258053  37.2969651
  34.7586131  93.5372066  37.9636788  33.3689213  94.1094398  37.7840090
  78.7611246  32.4849844  25.3004694  79.0404034  31.6827083  24.8593450
  79.3315506  32.5481009  26.0665393  33.9261127  31.4966249  70.4277372
  34.2977285  31.8671441  69.6272087  33.9096403  30.5527210  70.2695990
  44.5231533  16.0520041  40.3736210  45.4032946  15.7517517  40.1468325
  44.2645550  15.5000544  41.1116648 105.0813389  37.4923992  41.0784292
 105.6407928  38.0829453  41.5829086 104.6293068  38.0632043  40.4570723
 109.1706753 101.1828804  38.3046293 109.1893005 101.3516331  37.3626065
 108.6480141 101.8987942  38.6659169  37.6996636 103.7753296  38.7081122
  37.5436258 104.4900322  39.3254375  37.3442841 104.0937138  37.8783107
  55.1462460  12.0279038  43.3527470  55.7003498  12.7736354  43.5831451
  55.6436777  11.2621593  43.6398506 107.5791454 100.1806641  84.8543072
 108.4295082 100.6066513  84.9622536 107.1358299 100.6978226  84.1818142
  38.0063176  43.4949493  57.9125738  38.0409813  43.5956335  56.9613171
  37.1495056  43.1027937  58.0808496  51.6629028   0.5620629  64.6833372
  50.8730650   1.0901796  64.5672417  51.5668631  -0.1537701  64.0551710
  78.5122681  54.3373728  50.3645134  78.4900475  54.0021563  51.2608194
  77.6378441  54.6999931  50.2226686  59.4728804   2.0848492  59.5625877
  60.1057625   2.7991304  59.6367216  58.6711454   2.5063711  59.2531204
  34.0026712  88.5426426  65.1067877  33.9641023  87.8313065  65.7461166
  34.8724675  88.4653950  64.7147179  65.7651806  31.9574714  50.1920080
  66.0968590  32.6985693  50.6989527  65.9106207  31.1975360  50.7555485
  51.6067028  16.0820258  27.8841662  51.8071795  16.0193038  26.9502997
  50.6712294  16.2823749  27.9153872  72.0772886  16.4510381  61.5372562
  71.9213963  17.3936582  61.5955448  71.4927149  16.1542749  60.8398056
  19.3938160 104.9545193  28.6808324  18.4782314 105.2236938  28.6067939
  19.8599088 105.7547760  28.9228773  20.2563334  68.8460112  12.0204115
  20.6389832  69.5524931  11.5001309  19.3377411  68.8216639  11.7524052
  72.3107290  13.8406157  92.9676056  72.7372742  14.6688163  93.1875420
  72.9990482  13.1829095  93.0669498  70.2074099   7.3800892  25.9525394
  70.6072903   8.2229930  25.7384324  70.6974554   6.7434442  25.4321814
  82.6459599  22.0003676  41.4225149  82.4987698  21.4944887  40.6233549
  83.5858440  21.9219637  41.5859175  63.0204821  23.5498834  51.3658237
  62.7617407  22.9693675  52.0815659  62.5440502  23.2185888  50.6045818
  96.7325783  35.0020409  29.5409608  96.4462090  34.2744422  30.0930691
  97.5000381  35.3560495  29.9903154  67.2967577   5.5162585  65.6790829
  67.2860098   6.0036188  64.8553133  67.3444939   6.1912400  66.3561010
  61.5909576  12.4379814  71.9846058  62.3439693  13.0275702  71.9447184
  61.5163517  12.2070575  72.9105330  69.0645456  42.6426888  49.6749115
  69.0764666  41.7764378  50.0819731  69.5184183  43.2075071  50.3003836
  70.5559301  35.7621264  55.6908035  70.2978468  34.9731898  55.2141428
  71.5127230  35.7351780  55.6983376  56.7711449   3.2147911  35.9844351
  56.9341993   2.5697485  36.6725969  57.2762775   3.9827609  36.2514496
  75.2188444  21.1700726  22.6632762  75.4528379  21.8668389  23.2764626
  74.3792772  20.8407140  22.9840231  66.1395597   2.9216731  48.8884401
  66.6834450   3.0412978  48.1099081  65.2434206   2.8963763  48.5529900
   3.0233756  88.9950466  45.6403065   3.4016174  88.1978035  46.0112047
   3.7428853  89.6263313  45.6453562  59.9978828  20.0341439  42.7039814
  59.5948648  20.7372046  42.1945524  59.3140984  19.7584057  43.3144188
  67.5114822  15.1597023   5.9848827  67.7765942  14.5179737   5.3259963
  68.0055332  15.9489357   5.7629395  70.9925604  36.4797640  22.5930762
  70.3653240  36.8600082  23.2080722  70.7972956  35.5427217  22.6005006
  46.6832113  24.3715882  47.3063898  47.2600555  23.8395429  47.8544903
  46.5215921  23.8308358  46.5332842  64.1629314  42.4193859  49.5744848
  63.8791800  41.6243124  49.1232920  63.3736372  42.9580784  49.6297312
  40.9987116  37.3667884  14.3766379  40.5123901  36.8813467  13.7102520
  41.9096708  37.3259997  14.0855765  32.1270394  34.7251344  47.3759174
  32.8876400  34.5022535  47.9126167  32.4827385  34.8484182  46.4958572
  62.6567650   1.8224630  53.3678722  62.2451878   0.9595986  53.3199310
  63.2232857   1.7751475  54.1379690  79.1349983  49.1588879  29.6564245
  79.5161104  48.7477112  28.8805890  79.8871613  49.4980383  30.1416659
  48.4210396  36.6394711  40.6914759  48.5337734  35.7485390  40.3601646
  48.6649132  36.5840650  41.6154289  63.4870720  32.6076150  46.8681574
  62.6320839  32.9331160  46.5865946  63.3008099  32.0937920  47.6539850
  65.1655102  17.8394520  51.9039726  65.2239656  18.7450826  51.5995884
  65.9495783  17.7154636  52.4388504  28.8619947   3.9893734  29.2858934
  29.3240476   3.8065317  28.4677815  28.1417727   3.3590490  29.3002319
  51.8390369  16.1339498  53.1581211  52.0162249  15.7949853  54.0355825
  52.3657417  15.5840874  52.5780678  22.4212551  49.1591167  37.7532673
  23.3640981  48.9990711  37.7124691  22.3449683  50.0956964  37.9355526
  33.0622268  98.0451775  56.8597555  33.0051732  97.4503326  56.1119986
  32.9638171  98.9180660  56.4794731  69.8721075  31.0075498  27.1873975
  69.6846342  30.1398087  26.8294740  70.7103920  31.2523055  26.7954707
  51.0542536  37.9365849  53.1600809  50.3619909  38.1241083  52.5261688
  50.6093788  37.4753690  53.8711309  81.0717487  52.4393797  21.3333392
  81.7354393  52.9173660  20.8360767  81.4486408  51.5687466  21.4605379
  80.7847023  13.9930356  78.5789061  80.5331135  13.1158817  78.8679314
  80.5436611  14.5639241  79.3084335  88.2852459  13.8561285  75.5514097
  88.5076046  14.0621960  74.6434832  87.4287987  14.2617762  75.6862354
  61.8200302  45.7373857  15.0936162  61.4855385  45.1379824  14.4264829
  61.7088985  46.6077232  14.7110093  60.7876444   9.9541712  35.0076222
  60.7809162   9.6574754  34.0975904  60.6003475  10.8914125  34.9553657
  77.8722906  21.5852308  42.6897621  77.6821327  21.9143844  43.5682440
  77.0720387  21.1312771  42.4256563  56.1064339  19.1042602  42.5125313
  55.9549999  18.1621015  42.4374485  56.2039042  19.4039595  41.6087008
  72.9081440   5.9577119  89.3340111  73.8300800   5.9873337  89.0782928
  72.6377058   5.0578707  89.1513062  77.4099064   1.4678439  83.6447716
  78.1221008   1.6691840  84.2517948  77.4109793   2.1965612  83.0241299
  27.8176570  93.4327984   8.6341995  27.6155806  94.2804241   8.2380611
  28.3619380  92.9883289   7.9842472  51.0254669  22.4771905  22.5132012
  50.5140257  22.6404524  23.3056688  51.3909101  21.6016483  22.6401281
  48.0487442  35.8071542  43.5298109  47.0945024  35.8242822  43.6030149
  48.3480930  35.4777575  44.3772316  27.8743172 106.6314888  55.3072023
  27.1526670 106.2874889  54.7807837  28.5767603 105.9903622  55.1987076
   3.4055048 108.7491226  29.5242763   4.2573774 109.1611099  29.6685362
   2.7944705 109.4821453  29.4498563 112.3648167  97.6505661  19.6443439
 112.8533173  96.8363667  19.7655225 112.8549862  98.1264496  18.9739001
  27.3486781 100.9039021  60.3744173  27.4322152  99.9587536  60.2481890
  27.5249839 101.2773800  59.5108986  80.8212566  17.4610472  38.4762192
  80.1052094  17.2170949  37.8896976  80.3981304  17.9560244  39.1777849
  21.1970663 107.6662922  17.2613680  21.9730926 107.3301601  16.8130100
  21.4248776 108.5669994  17.4917340  89.5970345  16.6878319  55.9796381
  89.1821289  15.8334672  56.0985708  90.5302048  16.5215504  56.1129284
  36.7597008 100.6393719  13.7192428  36.6689968  99.9196339  14.3437266
  37.3475718 100.2987862  13.0449724  25.5723977  95.9113598  54.4529200
  25.9586740  96.2401390  55.2646637  24.7919679  96.4502811  54.3235826
  46.1167955  14.0965831  51.3635921  47.0602179  14.0000963  51.4935017
  45.8748055  13.3566833  50.8066177  28.6894917  15.2689254  62.2501659
  27.9336214  15.4293084  62.8151178  29.1973782  16.0790932  62.2938824
  54.1057873  31.5768766  73.2426071  54.4613266  31.3634253  72.3798990
  53.7136459  30.7592273  73.5490465  16.3729167 107.7111626  82.4814606
  15.7715392 108.3063698  82.9290104  15.8062601 107.1570301  81.9447422
  47.2675037 103.3961868  22.3577070  46.6885710 102.9131222  22.9473829
  47.7989864 102.7203274  21.9370413  76.7922831  48.9910603  55.5829573
  76.2992001  48.9957476  56.4033699  76.1736774  48.6564875  54.9336338
 107.0091534  82.2424126  33.1143928 107.0593262  83.1607151  33.3797956
 106.0793877  82.0245743  33.1800699  41.6095018 107.6200390  53.1301403
  41.7492247 108.2314968  53.8532162  40.9702063 106.9924641  53.4673071
  63.4249115  12.8756392  52.2817421  63.8561344  12.5089133  53.0536127
  64.0707445  13.4758472  51.9090748  72.5240564  19.5518684  58.1732130
  72.0848513  19.4988096  57.3243809  73.3104134  20.0707483  58.0039930
  95.7581902  89.5750713  47.3217487  95.3403568  88.7891960  47.6739359
  96.5124989  89.7215557  47.8925419  55.5675173  17.0302868  47.0513010
  55.1012468  17.0837402  46.2170553  56.2848091  16.4184022  46.8860054
  57.2805262  41.3479614   9.3008006  58.1716442  41.0030842   9.2441744
  56.8236017  40.9541130   8.5576093  87.3523140  68.2774830  41.3695145
  87.7806950  68.9975643  40.9066963  88.0565929  67.6538801  41.5465260
  89.2390060   3.8239706  64.8974323  88.7114143   3.0959257  64.5690632
  89.7377110   4.1207945  64.1362429  34.0169477 108.6352253  17.2669911
  34.5355606 107.8824806  16.9830191  34.5342517 109.3959522  17.0025527
  64.8943901   8.0048507  73.1519413  64.0364361   7.6882803  73.4346581
  65.0134850   7.6278001  72.2802305  55.3145790   0.6143021  16.6552174
  56.0815334   0.1262013  16.3556027  55.2184772   0.3682456  17.5752449
  86.2935066  31.2975693  36.5505886  85.9713173  30.5365610  37.0335937
  85.5035305  31.7850041  36.3169718  87.2052670  47.5856304  32.5016785
  87.3466015  48.5292292  32.5783443  88.0268097  47.2486544  32.1442652
  59.0758848  27.6312256  41.2714243  58.4700441  26.9579363  41.5810585
  59.4808435  27.2492433  40.4927540  64.0406036  15.3266144  33.7708139
  63.5702944  15.0264549  34.5485973  63.3853483  15.8078468  33.2655501
  54.2568207  16.8541098  62.9640865  54.4057322  17.1970248  62.0829153
  55.1239395  16.5826476  63.2651615   9.7076035 106.5375042  43.9745474
  10.2682483 107.3116493  43.9235067   8.8642889 106.8721962  44.2795563
  36.1893749  21.3715005  67.7222872  35.8813643  20.8654284  68.4741163
  37.0657778  21.0293078  67.5460577  71.8379688  15.1127410  41.1546707
  70.9606838  14.9918997  41.5179968  72.4272585  14.9380577  41.8884659
  76.8082428  28.2036924  36.7140889  77.3970556  28.2980394  37.4628425
  76.5703249  29.1013050  36.4818907  18.3764088 108.1791306  65.5613947
  18.4939039 107.9682350  66.4876509  17.4322176 108.1131458  65.4186249
   0.4380960  30.6759691  30.8145666  -0.2435247  31.2966728  30.5569816
   1.0403636  30.6593204  30.0707746  76.5351772   9.2480505  47.3911810
  75.6515169   8.8819861  47.4283075  76.4735222   9.9583960  46.7525578
  47.1075201  29.5732450  44.4762087  46.5913916  29.1476274  45.1608229
  47.3877382  28.8565063  43.9070034  38.8021731  14.3017292  51.8918705
  39.0452576  14.8113203  52.6648235  37.9207563  14.6041608  51.6730738
  61.6572142  29.2049646  64.0026760  61.0109472  29.0727282  63.3090734
  62.1080112  28.3635473  64.0735960  70.4539776  16.3660681  39.0566301
  70.6887054  15.6945133  39.6970582  69.9531651  17.0099854  39.5574188
  89.1131973  22.6025105   6.4316612  89.5646000  21.8416715   6.7971629
  88.7973499  22.3063469   5.5779868  21.2102103 105.8072472  60.6542683
  20.9645891 106.7320156  60.6278276  21.7495704 105.6802654  59.8737574
  30.1014233  96.3910675  39.1918206  30.3743887  96.5403557  38.2865930
  30.0302434  97.2682381  39.5682859  62.0774508  18.2394516  37.7148819
  61.4465666  18.3033299  38.4319139  62.6071167  19.0331590  37.7904654
  58.7529945  17.2825599  72.0950031  58.7016153  16.3284731  72.1525431
  59.6657991  17.4600077  71.8680096  98.6109543  11.4097631  84.2287064
  98.1484032  11.7154181  85.0090027  98.9587688  10.5531466  84.4766235
  55.4010153  18.0206037  78.4586382  56.0045290  18.5079587  79.0194321
  55.0531340  17.3307502  79.0237141  48.0624580  26.7989111  79.3284464
  48.7196922  27.0854425  79.9626255  48.4247541  25.9957790  78.9543438
  72.9980946  30.6537747  53.8068151  73.5306501  30.8582354  54.5754576
  73.4474564  29.9166918  53.3932734  55.8819246  38.9979649  33.1824160
  55.2159834  38.3622932  33.4444737  56.7007923  38.5023093  33.1861615
 113.0224991  91.2241936  60.6006432 113.3605576  91.8334579  59.9443388
 112.1996117  90.9052467  60.2300119  24.4918609 105.5488300  27.4815321
  25.3188396 105.1574039  27.2002363  24.4576502 105.3849697  28.4239817
  50.9425116 107.8460407  52.9524660  51.5841436 107.8242874  52.2424889
  50.0966835 107.9104328  52.5090027  13.2036304 103.6311340  16.0361934
  12.9959714 104.3365955  15.4234672  13.1703627 102.8353024  15.5053580
  76.0515642  10.1876843  18.1266773  76.3339663  11.1019278  18.1519437
  76.8662024   9.6862078  18.0932415  70.1368952  23.2291031  48.8101292
  69.4006920  23.4274721  48.2314396  70.6690788  24.0246820  48.8019848
  40.9952450  31.8540359  29.9111319  41.8545341  31.4327669  29.8914671
  40.4549074  31.3234186  29.3257141  48.4928131  19.0966761  44.1983128
  47.7194118  19.0367401  43.6375189  48.1406021  19.1599059  45.0861073
 111.2425709  65.4447842  12.0981967 110.6319141  64.9495983  11.5521920
 111.5258503  66.1709785  11.5426540  29.8478746  23.2362819  26.6846371
  30.0875020  23.0919266  25.7692289  30.1882696  22.4692726  27.1451402
  73.6228991  28.5534978  13.3619070  73.0352688  27.8301358  13.1435788
  74.5011520  28.1982660  13.2251143  43.6154366  30.7370400  48.2833290
  42.7089977  31.0143924  48.4162760  44.0476418  30.9234262  49.1168118
  44.8652315 106.7600441  46.0994148  45.1399136 107.3661327  46.7874813
  44.3065548 107.2853279  45.5265427  58.4668303   9.3002105  64.8700905
  57.5252295   9.2534220  64.7044849  58.6978722   8.4272099  65.1874542
  82.3075294  31.4961195  59.8362303  82.2998524  31.6369987  58.8894844
  83.2055283  31.6956854  60.1007986  65.2459335  26.7813611  91.7619514
  64.3476534  26.6003966  92.0386696  65.7821178  26.5432453  92.5182819
   8.9098465  99.2224789  41.9421577   9.7804886  98.8902664  41.7234039
   8.3634520  98.9708996  41.1975813  84.6957874  34.8467970  50.3618574
  85.3149605  35.4538679  50.7672358  85.2067280  34.0526891  50.2051210
  21.1345625 102.8753471  39.4623828  21.2657309 103.6058331  38.8578844
  20.5530548 102.2773552  38.9928341  24.7464085 102.8001881  22.1458602
  25.5665421 103.2798767  22.2621250  24.2111516 103.3710098  21.5945959
  36.0033274  13.5164154  54.8118448  35.3738403  12.9096472  54.4222212
  35.5249906  14.3420923  54.8872328  45.4296827  11.1769712  62.5026464
  44.9721670  10.5841339  63.0988455  44.7610617  11.8052161  62.2297239
  60.2779388  31.2585711  59.9483252  60.8955002  31.8389845  60.3932571
  59.8725271  30.7542276  60.6536674  64.8962402  26.2281275  85.9255123
  65.4020166  25.5104375  86.3067436  65.5511904  26.7868495  85.5070591
 107.5792599  71.9787598   2.1329911 106.7490768  71.5025854   2.1502253
 107.3427296  72.8804541   2.3503360  35.4566050 104.1602039  22.1592975
  34.7601914 103.7487602  21.6474867  35.1681495 105.0659752  22.2715855
  64.4382381  41.6749907  21.0641074  63.5262823  41.5584660  20.7976723
  64.8614597  42.0714664  20.3025794  18.0846715  32.4063754  41.0068655
  17.5826788  32.8544927  40.3261089  17.5548613  31.6412282  41.2306547
  15.0697541  81.5342617  49.0476227  15.4286420  80.6484318  48.9953995
  14.2923641  81.4456081  49.5990181  38.8772821   9.1639870  71.0122967
  39.5108128   8.9504826  70.3272533  38.3543658   8.3683854  71.1113262
  95.0745487  81.5364647  58.0367613  94.8882484  80.6065464  57.9072952
  95.2550411  81.6164494  58.9733791  75.3134060  64.5571804  58.1267500
  76.0021877  65.1954794  58.3121967  74.5812654  65.0820637  57.8031635
  64.7091246  49.8307800  23.9652395  65.0310183  50.6175327  23.5251951
  64.4427347  49.2498207  23.2526731  75.9232044   7.7712405  29.1367912
  75.4613447   6.9789433  28.8625956  76.8499899   7.5579494  29.0281320
  75.6930971  66.7853737  47.7902365  76.0902071  67.3484373  47.1257830
  76.4120102  66.2325430  48.0964613  75.4610491  26.5911317  63.1706572
  75.3797865  27.5421214  63.2430983  75.6706953  26.4381576  62.2493076
  24.9975300  67.1590948   2.3209763  24.9416471  68.0765200   2.0536870
  24.1928411  66.7628193   1.9867970 105.4181004  12.4327636  51.1359692
 105.6993389  13.1728446  50.5979872 106.2280178  12.0896649  51.5135241
  45.2750826  24.6120238  90.8205318  44.7838974  23.8788056  90.4499149
  44.6879435  24.9858975  91.4775944  53.1000566  55.0386000  48.4478998
  52.3243904  54.4982672  48.2975006  53.2813215  55.4393244  47.5977230
  93.4092808  67.5982761  43.6514187  94.2599869  67.5046206  44.0800905
  92.7755642  67.3239660  44.3142843  42.4312592  61.2662697  21.3694930
  42.2264528  61.1057091  22.2906351  42.1485806  62.1676111  21.2148666
  65.0587702  35.9228969  46.5228558  65.3573322  35.1911616  47.0629072
  64.2480087  36.2136030  46.9404554  53.6340237  40.7486343  34.1004300
  53.5480070  41.5472698  33.5798359  54.4758177  40.3787708  33.8343287
  79.5711851  24.8091102  44.7607851  80.3044128  25.2055240  45.2313852
  79.9827862  24.2866969  44.0723753  63.8260412  24.5848298  20.1167893
  63.2677937  23.9492297  20.5646777  63.7027025  24.3980503  19.1861260
  51.3603497 106.1718750  34.5711732  51.9118929 105.6841660  33.9594746
  51.9794035 106.6492844  35.1235080  93.2473564  13.4829628  58.5197783
  92.4977875  12.9576278  58.2397604  92.9422092  13.9356768  59.3060160
  50.6312084  18.1689048  54.3369293  50.9267712  17.3997140  53.8498783
  51.4330912  18.6574960  54.5226431  31.4481521   1.3461329  18.6640692
  31.9490981   0.5320740  18.6131299  30.6602573   1.1752034  18.1480885
  71.2691975  53.0482101  57.6890993  71.1729479  52.4072218  56.9847536
  71.6284180  53.8243389  57.2591972  72.4731064  46.9499731  52.1207762
  72.1984529  46.1498785  52.5687122  72.4069309  46.7379618  51.1896992
  76.9174528  38.6794949  31.9004893  77.8116417  38.4398603  32.1438670
  77.0204496  39.4413018  31.3301611  61.9661140  40.5046511  35.8966017
  61.4969587  39.8069978  35.4389977  61.3803005  41.2600040  35.8466125
  82.7591228  72.1630478  59.9212885  82.9575253  71.4776564  59.2832422
  81.8137169  72.2930861  59.8469400  84.4332123  41.3986111  44.4106770
  84.9858093  42.1402979  44.6571922  84.3562508  41.4632320  43.4587669
  89.1882133  57.2571325  46.5114927  88.7167835  58.0417490  46.7914248
  89.8992252  57.5879622  45.9626341  67.6758385  16.0952759  51.4669514
  68.2066536  16.8096423  51.8192911  67.8131199  16.1390722  50.5206585
  71.9288063  44.5576668  55.9573412  71.1070299  44.5303869  56.4474201
  72.5272036  44.0070534  56.4622927  68.1884480  40.4187012  39.3882656
  67.3314047  40.8436584  39.4216895  68.4149265  40.2638388  40.3053045
  54.5257664  29.9369097  38.2261753  55.0184870  30.3974414  37.5469375
  54.7714186  30.3767109  39.0400910  42.4198008  40.1918125  36.1313224
  42.1040773  41.0911751  36.2190557  43.3728600  40.2746344  36.0988736
 103.6828041  64.7224903  40.5111837 102.8356552  65.0411463  40.8226919
 103.7883854  65.1259565  39.6496177 107.9624081  79.0890455  91.2736607
 108.8593006  78.8183069  91.4699268 107.5773048  79.2800522  92.1288967
 100.6037140  69.0303278  23.7417078 100.5328751  68.7584639  24.6567512
 101.3256931  69.6587515  23.7337685  93.1115723  31.4191175  45.7109499
  93.1813526  31.5388393  44.7638369  93.2344055  32.2966528  46.0729933
  34.3452811  14.1484237  58.3504438  35.0242829  14.7743785  58.0987167
  34.4188881  14.0852833  59.3027210  48.8136435  39.8455215  15.6425118
  49.4896030  39.1933584  15.8268869  49.0590954  40.6020451  16.1751091
  77.3234653  51.8711710  60.9933281  77.3217058  51.1934853  61.6693211
  77.8888607  52.5588274  61.3450241  39.0046048   5.3680712  65.8617353
  38.2348561   5.9148031  66.0192347  39.4093704   5.2703279  66.7236185
  88.8453674  56.9125748  34.4470978  89.2481995  57.1677494  35.2770615
  87.9083347  57.0537853  34.5822525   0.8625923  95.1732159  63.0264282
   0.1835953  95.4807186  63.6269569   0.8897100  94.2258263  63.1604338
 102.2701073  25.3955555  36.4891219 101.9782543  26.3065052  36.4541054
 101.8194294  25.0287366  37.2497582  70.3158855  54.1897154  59.8097658
  70.8377981  54.9795723  59.9510860  70.6422234  53.8315248  58.9842749
  57.8455925  11.4627135  73.3556652  57.8190994  11.8165076  74.2446852
  57.1757650  11.9555688  72.8816843  61.8898916  45.6371927  34.8227191
  62.4339676  46.3598442  34.5096898  61.0084724  45.8510208  34.5167637
  83.5802269  25.3589654  51.8993616  83.9557457  25.0155377  51.0886335
  83.0713940  26.1213470  51.6235065  58.6517143   2.2658476  62.4013329
  58.3778286   2.2761185  61.4842081  59.4172335   1.6914020  62.4162674
  64.8431635  14.1027367  63.1425571  64.7651958  13.7228835  62.2674227
  64.0197229  14.5727694  63.2738733  81.4497280  50.3777504  31.4660335
  81.4976788  51.3276100  31.3578796  82.3574066  50.0824118  31.3943839
  67.2212315  36.7457509  22.0260763  66.6880465  36.0787535  22.4585795
  67.8845167  36.9801569  22.6751804  70.5689001  41.2053585  68.9225435
  69.8392296  41.7756414  69.1645861  70.1968718  40.5992699  68.2818556
 104.3983936  33.6927986  63.1478119 104.8754597  34.5067120  62.9859972
 103.4961987  33.8898563  62.8959322  76.2328529  32.0440435  46.6472960
  75.6380415  32.5472307  46.0912085  76.6848707  31.4550662  46.0431290
  75.6768942  56.3245392  25.9773564  75.8988762  55.5692625  26.5218854
  76.3788605  56.3661909  25.3279400  45.1058388  28.6112881  46.4219952
  45.4852057  28.0755806  47.1186495  44.4829464  29.1825199  46.8713617
  64.6531391   7.7671224  88.9604282  65.2504635   7.5365442  89.6719551
  65.2232456   7.9028070  88.2035923  28.3175015   3.4795630  77.1050835
  28.1046343   4.1640708  77.7394056  27.4888039   3.0238703  76.9573069
   2.4132898  35.0462914  78.1451368   2.2504191  34.5335412  77.3534346
   2.6021132  35.9282613  77.8246593  93.0226898  15.6184649  29.7428846
  92.8175640  15.3562653  30.6403279  93.9608765  15.8077872  29.7571826
  59.8369551  38.3626056  56.8578959  59.1249990  38.9842939  57.0090580
  60.0211287  37.9946160  57.7221298  80.8721256  32.4322104  43.2604837
  80.6937885  33.3188391  43.5740423  81.5009308  32.0777845  43.8891411
  51.7048597   0.7067283  28.2447243  51.4721775  -0.1171463  27.8165650
  51.5458918   0.5464790  29.1749287  93.5603619  72.6622295  62.7750540
  94.3317509  72.0990515  62.7115822  93.5233879  73.1136990  61.9318247
  89.6782398  43.9245939  35.7685590  89.9703407  43.2245255  36.3523531
  90.4780006  44.2268181  35.3381157  83.9261532  92.4656773  93.0373192
  83.0791855  92.9088783  93.0869007  83.7205219  91.5404510  93.1711006
  80.5200386  61.3626003  45.4792309  81.4543438  61.5642500  45.5306673
  80.4862595  60.4143572  45.3530407  74.0369463  69.0817547  29.5252705
  74.1649055  68.3844709  30.1684308  74.3229103  68.6982775  28.6961722
  70.0807953  29.7650743  23.1628823  69.9188662  29.0024424  22.6075411
  70.4811049  30.4074073  22.5768876  60.6559706  60.5227089  10.6306565
  60.9117222  60.6974745  11.5363503  60.8580971  59.5963764  10.4991949
  77.0403719  62.7314281  19.0290213  76.4317322  62.0912027  18.6603737
  77.8005552  62.7013350  18.4481192  80.9138870  28.0496979  51.8421030
  80.4261303  28.2951212  52.6282930  81.8290329  28.2200217  52.0650911
  83.5068417  22.7304196  37.4899578  82.9530525  22.1224117  37.9797268
  83.2044697  22.6539302  36.5849996  11.0284829  55.1150799  36.0282469
  10.3913736  55.7988834  36.2349677  11.3954854  55.3770065  35.1838899
 100.0589180  43.3664942  48.7088108  99.6599293  43.0946779  49.5353460
  99.5955372  44.1698694  48.4719563  38.5219502  21.5387344  58.1649828
  37.7913523  21.4046574  58.7687063  38.3749437  22.4118400  57.8012371
  46.4308882  39.1558814  31.9855833  45.6794882  39.2762923  31.4049530
  46.2574911  38.3276868  32.4330831  98.2998657  54.9668646  31.8281364
  97.6146698  54.3185472  31.9906831  97.9219818  55.5562067  31.1753654
  65.3073978  28.3608055  19.5418656  64.4385815  28.3433604  19.9432218
  65.8983088  28.0717993  20.2372313  82.1428967  77.2489309  22.7882886
  82.7198887  78.0124569  22.8068876  81.8594933  77.1850491  21.8762422
  70.4881859  15.7674670  59.4326353  70.9684658  15.7589161  58.6046934
  69.9609566  16.5655136  59.3954563  92.2477531  17.8975511  34.8868418
  91.6622257  17.7100313  34.1531968  92.0177460  17.2461343  35.5494022
  61.6413593  38.6495399  46.2606287  62.4434185  38.4473252  45.7789230
  61.0147953  38.9081168  45.5847645  89.2976761  55.4687738  43.0020666
  89.4831276  56.2152767  42.4323559  88.4175014  55.6370974  43.3385277
  59.8069811  11.3096797  60.5147266  59.3725538  10.7589984  59.8633814
  60.5312014  11.7168796  60.0394058  85.3521633  56.8766642  50.7458401
  85.4268169  57.7424335  51.1472130  84.4892502  56.8783188  50.3315783
  61.3310099  37.9574561  34.8508382  61.1668730  37.2996759  35.5265713
  62.2697926  38.1341600  34.9116039  41.8547058  20.3704119  20.9129000
  41.7149448  21.0827231  20.2889514  41.1438799  20.4645419  21.5470123
  68.8712120  40.3745985  42.1240473  68.5037279  41.0930729  42.6388073
  68.8369608  39.6183205  42.7097940  44.1600037  36.6714668  94.0538692
  44.9566650  37.1933389  93.9579105  44.2575884  35.9656668  93.4146881
  44.5771599  34.4183183  53.3295584  43.6220217  34.4453406  53.3862400
  44.7946501  33.4883237  53.3931303  78.2579470  54.0169668  55.6182575
  79.0816069  54.3372250  55.9860182  77.8303957  53.5652208  56.3458252
  93.4949970  31.4954877  31.2925124  93.6938286  31.0182738  32.0980978
  92.9691124  30.8848476  30.7759857  18.2622910  15.2641606  91.9735146
  18.4446263  15.1028228  91.0478020  18.0985379  16.2058544  92.0247936
  62.0582390  44.8068333  21.5138078  62.5263023  45.4741764  21.0120058
  61.7241859  44.2005110  20.8527422  51.6378307  20.8882999  91.5096760
  50.6821156  20.9082580  91.5591145  51.8255377  20.4647994  90.6720352
  88.7843609  22.1183324  22.8588009  89.6796989  22.4319434  22.9862738
  88.6368179  21.5131211  23.5855627  85.1123714  36.6165257  27.4882698
  86.0173702  36.9085908  27.3791504  84.5922089  37.4169517  27.4176598
  87.7650642  53.7177563  49.8435116  88.6001301  54.1615343  49.6953154
  87.1800137  54.0798140  49.1780281   7.6763326   5.2644378  84.8911476
   8.4503913   5.8005756  84.7190380   7.7416515   4.5420223  84.2665863
  83.4197998  61.9938183  44.8911381  83.6122990  62.3755646  45.7475519
  83.6011314  62.6980877  44.2687559  70.1539946  41.4633322  61.9458961
  70.1892567  42.1023846  62.6576567  70.9071827  40.8927488  62.0987797
  48.8847876  52.2940016  61.6383648  49.1586685  51.3768244  61.6381121
  49.5221281  52.7344370  61.0761833  50.8433485   4.7339973  58.4633970
  51.6066408   5.2897400  58.6207867  51.2084961   3.9143190  58.1301880
  69.9612904  50.3833675  32.3893309  70.4799318  49.7270870  31.9239926
  69.4299603  50.7957315  31.7082477  52.8788233  34.2816043  41.1500597
  53.1130981  34.8412538  40.4096985  52.0416117  34.6291447  41.4575100
  96.4528179  28.0602670  66.3271570  95.7217121  28.6045980  66.6194248
  96.0391235  27.2705460  65.9786940  86.3272667  34.4699717  62.4884415
  86.2651443  33.8635445  63.2264233  87.1624565  34.9194574  62.6174450
  37.7600932  29.2790675  80.8870506  37.8226471  29.5684934  79.9768019
  38.2582211  29.9307847  81.3803673  81.6390896  11.8884850  26.1670375
  81.4482307  12.4898064  26.8869114  82.3797226  11.3686144  26.4791822
  75.8932352  33.5129333  20.6972504  76.3018942  33.2075095  21.5071559
  76.3061237  34.3591428  20.5249619 106.4676285  85.4506969  41.7408800
 105.6868839  85.3523540  42.2858572 106.1626148  85.2729607  40.8511591
  40.6185627  50.0260544  30.7627439  41.3319921  50.3069496  30.1897264
  39.8225093  50.2327013  30.2730250  55.4343462 105.1276398  84.1395950
  56.3423491 104.8266602  84.1738605  55.4241800 105.9198380  84.6767616
  22.4149346 106.0379887  64.2000675  23.2475376 106.3972759  64.5065355
  22.6448798 105.5314636  63.4211063  88.8793564  36.0508537  43.7953615
  88.1807995  35.6746745  43.2598829  89.6646595  35.5675721  43.5385418
  78.3631182  24.0323877  61.4612818  77.4066830  23.9994788  61.4807320
  78.5819244  24.8749685  61.8592930  39.8487902  55.8573532  70.3115034
  40.3345013  56.6750431  70.2033520  40.5071068  55.2236366  70.5965614
  88.8852310  50.6181955  56.0519075  89.6223068  50.2526951  56.5411472
  88.9893436  50.2700520  55.1663637  17.5891364  23.1371737  45.7703495
  17.3815346  24.0628123  45.6425762  18.5307789  23.1243467  45.9417486
  59.9940157  11.6629028   7.7400726  59.2679930  12.0903599   8.1943911
  60.7796335  12.0404649   8.1356561  96.4297009  29.6331167  51.6390419
  96.3507843  28.9098120  51.0170841  95.7805061  29.4394398  52.3152590
  61.8420601  32.0443749  26.2011695  60.9748554  32.4483275  26.1694074
  61.9317770  31.7404509  27.1043921  74.9941063  52.3396587  50.7377052
  74.2094803  52.1320724  50.2302599  75.7030296  52.3367357  50.0945473
  38.6340642  24.8569393  47.7072906  39.5574498  24.6496868  47.8509521
  38.1691599  24.3567395  48.3780336  59.4020939  37.2766542  61.9996738
  59.6995783  38.1738496  62.1506023  60.0104094  36.7348671  62.5023174
  74.0767145  50.2764082  56.7036724  73.9648867  51.2205839  56.5929508
  74.0156031  49.9223185  55.8164787  64.1577101   3.0791163  64.0512371
  63.7029648   3.6794296  64.6420479  64.9733543   3.5299823  63.8328743
  77.5724316  54.7453928  16.0786319  78.2758522  55.3004932  16.4152312
  77.5664139  53.9863873  16.6618133  55.3080606  48.5512400  63.2332325
  55.4732943  49.4807959  63.0755615  56.1791420  48.1656504  63.3268881
  79.3030310  63.3951807  17.5826728  79.0577078  63.5060549  16.6641116
  79.2771101  64.2803526  17.9460299  77.7901363  39.5642138  53.3182335
  76.8694067  39.8246145  53.3444071  78.1963301  40.1812029  52.7094984
 105.9459400  32.3754621  34.8365283 105.0479412  32.1937346  35.1136732
 106.0424900  31.9008350  34.0109158  69.6747255   2.3971628  51.9984627
  70.1481342   1.6320524  52.3251438  69.9250221   2.4580537  51.0765743
  90.2868366  21.1860347  42.0942020  90.2531147  20.6458926  41.3046837
  89.4204807  21.5898228  42.1453381  87.4167347  61.7853451  44.1003895
  87.0064163  62.5804090  44.4406033  86.7099285  61.1401176  44.0819263
  80.6948376  24.1786218  47.3259687  81.1428165  24.9397278  46.9568253
  80.0264072  24.5500636  47.9016876  73.2711267  26.5980625  31.1930966
  72.9751778  26.9711280  30.3627539  73.9075565  27.2305274  31.5265298
  75.7446671  32.2414732  33.3048701  76.4358044  32.8962636  33.2058215
  75.4765415  32.0387769  32.4086261  44.6047592  34.8676395  49.5030403
  44.0451956  34.2067361  49.0952110  44.7764874  34.5273232  50.3810644
  17.7904165  34.7578955  69.8150444  17.0879114  35.2807117  70.2015448
  17.8192675  33.9637160  70.3486013  82.9094410   9.7691280  72.7451563
  82.7137375  10.6374669  72.3931360  83.4587288   9.3582577  72.0775414
  58.5736561  49.1900921  25.7135367  57.8961039  48.5139608  25.7137871
  58.8937283  49.2087603  26.6154456  79.7527027  40.9136057  28.3525062
  79.8388147  40.6307554  27.4421144  78.9109612  40.5564928  28.6356640
  72.7013922  11.6279304  32.4209261  73.1769228  10.9720552  32.9307604
  73.3861303  12.1338558  31.9834304  89.9191284  54.2828655  37.7884364
  90.0113010  53.6030102  37.1209574  90.8184624  54.5232868  38.0112219
  91.5083122 103.2734871  86.4562225  90.9154510 102.7718925  85.8966255
  91.9821262 102.6104069  86.9582748  68.4447670  44.9637747  18.9172041
  68.1961584  44.0397549  18.8923538  69.1132593  45.0136518  19.6004796
  44.6624947   7.8660160  67.2761250  45.2419138   7.7773702  68.0328608
  45.1470852   7.4642015  66.5550518  79.1789913  44.6648645  56.3849115
  79.7494936  45.4198170  56.5291691  79.7538805  43.9067364  56.4896822
  60.9706068  33.1831765  50.3349066  60.8342695  33.0106831  49.4033003
  60.6346321  32.4022293  50.7747650  87.4333096  57.1747112  44.0585947
  86.4921856  57.2379732  44.2214251  87.8338528  57.2921753  44.9199915
  87.0641994  54.1786146   3.4195247  86.9724846  54.3658829   4.3537357
  87.3074532  53.2535410   3.3834365  82.4662304  39.4614172  52.1019077
  82.8769016  39.3378496  52.9576588  82.9881382  40.1453495  51.6822910
  74.9794197  10.2455020  22.8240466  74.9907732  11.1927783  22.6870441
  75.4275799   9.8872948  22.0578408  91.4958858  15.6974673  82.5244999
  91.8643188  15.6309664  83.4054470  90.6769753  16.1786747  82.6430798
   9.9453986  92.1800709  77.1495438  10.2147818  92.3112011  76.2404394
  10.5479598  92.7223873  77.6585054  89.6989918  42.9446602  29.3506956
  88.8039589  42.9483700  29.0113783  89.6223450  43.3090353  30.2325058
  65.5465460  36.0403204  37.5227308  66.3974142  36.4786983  37.5314760
  65.5109644  35.5697894  38.3555365  84.5293331  51.1297321  23.0365348
  84.1673851  51.9015455  22.6011848  84.5792294  50.4673433  22.3473454
 114.3954849  48.2069397  10.9877527 114.2916012  48.4409761  11.9100690
 113.5011482  48.0830002  10.6699026  52.4082565  32.9646778  49.3710613
  52.8408861  33.5400176  48.7401533  51.4782190  33.0268002  49.1533422
  73.3620787  23.5277247  15.6331503  74.0998220  22.9275656  15.7416677
  73.4966183  24.1965175  16.3046026  24.7526574  13.4224558  81.9670391
  24.1647720  13.3166242  82.7149868  25.6071067  13.6050427  82.3579502
  56.1357450  35.5974221  50.1449013  55.6011152  34.8043108  50.1077414
  57.0176554  35.3026390  49.9178219  83.1498337  56.6750622  49.4249582
  82.9681492  57.0790482  48.5764217  82.3158073  56.2863588  49.6886587
  74.5913792  14.9865031  48.7267876  74.7440672  14.4145322  49.4789600
  74.9696970  15.8271670  48.9844513  92.0129013  25.2429962  59.2445660
  92.8432178  25.5044913  58.8465261  91.7710876  24.4377232  58.7870789
  47.8977013  19.9340689  48.8357782  47.3243189  19.2742682  49.2258072
  47.5390291  20.7697725  49.1344166  57.0867205  53.4354925  13.6528635
  57.6051235  53.9654827  13.0473876  57.4309778  53.6551952  14.5185709
  90.0922871  39.9617434  50.2476835  90.1572323  39.0149450  50.3725243
  90.5308247  40.1238394  49.4124365  73.2125521  45.8445597  37.9926682
  73.3245325  45.1516581  38.6434984  72.6273775  45.4650736  37.3370814
  73.3008003  45.1847792  44.0568066  72.6900911  45.4226971  43.3591986
  73.6018515  46.0229015  44.4077349  58.0636072  15.1425755  46.8638897
  58.9609861  15.1164079  46.5318394  58.1179285  14.7441685  47.7325392
  21.7770672  89.4089031  29.5280838  22.7193642  89.2568302  29.6000767
  21.4054871  88.9785862  30.2981400  71.3764334  46.4720011  59.5279026
  70.9410048  46.9783115  58.8421297  72.2409105  46.2744904  59.1674900
  56.7984819  89.9554157  61.6898680  56.3638926  89.1035938  61.6478586
  57.2096205  89.9721718  62.5541162  57.2874498  25.4333043  49.2763138
  56.9820070  26.0909891  49.9011230  57.5080585  24.6742892  49.8161840
  64.4697046  54.8423958  38.8376641  64.2388248  55.2769756  39.6586776
  64.5934916  53.9244556  39.0791202  89.3629074  49.4460773  48.8499117
  90.0367165  49.1715240  48.2279539  89.1339397  50.3348589  48.5781288
  84.0052223  39.3368053  41.4465904  84.0213966  40.0081873  40.7645226
  84.7039604  39.5909238  42.0494270  10.3681421  81.2366199  18.1044710
  10.1055753  81.7231274  18.8858783   9.5495045  80.8841038  17.7554762
  57.5916624  16.3862228  55.7343817  56.6513777  16.2084305  55.7122374
  57.8572845  16.1599076  56.6257048  78.8149691  66.4169979  48.0843258
  79.0008116  66.5708733  49.0106201  78.9510965  67.2681522  47.6681137
  81.0149002  51.7788458  28.0512118  80.8823776  52.6692104  27.7257538
  81.9246292  51.7654610  28.3486032  77.9023743  49.7548771  63.4329081
  77.7629375  49.0716887  62.7771282  78.8287592  49.9810553  63.3499002
  71.9122696  48.4973955  40.2504921  71.6914845  49.1746140  40.8899117
  72.1105671  48.9807749  39.4484615  67.3389149  61.4627743  14.1208458
  67.3100996  60.7572889  14.7671354  66.5349674  61.3550091  13.6126304
  66.0985184  25.3811908  28.3944345  66.3917208  26.1444092  28.8921952
  66.4193678  25.5368733  27.5061488  77.0578861  24.5418167  41.6864014
  77.1936083  23.7869024  42.2590446  76.3074398  24.9987292  42.0662594
  61.2915134  22.2085285  38.1872058  61.9701624  22.1126938  38.8554025
  60.5025625  21.8503547  38.5940218  91.8791103  16.1464179  40.8147764
  92.2527122  15.6851780  40.0638342  92.6201630  16.6114950  41.2030888
  63.7065411  13.7926221  48.4000778  63.7378216  14.7232378  48.6219072
  62.7800035  13.5616076  48.4663725 104.8096848  23.1417751  45.8890915
 105.3721142  23.7633061  46.3512611 104.7707748  23.4748030  44.9925327
 105.2535915  55.9430790  60.9266758 105.9375381  55.9303093  61.5962124
 104.5970440  56.5510941  61.2665367  99.5039463  41.9086170  59.9823761
  98.5960484  41.7413855  60.2353096  99.6937561  42.7789402  60.3327179
  86.8882751  75.8533669  42.2010136  86.3641262  75.4448128  41.5121078
  86.7200089  76.7908430  42.1058655  76.2019730  42.7833939  34.8911119
  77.0954895  43.0128717  34.6357751  76.1441135  43.0351686  35.8127904
  85.9447956  64.7639370  36.7364001  86.3358402  65.1331043  37.5282550
  86.2201881  63.8472080  36.7382646  92.9981613  52.4670458  27.3608589
  92.3076534  52.1924019  26.7575312  93.1014919  53.4042549  27.1959591
  81.9159031  54.9198818  23.2929540  82.0208549  54.8002291  22.3490787
  82.1127415  55.8449364  23.4404707  89.7273350  44.7672033  41.6937971
  89.5460224  45.6003666  41.2588310  90.5459309  44.9170732  42.1667290
  73.4812450  37.3080754  55.0650644  73.6704016  38.2078218  55.3313446
  73.0631828  37.3947048  54.2083549  99.2394066  51.5513802  22.9756284
  98.6806488  52.2611427  23.2922602  99.9864769  51.5495300  23.5740638
 102.4690437  48.1008244  30.0015807 102.7353573  48.1944847  29.0869594
 103.0950356  47.4778557  30.3707242  83.0633831  59.7698069  38.9702606
  83.5261250  60.6024742  39.0639186  82.8431797  59.5160389  39.8665524
  81.4421272  57.1764135  61.0921621  82.2842884  56.7342091  60.9851551
  81.4881802  57.9261446  60.4988527  94.8353672  50.1814747  59.8931122
  95.3234100  49.7386837  59.1988611  93.9195824  49.9653769  59.7174025
  80.8453560  66.4476013  24.6692038  81.4827347  67.1224833  24.4357038
  80.4647732  66.7523289  25.4929280  96.0919380  76.2215853  62.1534634
  95.6143570  75.7704258  62.8495932  96.6402817  75.5426311  61.7602921
  99.3864155  14.4155169  69.9942541  98.9693546  15.1578689  70.4315281
  99.5899868  13.8041294  70.7020664   2.0078477  32.5040793  49.8372269
   1.7947647  31.6291642  50.1618052   2.4417996  32.3491740  48.9982224
  87.6986694  69.1453123  57.1671295  88.6505508  69.2452240  57.1804380
  87.3664284  69.9682140  57.5258541 111.9908047  41.9762611  24.7027779
 112.1467209  42.6811171  25.3313470 112.7370739  42.0191145  24.1048765
  81.2270451  38.2559228  34.4789600  81.3612080  37.7212358  35.2614832
  81.4874077  39.1380501  34.7440863  63.5129976  26.4990330  52.3351288
  63.3663988  25.5801725  52.1105480  62.7222347  26.7592239  52.8075933
  58.9829969  29.3539143  54.2528152  59.1676426  29.7917652  53.4218979
  59.8371077  29.0465784  54.5565796 102.5792980  28.9795661  56.2435007
 102.6000786  28.4153152  55.4705715 101.6649818  29.2535567  56.3155127
  89.1302109  44.1924953  47.4133635  89.8209095  44.1198301  48.0720663
  88.4030819  43.6834002  47.7716064   6.8359160  56.4401722  62.9766989
   6.2961435  55.7027006  62.6920748   7.7161884  56.0739422  63.0617189
 112.6983929  47.5521326  70.9066534 112.9150677  48.4697008  71.0720444
 112.6647663  47.4821806  69.9526072  94.0399647  34.4682050  35.9941769
  94.9561977  34.2005491  36.0656428  93.8602352  34.9284387  36.8140030
  93.0403996  43.6603212  32.9549861  92.4472237  42.9091406  32.9649448
  92.8590202  44.0977192  32.1231103  95.7529163  40.3703499  57.8444386
  95.2622795  41.0046673  58.3670664  95.9420681  39.6549582  58.4516144
  91.5134048  76.4446115  75.4300833  90.9957504  76.7916822  76.1565876
  91.0867596  76.7895555  74.6457243  76.1618614  28.2565069  48.0960274
  77.0184088  27.9714918  47.7777147  75.5343056  27.7430677  47.5873137
  75.6454849  72.7275038  52.1760416  75.8364677  72.3802328  53.0473423
  76.3597202  72.4035645  51.6272545  90.6737900  75.3859234  61.2043238
  89.8378563  75.5422258  60.7649946  90.4775524  74.7189856  61.8622875
  82.4600983  71.3811779  62.7036285  82.5155735  71.7177010  61.8092537
  83.0743599  71.9209671  63.2011700  65.7931900  31.5707064  54.4654036
  66.4107132  31.3103724  53.7819386  65.2893877  32.2842264  54.0738630
  76.7147303  35.6775594  40.5011463  76.4624310  36.5556145  40.2154922
  75.9707546  35.1248479  40.2618885  84.1787624  26.6223907  57.7089787
  83.3177853  26.9756079  57.9329920  84.5510387  27.2642660  57.1043015
 100.1337719  65.1202488  78.9968967  99.4644642  64.9322414  78.3389378
 100.9621620  64.9276781  78.5576820  72.0521545  76.4880610  25.5116677
  71.4821100  76.3172340  26.2614012  72.9322815  76.2857533  25.8289671
  76.1667061  49.5254660  58.1784153  76.2757063  49.8930454  59.0554762
  75.4071617  49.9840498  57.8192186  83.1897354  88.7274361  24.1347933
  83.9815712  89.2470455  24.2734528  83.2720661  88.3997440  23.2392073
  82.5191689  61.2918758  20.5582404  81.7819023  61.2815762  21.1686182
  82.1675014  61.6953611  19.7646666   5.2034795  66.4060068  61.4367485
   4.5910525  66.7947292  62.0612955   5.2814627  67.0580244  60.7403088
  71.9175816  65.1636124  52.3846436  72.5221729  64.7428036  51.7733955
  72.2770929  64.9680519  53.2499409  58.2974672  34.5091963  53.9487886
  58.3307123  35.1746726  53.2615757  57.7465296  33.8162589  53.5847282
  88.2127380  34.4694710  32.2607064  87.4602127  33.8785672  32.2885585
  88.5794926  34.3490982  31.3847876 111.3115501  54.8345184  42.3969603
 112.1877861  54.4529629  42.4504852 110.7216930  54.0806580  42.3960257
  77.6099825  23.8724780  18.4788752  76.7590666  24.2109919  18.7574041
  77.5667715  23.8733816  17.5226510  94.1301823  53.8626242  43.2908201
  93.7876511  53.6438608  42.4241877  94.8453426  54.4749594  43.1181335
  99.7639370  56.8790388  28.9138460  98.9474010  56.3968277  28.7835407
 100.4400635  56.3082409  28.5487795  74.8245144  53.1683254  56.9716024
  75.5803299  53.3129501  57.5408649  74.8616409  53.8845110  56.3376236
   2.5942382  64.9105263  32.3178792   3.2963142  64.3056154  32.5574684
   2.2950219  64.6033049  31.4621234  83.6675262  76.2123919  79.1513157
  84.3462944  76.4242697  78.5105228  83.6677742  75.2561092  79.1931629
  79.4245243  40.1254559  38.7545013  79.2900944  40.8430004  38.1353998
  80.3749275  40.0696182  38.8537288  10.4330683  47.2881079  22.0525694
  11.3320017  47.4088049  21.7466521   9.9095535  47.2580338  21.2517810
  88.5968685   9.7712570  23.3753538  88.1164742   9.3767464  22.6474667
  89.3990421  10.1095986  22.9775238  90.0832844  61.3678551  39.0348411
  90.4136467  62.1813917  38.6537147  89.8518753  61.6011953  39.9338579
   3.0668539  77.7306986  66.8047094   3.8503945  78.1838942  66.4934015
   3.3272880  76.8111515  66.8580008  84.3229294  56.7266417  15.2193904
  83.4030437  56.5339947  15.4008400  84.4229507  57.6515102  15.4448926
  67.3732948  10.3809714  61.3030577  67.5715780  11.1059058  61.8958378
  68.2054186  10.1916122  60.8695316  64.3106508  61.1346292  33.1604338
  64.9171829  60.5678129  32.6839185  63.8281393  60.5399847  33.7347269
  82.8006363  56.6656876  20.7997942  83.3651638  57.2080135  21.3506365
  82.2984409  57.2934437  20.2802205  91.8151474  67.5202942  58.7487078
  92.4549866  67.8481007  58.1167364  92.3410988  67.0747375  59.4128513
  94.9921513  34.1771579  22.1079087  95.5131721  34.0288210  22.8970647
  94.1133308  33.8782144  22.3414278   5.5776602  50.4978371  43.5821199
   5.6170785  51.4512968  43.5073042   5.2531332  50.2040052  42.7308989
  82.5023842  34.8002958  34.0668631  82.1124077  35.4851937  34.6100616
  82.6672459  35.2264929  33.2257891  97.1852398  71.1378384  57.0089388
  97.7509785  71.4999533  56.3269997  96.4993668  70.6732225  56.5294123
  95.0623798  55.9296989   2.4798785  94.8839283  55.5308199   3.3315116
  95.4148102  56.7945910   2.6896179  67.7219200  98.7895012  57.5006437
  66.8036318  99.0557003  57.5466681  68.0309057  99.1386986  56.6646862
  85.0986099  67.9830170  45.7718658  84.6539879  68.1222296  44.9357080
  84.6934795  68.6142254  46.3665676  93.7648010  79.3443537  56.4598179
  94.2955494  79.1557026  55.6858969  92.8761959  79.0930557  56.2079096
  71.2549543  42.8205729  51.4262295  71.8034554  42.0467281  51.5548515
  71.6131401  43.4711027  52.0301723 109.9089909  81.2652683  48.8401890
 109.1390991  80.9301662  48.3806229 110.4798794  81.5916824  48.1446505
 104.2916775  63.3333492  28.9187193 103.3894825  63.0521011  29.0709400
 104.2459583  63.8650656  28.1240988  85.9062576  52.0645094  41.1280584
  84.9612522  51.9983816  41.2652159  86.1664295  51.1932325  40.8290291
  87.9339504  22.1024346  38.4798241  88.7430286  22.5641704  38.6998653
  87.9943180  21.9495106  37.5368500  94.6425629  39.1244602  66.2528372
  94.9088669  38.5294247  66.9537258  94.1958141  38.5632610  65.6190348
  93.2079792  66.8123770  60.8815384  93.5738564  67.2475147  61.6516161
  92.9570580  65.9431744  61.1941910  98.9727306  26.4287376  53.9226866
  99.3037415  26.7742109  53.0936432  99.6459389  25.8124638  54.2111969
  88.3976746  75.5975199  59.6112919  88.3767128  76.5529156  59.5563936
  87.4858093  75.3308392  59.4946003  95.6196594  29.8163176  45.0040388
  95.3441620  30.5968046  44.5232296  94.8305988  29.2771125  45.0576925
  93.6831093  67.9434252  33.4124637  94.2573166  67.1865511  33.5293365
  94.2604160  68.7000751  33.5145783  63.4841013  95.0642776  15.7891417
  63.6233854  95.1540375  16.7318916  64.3149662  94.7258472  15.4554272
  97.4580574  51.9563150  35.2065158  98.1773376  51.3731098  34.9641585
  97.8811455  52.6777697  35.6720543 109.9595547  41.2277174  75.4026842
 110.1487350  42.1276569  75.1370621 109.0691471  41.0678101  75.0898981
  53.1084347  17.6518750  19.4724989  52.8611565  16.7717803  19.1887379
  52.3569822  17.9602206  19.9789286  78.2955265  57.8173208  49.8289871
  77.9136753  58.2395220  49.0594625  79.2283344  57.7477551  49.6258736
  64.8507929  72.2792196  31.8838501  65.3986931  71.8713379  31.2132716
  64.7076035  71.5873098  32.5295973  89.5708275  52.2836304  47.5669432
  89.4651699  53.0711889  47.0332623  89.6421719  52.6099634  48.4639692
  76.8552732  75.1809502  64.4891596  76.1095572  74.6074438  64.6658707
  76.5393877  76.0581827  64.7057581  67.2659636  37.8486323  56.1932659
  67.4022770  38.1289530  57.0982933  67.0771408  36.9125009  56.2583447
  10.9953570  59.8790932  71.4689207  11.0946858  58.9631128  71.7284346
  10.7992065  60.3393173  72.2849798  78.4862232  61.6354942  47.4655676
  79.2702150  61.3963079  46.9712162  78.8207340  61.9735670  48.2962513
  39.0990400  80.8501148  63.1816673  39.9890900  80.6672955  63.4826946
  39.0190697  81.8024826  63.2349062  74.9837637  85.3291702  52.8604507
  75.9283018  85.2410126  52.7327299  74.7227335  86.0181904  52.2494316
  90.6269741  17.4333632  19.7891843  89.9794865  17.3078883  20.4829049
  90.4362869  16.7416513  19.1556180 104.1443539  21.4102983  22.3076296
 103.9922714  21.4719605  21.3646030 103.7470436  22.2036839  22.6666903
 103.0675316  54.3181658  44.5187569 102.2752571  53.7886810  44.6092463
 103.0781746  54.5777845  43.5974979  65.6613684  74.0342283  35.2026677
  66.3881922  73.6173534  35.6654644  64.8812342  73.7578773  35.6835604
  89.7377968  38.2053614  39.9010658  90.3899956  38.1210732  40.5966043
  89.3547344  39.0721774  40.0356817 103.2075977  60.8052397  56.6751385
 103.6542511  61.6418886  56.5457010 103.5929108  60.2240658  56.0193968
  90.0010777  53.7342978  55.2298307  90.1922703  53.2512617  54.4258738
  90.5173492  54.5369053  55.1555443  97.3862267  72.5282955  68.3255577
  97.1717167  71.9992542  69.0938902  96.7876148  72.2177744  67.6462412
  95.8390903  48.3351040  42.7555037  95.8498192  47.4898291  42.3064756
  96.6233921  48.3248377  43.3041430  65.8424330  39.4392347  51.2867308
  66.4297438  39.9336886  51.8584061  66.0459900  39.7526479  50.4054976
  93.0215740  43.4584808   8.0125552  92.8483295  43.4584188   8.9539468
  93.0193138  42.5329065   7.7685434   6.9524175  49.1745567  77.9311848
   6.2121165  49.5738316  78.3880901   6.8841428  48.2416010  78.1340790
  75.6620789  55.0708723  44.9633503  76.3433743  54.9344730  44.3049717
  76.1146355  54.9700642  45.8007669   6.2050158  92.0990562  94.0517807
   6.9713414  91.7541599  93.5934925   6.5634394  92.5268173  94.8294640
  99.5112514  36.9429421  65.2199364  99.5555687  37.8687119  64.9807310
 100.4253864  36.6776681  65.3210497 105.1563740  36.2967944  34.5808339
 104.8794556  37.1753287  34.3205976 104.9246979  36.2373519  35.5076694
  98.9583492  28.5846329  79.7139168  99.5902348  28.3063340  79.0509701
  98.2776546  29.0410185  79.2193460  68.4541559  23.8791466  46.9011688
  67.6951027  23.3257508  47.0850801  68.1223202  24.7737789  46.9769907
  72.0497751  33.7189412  54.4865370  72.0516491  32.7649570  54.5649099
  72.9091740  33.9876270  54.8112965  91.3573837  67.8702593  51.5545464
  91.9894028  67.3568869  51.0513306  91.2320518  67.3713064  52.3617458
  74.7003031  24.4594955  39.2744994  74.1530991  24.0004921  39.9117684
  75.4252911  24.8116016  39.7908783 100.8255863  54.4452715  32.9184079
  99.9858952  54.7746229  32.5979757 101.2768269  54.1355896  32.1330976
 110.5531311  28.8711262  60.2063513 110.3503513  28.7052417  61.1270046
 109.8919964  29.5038915  59.9257278  99.7430992  60.2352476  72.7187538
  98.9352036  60.0224113  73.1859207 100.1197243  60.9643459  73.2114983
  81.1457443  72.6592302  37.6178551  81.9759846  72.3434448  37.2611880
  80.7284641  73.1142807  36.8863988  88.5773277  86.0716724  35.2113152
  88.2425690  85.8742428  34.3365645  89.1844749  85.3567696  35.4024124
  83.8504696  51.7373943  37.2009921  83.5036373  50.8727932  36.9809961
  84.4235802  51.9593811  36.4671636  57.5901031   3.4732410  94.3929958
  58.0641317   2.8170204  93.8822079  56.6672564   3.2489115  94.2736053
  80.7446957  12.7425909  23.6596489  81.4899063  13.3309901  23.5384870
  80.9580898  12.2452664  24.4491816  62.3846292  22.4545574  21.2937617
  62.3115301  21.7441130  20.6564569  62.3721457  22.0155835  22.1442795
  84.5680428  53.4979010   9.1512769  83.7374115  53.7696457   8.7608534
  85.1799297  54.1980267   8.9240015  75.3842926  85.9075356  90.2077293
  75.8308506  85.0642586  90.1321793  74.6406698  85.7339001  90.7848930
  93.3770180  63.8393688  69.1448402  93.6799431  63.8284540  68.2369041
  94.1699409  63.7034798  69.6635342  77.8540325  48.6732006  49.5643902
  78.5533524  49.3260956  49.5945883  77.1505547  49.0511465  50.0921249
  84.2538548  58.5606623  26.3133621  85.1055336  58.9693356  26.1588621
  84.0632629  58.7446117  27.2331810  81.9960117  47.2462749  48.2610083
  82.4054909  46.8521595  49.0312243  82.7133179  47.6913023  47.8097248
  81.2248039  42.8022337  43.3359718  80.5901051  42.1069574  43.5091209
  81.9657230  42.5976658  43.9064217 106.2705421  49.9720478  43.6452341
 106.0246277  49.4995975  44.4405699 105.6329536  50.6832123  43.5822916
  92.4810600  49.8000050  54.9231100  92.7860260  50.7013130  54.8188305
  91.9563484  49.8157930  55.7235241  85.2795506  67.0426893  31.3796473
  84.4879723  66.8501854  30.8770704  84.9579144  67.3017931  32.2431564
  73.0726433  49.7657537  51.7889118  73.0555534  48.8269281  51.6030645
  72.6072359  50.1640272  51.0533762 100.7854939  70.5504894  70.1215363
 100.4834461  71.1648321  70.7905531 101.1578941  71.1060810  69.4368029
  79.1767073  22.3910761  39.8209214  78.9031315  22.4505687  40.7362652
  78.4770155  21.8971944  39.3934345 100.8595753  54.5698166  61.4232969
 100.4673481  55.4276943  61.5858841 100.2176094  53.9451122  61.7607260
  85.7426357  75.8139658  36.4809537  85.7090473  76.2637997  37.3252010
  86.2894726  75.0448132  36.6409707  82.3040676  66.6509485  67.3547220
  82.9431629  67.0462513  66.7618227  82.7250195  66.6791201  68.2139301
  16.3964224  51.8295956  57.6280737  15.6198359  51.4640474  58.0517673
  16.1445272  52.7235699  57.3965693 107.7445316  68.9565468  42.1698523
 107.8709698  69.2407179  41.2645912 106.8003464  68.8202620  42.2484493
  95.0717163  17.0419526  53.1394768  95.1629543  17.2837257  52.2178173
  94.2992020  17.5220752  53.4376955  93.4793758  69.9803162  59.2632151
  93.3720970  69.6264267  58.3803272  93.6469364  69.2128420  59.8101568
   2.8356019  85.8671570  53.2496595   2.9674399  86.5530968  52.5951862
   2.1059769  86.1821938  53.7831640  74.2436647  77.8115654  28.6416793
  74.4793129  76.9714975  29.0353656  73.2882309  77.8401804  28.6922908
 101.6738892  70.4962063  54.8854876 101.3486385  71.0730410  54.1943264
 100.9990120  69.8230648  54.9729824  83.5708523  49.4797611  51.5677309
  82.7415943  49.9503851  51.4835787  84.2307091  50.1689577  51.6440916
  79.0508890  46.1496544  24.9487972  78.7522936  45.8515978  24.0895891
  79.0891933  47.1029711  24.8716092  60.1373148  22.8743982  45.2390337
  59.7216511  23.7057447  45.4677677  59.8913097  22.2804976  45.9482574
  97.2239971  56.8186283  21.2140799  97.1403980  57.7178192  21.5314054
  97.2045422  56.8984079  20.2604079 106.8471241  33.1084347  58.9368391
 107.6795101  32.6953220  58.7072611 106.7321491  32.9147196  59.8671532
  82.9542065  75.2110195  58.3583641  83.1055164  76.1473989  58.2297945
  82.0406246  75.0790215  58.1050158 110.6621361  72.5817680  46.2809420
 110.9313488  73.0189371  45.4730797 109.8752689  72.0936680  46.0383749
  83.0331707  34.3187594  52.8451967  83.1648350  34.9238110  52.1152592
  82.1380711  34.4887114  53.1387043   2.5244993  26.7601275  41.0708857
   1.6922270  26.3395739  40.8548069   3.1245965  26.4708209  40.3835583
  48.8532162  57.2073841  13.3646858  48.7821579  57.0105648  12.4306369
  49.6532917  56.7617798  13.6431611 110.9784889  62.2026396  51.1805868
 111.0739040  63.0225468  51.6652298 111.5744019  62.2932148  50.4369974
 103.8614178  40.8963013  72.0694637 103.9544392  41.5536308  72.7590275
 104.4075775  41.2211609  71.3536358  87.2098446  79.6811008  57.6688814
  86.5330029  79.5610523  57.0027781  87.2868729  80.6304741  57.7637005
  12.2612810  83.4507847  55.1210403  12.9541910  83.3006382  54.4779539
  12.5370157  82.9531479  55.8908224  87.7664566  52.7566719  52.3662138
  88.6871624  52.6334572  52.5971889  87.7706623  52.8661776  51.4153051
  74.3026209  34.5465922  39.4418025  74.0603828  33.6323595  39.2943740
  73.8453150  35.0295377  38.7534213 108.5343933  51.2583923  27.1146059
 108.1634521  52.1407366  27.1246743 108.1315231  50.8206367  27.8644705
  52.3591661  52.7134180  27.9600763  52.9385614  53.4146309  27.6620317
  52.9406500  52.0925522  28.3989811  97.0232010  50.2484846  40.5607271
  96.7400074  49.5182323  40.0104856  96.3550854  50.3069115  41.2436914
  98.9787960  54.4166994  49.9160290  98.9250088  54.3164349  50.8664417
  99.8540688  54.7721529  49.7618437  75.8544016  46.8023920  15.6015599
  75.6653118  46.3183212  14.7977233  75.0759029  46.6784573  16.1445272
  90.9735298  76.2925816  31.2854457  90.3390121  77.0033073  31.1932969
  91.6458225  76.4854908  30.6319642  84.1671467  61.7865610  50.4582357
  83.8030815  62.1789789  51.2517691  83.6594963  60.9848070  50.3328991
  78.5917759  84.8370934  23.0848837  78.5505867  83.9769840  23.5029292
  79.2704010  85.3067970  23.5697269  71.9243717  39.9840736  44.7977400
  71.5974188  40.3344536  43.9691448  72.5705862  40.6264162  45.0910568
 114.0487289  41.4531946  18.9561045 114.3650723  41.8611002  18.1500185
 113.5605526  40.6848764  18.6601388  98.6488533  68.2391930  70.0614548
  99.3401623  68.7536955  69.6447945  98.8478088  67.3336220  69.8235703
 102.4299335  66.7735052  60.9454584 103.0642605  67.4878550  60.8857393
 101.9288158  66.8295336  60.1318455  94.4772625  63.6613083  51.2195921
  93.7581921  63.9682674  50.6673717  95.2686024  63.8978958  50.7358170
 103.8137531  64.4755983  32.3092628 103.8852501  65.2982664  32.7933407
 103.1105518  64.6293020  31.6783023 104.0470219  68.4535360  68.2878733
 103.7636089  69.3477535  68.4783459 103.2467079  67.9998016  68.0235720
  92.4545288  19.6672654  27.3864770  92.4163342  18.7192571  27.5131798
  91.7910099  20.0154400  27.9820848 114.2692757  58.9076996  64.5162249
 113.9295959  58.1989336  65.0625753 113.4934521  59.4081497  64.2634726
  92.9961777  47.1724987  60.5630827  92.2554684  46.5669394  60.5334902
  92.7069950  47.9297018  60.0539112  75.9130335  59.8609304  -0.2601174
  76.5474367  60.2974319   0.3084204  75.8026505  58.9923429   0.1266671
  97.4928665  40.9593439  37.3220849  98.1815720  40.3957033  37.6745319
  97.7123165  41.0546970  36.3952708  73.0507469  42.8073645  57.6238108
  73.1179190  42.4778652  58.5199976  73.7212896  42.3248386  57.1403217
 115.9195805  48.6017036  25.7691598 115.4281712  49.1477919  26.3827777
 115.9616280  47.7441740  26.1923695  86.3311863  38.9469409  29.4595313
  86.5213203  39.4689822  28.6800742  85.6633377  39.4487619  29.9268460
  82.0177555  72.4364376  52.0155096  82.4751854  72.2851515  51.1884069
  82.2905350  71.7103148  52.5763702  91.8732643  61.8850040  16.2154782
  91.2329006  61.4959955  15.6197953  91.6301250  61.5518856  17.0792747
  86.1775208  61.5322399  53.2364035  87.1007442  61.2870550  53.1750345
  86.1121655  62.3462152  52.7370024  70.5235577  73.3194542  34.9278116
  69.7670412  72.8907633  35.3279805  71.0667896  73.5874414  35.6689715
 106.7884159  78.6218548  44.1220188 105.8897781  78.2923079  44.1305161
 106.8529797  79.1617966  44.9097586  72.2853994  71.1973858  43.6128187
  72.8740549  71.6831064  43.0350733  72.8676271  70.6681204  44.1579008
 105.5124092  52.3728752  15.2692461 105.0507164  52.7570343  16.0145593
 105.1896667  51.4727783  15.2256525 101.7469120  26.7970657  45.6807995
 101.5613365  26.1513758  44.9989796 100.8931255  27.1751094  45.8914185
  72.7025986  89.7459030  35.9862947  72.2683191  89.5465469  36.8156910
  72.0117521  89.6650124  35.3287053  36.0723209  69.7490358  21.4343309
  35.6167340  69.5516539  22.2526932  35.4509330  70.2802086  20.9363675
  70.3247452  56.4133501  28.3143759  71.0640240  55.8666945  28.5805845
  70.6619120  56.9335270  27.5850177 101.6364670  61.9653416  50.3219652
 101.7146301  61.0746956  49.9800920 102.4521542  62.3938751  50.0626373
 101.8865585  29.1498590  10.0201476 101.0359001  28.7153959   9.9580544
 102.4430370  28.6763620   9.4017941  20.1288533  77.6416588  56.5502977
  20.9630871  77.6261473  56.0812092  19.4788778  77.8411102  55.8765173
  89.6593666  81.8377686  21.1819696  88.7479973  81.8506145  20.8896017
  90.0169373  81.0288239  20.8159399 115.5628014  65.6765413  14.9925470
 116.2441540  65.0249577  15.1581717 115.5405521  65.7628679  14.0395069
  73.6372614  42.9617977  45.8171511  74.1912508  42.4898720  45.1953697
  73.4876966  43.8133144  45.4063177 106.0000992  56.5823126  21.2627006
 105.8946896  55.7251835  20.8498454 105.5703354  56.4929247  22.1133161
  11.2110889  49.6622753  43.2195902  10.4535902  50.1647568  42.9196882
  10.8534503  49.0514851  43.8639975 110.8633232  43.4430552  62.1467352
 110.5010414  43.7664032  62.9716158 111.0444450  44.2336607  61.6384363
  97.7940750  75.6948853  67.6693296  97.0989037  76.1377144  67.1826267
  97.3771763  74.9076223  68.0195379  14.6485996  33.9413333  36.6932082
  15.2510619  34.6633768  36.5145326  13.7848222  34.2900229  36.4728999
 106.2871361  90.3662872  37.5088096 106.4165401  89.5666981  38.0188465
 106.7955303  91.0313606  37.9729676 109.4937325  71.4830065  14.4183552
 109.3370438  70.9977341  13.6082983 109.0056133  70.9999561  15.0851643
  80.3221416  76.8691874  60.0407887  80.5491829  76.9724560  59.1166592
  80.6175423  77.6814079  60.4522133  88.6397552  77.8255749  55.6913614
  87.7589130  77.5670719  55.4201984  88.6962318  77.5578451  56.6086197
  76.7868996  64.6753025  55.1569605  77.4685049  64.0254164  54.9858093
  76.0050678  64.1575193  55.3489780  77.0636559  55.3149176  23.5714245
  76.4504194  54.9356222  22.9418945  77.8943110  54.8744726  23.3918190
 100.2707577  92.6673222  38.0613661 100.5746460  93.3670712  38.6394930
  99.3172741  92.6858616  38.1435561  68.2181978  43.8121986  23.0296564
  68.8090944  44.2111349  22.3909664  68.7983704  43.4521103  23.7004542
   4.1029969  83.2727432  58.2099581   4.3483606  82.7766895  57.4289608
   3.1928033  83.5262203  58.0565596  89.9436855  61.3278341  14.1511726
  90.4366779  60.7725334  13.5471618  89.0266228  61.1720371  13.9254534
   0.4340043  73.6308765  58.0345392   0.2799001  72.7061272  58.2277203
   1.1474428  73.8824224  58.6210203   3.0240622  48.3178997  38.8604116
   2.4667980  48.0595589  39.5945454   3.0193174  49.2748594  38.8812733
  96.3349247  55.3081703  42.4639797  96.7610359  54.8950577  41.7129803
  96.8326569  54.9998856  43.2212448  16.5039873  35.3774571  76.2288284
  16.1911392  36.1797667  75.8109093  17.3489308  35.6188631  76.6083336
   4.8748288  70.1397276  65.0177288   5.6217653  70.2670336  64.4328260
   5.2228212  70.3145170  65.8921337  16.0198224 105.2922344  59.8108149
  16.7784011 105.1155853  60.3672171  15.6598294 104.4272137  59.6149445
  93.8789654  94.0487766  46.5718651  94.4258690  94.1905403  47.3445463
  94.1900253  93.2203197  46.2069941 100.5286217  71.4738750  43.2778931
 100.6044483  70.5248642  43.3771753 101.2500858  71.8275261  43.7981319
 101.8032265  80.4003716   8.1365627 101.3744164  79.6842289   8.6050725
 101.3120461  80.4796314   7.3188269  11.4019895  63.9354706  28.1418157
  10.8746862  64.7178173  27.9801941  12.2004962  64.2656946  28.5536051
 111.9100189  65.3915691  57.9966688 111.0465717  65.5982304  58.3544016
 112.5260067  65.7718515  58.6229134  61.6015100  71.5353251  23.2011700
  61.5251303  70.6718302  23.6070919  62.2263050  72.0052099  23.7535024
 103.6151218 100.8839035  52.4841976 103.8183880 100.3817463  53.2733440
 103.1672001 101.6659451  52.8066969 107.4037552  41.2200403  32.7418232
 107.0005035  40.6173038  33.3665848 108.0210781  40.6780863  32.2504711
 111.3845348  77.8352165  61.3150835 111.7949009  78.3255148  60.6027365
 112.0804214  77.2682905  61.6476011  77.2011518  53.5603428  58.5636187
  77.0153475  53.1007195  59.3824291  77.4282503  54.4498873  58.8344860
 107.8646660  68.2118607  82.0705986 108.0550575  68.6677980  82.8904152
 108.2839489  67.3570204  82.1689892  61.1633444  73.3887386  15.5333102
  60.4893970  72.9532671  16.0552192  60.7957554  73.4257984  14.6502841
 104.2289543  60.8922577  39.8663449 103.8835335  60.0022268  39.9353123
 105.1311398  60.8239222  40.1787996  96.5631485  79.8683357  65.2937126
  97.2890186  79.2456055  65.3331518  95.9804344  79.5146990  64.6216869
 102.8814507  75.2458572  89.1648102 103.3044720  76.0916710  89.0169048
 102.6854229  75.2366686  90.1016808  85.0249672  74.6798754  47.0143938
  84.9111748  74.8482895  46.0790205  85.9393883  74.4100761  47.0996714
 111.7495823  54.4641113  45.9164429 111.2977409  53.9673138  45.2343369
 112.4187946  53.8643456  46.2460804  13.1744206  93.6130047  22.8631377
  13.1817794  94.1637802  23.6459708  12.2817671  93.2701874  22.8198647
  95.6056881  77.8422356  22.7514958  94.7782898  77.9174089  22.2761011
  96.1626911  78.5217810  22.3717713  92.2263145  50.6020546  35.8632898
  93.1340885  50.8085299  35.6406999  92.2441387  49.6767330  36.1076045
   3.8622853  70.0809479  26.8413019   4.1222563  70.0028276  27.7592039
   3.4229872  69.2533493  26.6455197  94.9184704  74.8921776  64.4584370
  94.6426678  74.0363550  64.7866631  94.3735027  75.5184317  64.9349356
 103.2909679  61.3345528  26.4905739 103.2336617  62.2261000  26.1469221
 103.2348728  61.4398813  27.4403048  15.2485514  77.8639555  76.4573002
  15.7097411  78.6296463  76.7997265  15.8628786  77.1400690  76.5790462
   8.5270530  46.4685965  41.0003710   8.9797914  46.7677975  41.7888784
   8.8148201  45.5626011  40.8881712  97.1461296  49.4771004  29.4077826
  97.5756836  49.8986626  30.1520920  97.5303459  48.6010408  29.3742037
 111.4257812  48.4569407  31.0160780 111.9574928  48.8248730  31.7218685
 110.8447266  49.1718626  30.7563019  96.5530968 103.7291431  37.1022487
  96.7207336 104.6031570  36.7497849  96.9505310 103.7417316  37.9729462
  69.2392397  85.6155777  69.7509336  69.1882753  85.4035091  68.8189125
  68.5813761  86.2993050  69.8773146  67.2961807  85.1930714  72.4563217
  66.7172194  85.1025867  73.2131910  67.4936533  84.2931175  72.1968746
  76.3069582  83.3487797  66.6797876  76.9012070  83.2540321  67.4241829
  75.5204439  83.7489223  67.0506048  75.1583815 108.9212132  45.7150316
  74.8721743 108.0238533  45.5445576  74.4008303 109.4611454  45.4895878
  83.2121372 105.3304672  36.9865227  82.5581360 105.2535439  36.2918282
  83.0162334 104.6063900  37.5811410  87.4950504  71.3563395  35.2281737
  86.8111801  70.7479525  34.9481273  88.2617760  70.8029127  35.3767967
  80.1376629  72.0558071  60.3788567  79.8755455  71.1379623  60.4501534
  79.9198771  72.4339628  61.2307978  93.4543133  64.4767332  32.7318263
  94.1192627  64.8940420  33.2794809  93.9383125  63.8299370  32.2183847
   1.5878716  41.4967775   3.0453089   0.7509038  41.3562250   3.4879848
   1.9306155  42.3028326   3.4313610 101.7485523  43.4031582  30.3687429
 102.5199986  43.6441517  29.8558784 101.8186092  43.9265728  31.1670923
 108.1979275  64.0703106  60.0381708 108.6758041  64.8631620  59.7947502
 107.3515034  64.1566706  59.5996141  94.3705845  57.1329403  32.3165703
  93.7515926  57.2816896  33.0313802  95.2169228  57.0265245  32.7508759
  66.6380358  67.7357531   7.9934263  67.1404600  66.9358063   8.1479937
  66.2692976  67.6215076   7.1175212  68.6497545  19.3356359  43.6735201
  68.0130196  19.5651937  44.3503523  69.4091797  19.0129411  44.1586781
  80.7925510  76.1737776  30.1963949  81.3823414  76.9044590  30.3820729
  80.1939297  76.5123844  29.5306325  15.2662122  47.5676870  52.4128056
  14.4818270  47.8395939  51.9363213  15.9923530  47.8191710  51.8420982
  67.4940014  58.3896971  16.4839172  66.8039036  58.3053064  17.1418512
  68.2526493  58.7094784  16.9722092  13.8313818  46.5776968  17.7708054
  14.7454715  46.3028479  17.8424406  13.3918226  46.1399412  18.4997690
 104.7174168  56.3336563  17.5703394 103.9012432  55.8662939  17.3923886
 104.6658993  56.5606451  18.4988081   7.7956158  85.3481293  51.9104862
   7.0110446  85.3111172  52.4575806   7.8475678  84.4815445  51.5073109
  97.5284100  92.6065922  48.3463430  98.1483364  92.7018738  47.6232624
  96.8265057  93.2248592  48.1431150  93.7792397  44.5432186   2.6405150
  94.7362041  44.5221663   2.6386011  93.5594559  45.4123974   2.9758593
 108.9150429   8.8680100  49.2437887 109.4150925   8.8841599  50.0598288
 109.0238953   9.7461551  48.8787603  90.8438492  48.8767147  51.1113358
  91.3516617  48.0654526  51.1258173  90.3166389  48.8150835  50.3147888
 109.3959236  54.2083502  59.6052694 109.0296078  53.3398676  59.4385910
 108.7607098  54.8136663  59.2227459  47.8202105  89.8458862  38.3353257
  47.0991611  89.6168995  37.7489066  48.3251619  90.4987144  37.8504872
  71.0603189  77.3044920  31.7233133  70.7422876  76.9287443  32.5442266
  70.2735090  77.6372433  31.2915254  15.3344405  46.0423660  41.0428333
  15.4496276  45.9762526  41.9907713  16.2209809  46.1594868  40.7014227
  97.4551582  65.4870939  38.8604116  96.9636440  66.2341595  39.2017865
  97.8725338  65.1025820  39.6312428  90.1778412  73.8477945  77.5131178
  89.8425293  74.3167686  78.2772255  91.0648537  74.1872692  77.3939800
 108.1410599  40.7561302  43.4908390 108.9533615  40.7466459  43.9971113
 108.2820034  40.1090336  42.7997351   8.1043428  49.6004677  29.8968387
   8.4961504  50.3494740  30.3459620   8.7682188  48.9132214  29.9533463
  85.1014519  89.6221447  55.7365084  85.9318924  90.0980759  55.7455635
  84.9126244  89.4523430  56.6594124 111.2516308  56.8617058  16.0288489
 111.6030025  57.1637297  16.8664336 112.0205879  56.5760612  15.5355489
  98.1861687  59.9021101  40.0178003  98.2124233  59.0056229  40.3522491
  97.3968887  60.2795935  40.4061127 113.1665707  61.4457893  78.8084316
 112.5434017  62.1678066  78.7273264 113.3099174  61.1509609  77.9091215
  93.9605522  64.1939020  66.3306427  94.6178436  64.8857546  66.4050961
  94.2573929  63.6598063  65.5938530  83.8062954  56.4829493  60.1760769
  83.4363651  56.1649942  59.3524981  84.5922375  55.9523153  60.3062820
 102.6733780  88.0231571  62.4583626 102.9931355  87.2512150  61.9913530
 103.2657433  88.1139755  63.2047462 113.0775738  67.0008802  55.9694147
 112.4348736  66.5648365  56.5289021 113.8717175  66.4745188  56.0616732
 105.6318951  57.1391678  94.7361946 105.6978798  58.0935144  94.7029495
 104.9783802  56.9209814  94.0717030 110.1193619  45.4377985  40.0115967
 110.4478359  44.6863365  40.5051994 109.6984673  45.9911060  40.6695747
 102.0111561 100.8357239  44.1915655 102.1226788 101.7856693  44.1541290
 102.1607780 100.6130314  45.1103973  94.1829586  67.8988314  40.6709909
  94.3429947  67.8558493  41.6137362  94.9715328  67.5258446  40.2769375
  69.1935968  76.0889626  50.5355120  69.3803167  76.5470982  49.7160721
  70.0495625  75.9814644  50.9502363  82.5879192  95.9901047  29.4446945
  83.4966755  96.1779785  29.6794271  82.0919704  96.7294598  29.7962809
 114.3220806  67.1017742  51.4309931 115.2590752  67.2825527  51.3561916
 114.2263508  66.2013578  51.1206436  74.4723892   4.9074364  81.2140942
  75.0868273   4.4980651  81.8232918  73.8852596   4.1979146  80.9531498
 101.8440628  62.3500490  40.1496887 102.3387241  63.1634855  40.0503397
 102.4696732  61.6605949  39.9272299  71.9012403  19.5102847   2.6709530
  72.2551727  19.4440329   1.7840628  71.3741398  18.7185216   2.7782485
  10.1772237 105.1871586  25.7045650   9.5041186 104.5330811  25.8925676
  10.9844053 104.6808052  25.6134415   8.0590469 103.6983967  26.4074349
   8.1392431 104.3882084  27.0661831   7.4896467 103.0446911  26.8132591
 103.9688206  62.7206421  49.0950584 104.5238590  63.4186268  48.7472248
 104.5621204  61.9786310  49.2119169  48.5908461  93.7214565   5.7188988
  48.1209850  92.8992939   5.5792469  49.4314051  93.5946846   5.2788740
  99.8045921  86.2620068  75.6340075 100.6650352  86.4279461  75.2488565
  99.2068863  86.8170547  75.1330996 107.7083683  11.0490787  51.6367912
 108.6551952  11.0872889  51.5015268 107.5586224  10.1950049  52.0422077
 114.2073536  73.8162231  56.2670803 114.7877789  73.1693935  55.8658886
 114.7309780  74.2064810  56.9668961  12.0990181  82.0874882  43.6683226
  13.0095887  82.3668671  43.7633848  11.7005563  82.7554226  43.1103563
  97.2442150  74.9722385   5.3655273  97.2261238  74.0179968   5.2925396
  96.4156151  75.1957750   5.7894242  86.7354012  51.0572577  24.7697377
  86.0847378  51.2392616  24.0916872  86.9429970  50.1293564  24.6595740
 104.6801949  61.3764524  62.5166559 105.0108242  60.6380224  62.0051527
 104.7473621  62.1263933  61.9256258  56.7944098   3.9466798  18.1453109
  56.9097614   3.5756162  19.0200889  56.6647005   4.8827744  18.2974088
  54.0143013  24.8427510  45.9984827  53.5140181  24.5240307  45.2472401
  54.2404413  24.0521789  46.4884710  81.9629765  73.6090231  29.0065050
  81.9740868  74.2704201  29.6983576  82.8604603  73.5951710  28.6739731
 101.3032913  60.4763603  46.1353350 100.5160236  60.9879208  45.9489346
 101.6923904  60.3138924  45.2760077  63.3581924  63.1211281  58.3177996
  63.2627964  62.1802855  58.1696606  62.4617481  63.4566593  58.3117151
  94.2516708  78.4137535  71.8577385  94.3700218  79.0061378  72.6002359
  94.8912144  78.7104702  71.2103033  71.3102484  97.1131516  46.2164068
  72.1628237  96.7984867  46.5169621  71.4534998  97.3562050  45.3017282
 114.5542908  81.3640594  48.9588976 114.2661095  81.9614029  49.6490908
 113.9060307  80.6598282  48.9655495  85.3994083   9.2114085  88.5672092
  85.8671856   8.4658110  88.1910419  85.4567242   9.0775508  89.5132732
 109.8393440 101.9142532  41.3112020 108.9077091 102.1090508  41.4128971
 109.9765778 101.8880367  40.3642511  96.1754990  54.9857378  38.6124229
  96.2743568  54.0342665  38.5783267  95.2813435  55.1225662  38.9254665
  92.1059895  56.9055653  37.7489567  92.3513603  57.7400064  38.1486273
  92.9333687  56.4342070  37.6515079  90.2623749  73.3532667  26.3848281
  91.0107136  73.2990742  25.7904458  90.2771282  72.5251293  26.8646216
  73.3866501  85.0622272  39.5441246  74.1158104  84.8961353  40.1415920
  73.1944561  84.2079544  39.1574788 102.8441525  65.8713675  35.1285291
 102.7759075  66.4211273  34.3479300 102.0349598  65.3600788  35.1328850
 103.9201450  99.5790768  54.9277163 104.4032383  99.6275425  55.7526445
 103.8035107  98.6416531  54.7731781  78.5569048  52.7645731  44.9675417
  77.7370071  52.4582958  45.3550911  79.2156887  52.6046467  45.6433105
  88.8391685  70.3520679  39.6391320  89.3804836  69.6031713  39.3893886
  89.0854836  71.0417700  39.0227962  74.3667078  38.7373543  32.2291517
  75.2959108  38.6334968  32.0241475  74.2406607  38.2319140  33.0321932
  80.2359867  38.4835482  21.9652653  79.5549536  38.1207108  22.5316334
  79.7752666  38.7266922  21.1622405  63.4202099  71.6722107  48.5923958
  62.8598404  72.3127985  48.1543684  63.0013847  70.8292007  48.4187412
  11.1966228  74.7445297  66.5665340  10.3011858  75.0574112  66.4379692
  11.5093625  75.2224493  67.3346615 112.9803753  75.4071760  34.4653940
 112.3856640  76.1525154  34.5492053 112.5394249  74.6955633  34.9295115
  92.2199631  55.5568123  47.3440361  91.9582558  55.3844738  46.4395809
  93.0692196  55.9919500  47.2688723  86.9814014  86.9996166   2.3453921
  86.0571194  86.7508125   2.3509525  87.4325180  86.2540627   2.7414653
 105.2687836  95.9972668  44.0586042 104.9578190  95.3345394  43.4419060
 104.7807026  96.7875099  43.8272333  22.3674870  59.8364687  25.4964066
  23.0441070  60.4084349  25.8587146  22.3862624  60.0096321  24.5551896
  72.5828552  84.3882561  80.8899307  72.6821899  83.5936642  80.3655338
  72.8503132  84.1284084  81.7715073  87.2097683  62.7858400  60.6808996
  87.5288391  62.8952217  61.5766954  86.3454151  62.3870850  60.7815313
 109.3848515  60.1125765  51.2507915 109.8156834  59.6005726  50.5663443
 109.9750233  60.8501387  51.4054966  95.0791740  47.5099897  21.0774422
  95.5113983  47.0822763  21.8166852  95.7811928  47.9828405  20.6304431
   2.9044607  75.9007597  36.4222169   2.3062752  75.4157495  35.8537388
   3.2721648  76.5810919  35.8581471  83.2213116  79.8715353  71.9713593
  82.3465919  80.1122856  72.2765350  83.7537384  79.8459053  72.7664089
  98.7110996 108.3327579  35.2378750  98.1443596 108.3884907  34.4685030
  98.7293816 109.2238522  35.5869436  93.3207226  70.6172800  35.4175830
  92.7715874  71.3967323  35.3330755  93.0969429  70.0828838  34.6556282
  64.6376514  89.7544956  44.2163229  63.8958549  90.3594112  44.2235041
  65.3935432  90.2998447  44.4341612 105.9923172  82.4504471  48.5139132
 106.7278099  82.6372242  49.0973520 105.7153606  81.5660000  48.7532330
   2.3270541  58.3383894   6.2922615   2.2185913  57.5200558   5.8077067
   2.5833994  58.9779806   5.6278503 103.5971546  79.3850565  13.9250898
 104.3562603  78.8180113  14.0609181 102.8430271  78.8049936  14.0302205
  72.2854137  63.7676859  46.1828089  72.4443769  64.6991014  46.3358784
  71.9723225  63.7234592  45.2793407   3.2344171  65.6236124  68.4370661
   3.4471565  66.3874292  67.9008198   4.0154117  65.0722694  68.3891153
  17.1396196  64.8464203  67.3070335  16.2004220  64.7135305  67.4354124
  17.5532317  64.1901112  67.8677607  27.5022054  31.8260169  33.7897944
  27.6603937  30.8978319  33.6175108  26.8995094  31.8322778  34.5333982
   0.9502874  72.6391315  55.3075981   1.4401077  72.7421379  56.1234999
   0.5669231  71.7640829  55.3672314   3.3353642  74.7442198  24.8393798
   3.0429807  75.0272608  23.9729881   2.8952169  73.9056969  24.9785948
  97.3479652  45.0360680  47.1691656  96.6465187  44.3859720  47.1294308
  97.2523499  45.4391479  48.0320740   9.5010865  62.4107981  32.4230409
  10.3194356  62.8840065  32.2726655   9.7053069  61.7974758  33.1289887
 113.2892513  76.1263800  62.1172905 113.1819248  75.1949406  62.3099947
 113.9597893  76.1540365  61.4347601 105.9547901  66.5370321  68.9704800
 105.3852558  67.2353125  68.6475897 106.3898754  66.9166040  69.7339344
  19.6732354  88.3931637   2.3130143  18.8208175  88.7347794   2.5830364
  19.5144415  88.0064583   1.4519247  76.9182491  66.3916874  59.4955015
  77.2254753  66.3274813  60.3997803  76.5395164  67.2685432  59.4329023
  99.9028683  87.9186344  22.5862432  99.4441605  87.8341293  23.4221101
  99.9722290  88.8628864  22.4454808  99.2601299  47.5973415  30.6322980
 100.2122974  47.5015974  30.6115937  99.0281868  47.4858332  31.5542531
   1.7002513  86.0680199  72.9708052   2.0279874  86.8305683  73.4476089
   1.8190429  85.3370857  73.5773087 106.5223408  79.7541666  10.5414653
 107.3411274  79.3156052  10.7727110 106.7790985  80.6567669  10.3527284
  99.7218418  46.1818695  49.7255564  99.1400242  45.4817104  50.0213671
 100.5122852  46.0761309  50.2549362 111.9051552  55.7161617  33.8873076
 111.1656761  55.5812502  33.2946754 112.3957348  56.4396667  33.4973121
  81.5708160  40.8906412  30.4283452  81.0880756  40.9228420  29.6024179
  82.1245575  40.1136112  30.3519773   2.0573047  21.1216903  27.9444361
   2.7864733  21.7227125  28.0971313   2.3570348  20.5577469  27.2314405
  13.8193321  81.3617420  23.3617711  13.2391894  81.2222099  24.1102338
  13.2453501  81.2970161  22.5984955  82.4537086  44.1869450  18.7489676
  81.9035912  44.1723728  17.9657745  83.2201385  44.7004700  18.4937978
  89.5372200  82.1278572  37.6419568  89.2358112  81.5552139  36.9366503
  89.2066097  82.9942894  37.4048352  75.2534199  67.4137926  52.9531384
  76.0716009  67.9085875  52.9085064  75.0448561  67.2130203  52.0407629
  88.4498787  36.6593337   0.5736761  87.7182770  37.1715641   0.9180789
  88.1937122  35.7484937   0.7185276  88.6739159  58.8438559  42.2248840
  88.7162304  59.5862770  42.8275871  88.2868481  58.1373882  42.7419090
 105.3851509  68.0914116  73.4416199 104.9595737  68.6945868  72.8322792
 104.8415852  67.3038769  73.4179306  86.5456772  84.6076679  43.5179424
  87.2025585  84.4183922  42.8479338  86.7560863  84.0098572  44.2352867
   6.4549923  91.4829350  74.0841627   6.7233294  92.2603893  73.5944796
   6.6983491  91.6745090  74.9898672  85.3902340  61.2977839  41.7712259
  85.0914669  60.5721092  42.3192835  86.2159634  61.5740442  42.1688271
  98.6674500  17.7100980  41.5438032  99.0380001  17.4230754  40.7092142
  98.4381962  16.8981612  41.9959497  70.7225847  69.6736765  77.5729942
  71.2166977  70.4420614  77.8587627  69.8299360  69.8358393  77.8781462
  80.5065632  62.9144239  49.5004749  80.9651947  63.7127352  49.2385769
  80.5324554  62.9262543  50.4572487 100.9697533  80.3784847  25.7542920
 101.6121864  80.6622505  26.4046669 100.9212399  81.1048603  25.1327920
  11.2283468  69.1585922  64.3436289  11.3551903  69.8120260  65.0314951
  10.6571293  68.5009336  64.7404051  89.3666172  55.0383711  32.5609159
  90.0277328  54.5088005  33.0066943  88.9400768  55.5297470  33.2629418
 109.8192692  20.0342536  37.3586535 108.8806725  19.9505818  37.1905231
 110.0778675  19.1797388  37.7038527 113.5525036  68.0766916  68.5138083
 113.3082104  68.9970446  68.6112928 113.6587143  67.7607441  69.4110966
  82.9913807  73.7599182  55.6083345  82.8944111  72.8126574  55.7059431
  83.2017708  74.0711212  56.4887428  79.9200773  85.7974243  25.0398111
  80.8697128  85.8765984  25.1301455  79.5933914  86.6898823  25.1539421
  11.3186646  45.3375483  32.9953647  10.6239223  44.7838974  32.6389456
  11.9944048  45.3401279  32.3174262  86.5048122  43.2697439  51.6998386
  86.1744881  43.9495611  52.2871828  87.4074841  43.5298538  51.5161133
  51.6035271  44.2097187  57.2534513  51.4758348  44.5283175  58.1469965
  52.4604893  44.5509386  56.9976807 101.7630863  90.0934696  34.2194915
 101.9003296  90.9639835  34.5931315 101.4011288  90.2606773  33.3492875
  79.1869974  79.0263700  17.1631575  79.7895432  78.4781981  17.6658309
  78.5789919  79.3743992  17.8154099 110.2904510  91.9989872  23.4112883
 110.8169937  92.7971935  23.3682227 109.5412445  92.1752739  22.8422189
  83.3465481  52.2748613  39.9565458  83.8485050  52.2965431  39.1418028
  82.9744244  53.1535244  40.0320625 102.2674370  75.1067162  48.1432867
 103.1201744  74.8621321  47.7837658 102.0878887  74.4414616  48.8076878
 110.4942989  90.1568985  39.0902638 111.0930252  90.6122017  38.4982681
 110.4311371  89.2713070  38.7325454 101.4246941  93.5811138  19.5725441
 102.2784233  93.1969166  19.3731213 100.8061695  92.8582859  19.4668043
   8.6406547  74.5966148  15.3021812   8.6143303  75.3088808  14.6632636
   9.4068724  74.0797377  15.0532234  93.9651489  56.0090160  51.5767622
  93.0837536  55.6818485  51.3969326  94.4831562  55.7290602  50.8220911
  93.0414295  35.1292682  62.4076557  92.3004913  34.5931292  62.6901150
  93.6932278  34.4968200  62.1053314  41.7310238   6.2011176  37.8409600
  42.2982645   6.1654645  38.6111569  42.3236418   6.3999385  37.1160436
 114.8465824  14.6454895  61.4059830 114.4493389  13.7910914  61.2373638
 115.2125168  14.9102390  60.5620480  98.5397434 106.2465477  40.6685543
  97.7083683 106.6930485  40.8288336  99.0919304 106.9098377  40.2545929
  74.4364548  82.8923607  72.2191858  74.8509121  83.7547112  72.1909142
  74.4193792  82.6651859  73.1488800 101.5322685  78.0265284  28.5957789
 101.2545013  77.2316170  29.0509653 101.5588284  78.6967134  29.2786980
  16.9658267 108.0945492  61.9215107  17.2453773 108.9840984  62.1378040
  16.3005662 107.8863907  62.5775051 114.9434185  67.7233028  35.4117560
 114.9570179  68.1166029  36.2843156 115.6854248  68.1224775  34.9575233
   8.6536270  70.8224773  40.6390238   7.9393303  70.3925371  40.1687431
   9.1997403  71.2016582  39.9503946  67.6996946  98.6443806  78.2538271
  67.7997112  99.0761185  79.1022539  67.6537704  99.3630886  77.6232910
  86.5631104  53.1944180  38.7073755  87.1126270  53.8262939  39.1710424
  86.0020924  52.8207827  39.3870044 108.1546211  72.3552608  44.8770666
 107.8236580  71.6485643  45.4313898 108.8145161  71.9369078  44.3241167
  14.9963856  56.2134123  24.6663475  15.0242865  55.2692747  24.8214412
  15.7294631  56.5613079  25.1740861  75.2000666  94.0673923  53.4043074
  74.8932457  93.2283020  53.7478352  74.6110249  94.7146988  53.7919283
 109.6204662  34.5101166  54.6762466 109.5722580  34.2677188  53.7515020
 109.3832493  33.7106156  55.1460981  69.7487402  71.3035107  42.6251030
  70.5641317  70.8292723  42.7877855  70.0071287  72.2249985  42.6070213
  81.0319042  80.8573246  68.2052374  80.5744171  80.8459282  69.0459538
  80.7761192  81.6881752  67.8046179  23.2114244  62.3804760  23.0636501
  22.8634524  61.5488195  22.7419472  24.1511083  62.3308134  22.8882718
  29.6610045   1.1328352  66.9180822  30.4570723   0.6236844  66.7655230
  29.4306421   0.9500059  67.8289795  94.4546986  56.8416405  23.6727571
  94.5230579  57.6770210  23.2104850  93.5550690  56.5543890  23.5165787
  20.5455065  74.5389318  14.9173415  19.9768877  74.6298027  15.6819642
  20.8076453  73.6183357  14.9218547  75.2103806  99.0091515  27.6395273
  74.6732187  99.8012161  27.6215386  74.6805286  98.3712292  28.1175828
  90.7294083  74.9243784  23.0124688  91.6344357  75.2247858  22.9293680
  90.2026081  75.6657267  22.7139449  86.7456245  63.8229704  32.9725194
  85.8200455  63.5799742  32.9948592  87.1953106  63.0274010  32.6877666
  88.7740898 106.1464787  12.7562070  89.2440891 106.9285870  12.4670184
  88.0083179 106.4850521  13.2200992  97.2692394  71.1060858  51.4253950
  97.1882534  70.9353209  50.4870367  97.1708965  70.2463961  51.8346548
   8.5396290  65.6778288  58.4082222   9.4724840  65.7245445  58.6175823
   8.1790620  65.0713778  59.0550947 109.3044376  80.6068707  54.7063541
 110.1338863  80.8623409  55.1100492 108.8670540  80.0767326  55.3726006
 102.7019215  73.8596010  71.4066839 103.0343437  72.9643154  71.4714193
 103.1928349  74.3458557  72.0691013  98.7384605  84.3321991  45.1536131
  98.9194584  83.8546944  44.3440056  99.4817066  84.1303444  45.7220030
  23.8171315  75.9355736  55.8760977  24.0871596  76.0052395  54.9604225
  23.2599568  75.1577139  55.9029818  17.5588489 107.2769547  45.1421547
  18.4431565 107.4990940  45.4335022  17.6768279 106.5096283  44.5822191
   0.3538679  47.1317291  45.0763083   0.2919454  46.7950106  45.9701872
   1.1325870  47.6883078  45.0834370  96.1232662  80.5165958  20.1406240
  97.0549297  80.4012394  20.3274822  95.9636211  81.4492130  20.2854514
  87.4058819  87.3852253  67.2103643  87.3170280  86.7838001  67.9497004
  86.5322685  87.4161148  66.8204021 105.3905582  88.0508614  76.0690451
 105.9593582  87.9916573  75.3014565 105.9856319  87.9727459  76.8147135
  82.2177505  63.1661844  56.5367556  82.8006363  62.4377108  56.3227463
  81.8839264  62.9574728  57.4092436 107.6570225  84.9464130  13.6378145
 106.9009495  84.6021461  13.1623590 107.9587269  84.2117882  14.1721654
   0.3398804  12.4350810  56.2491131   0.7076807  12.3627734  57.1298647
   1.0919202  12.6330602  55.6910133 112.9132462 103.5862446  32.7235508
 112.0045662 103.3619690  32.5229740 112.8689289 104.4768906  33.0714273
  75.8336401  73.4406471  16.5460479  75.2693081  74.0633488  16.0877836
  76.7019415  73.5816717  16.1686897 104.4969845 107.5226021  69.4993734
 104.7407913 106.5989685  69.5601130 103.6786079 107.5221443  69.0028954
   7.6178783 101.5938663  75.2765512   8.3090168 101.5041351  75.9326839
   8.0739015 101.8835926  74.4864035  84.8972893  77.5304794  30.1760077
  85.1574898  78.3903837  30.5063009  85.6474209  76.9655991  30.3615880
   3.8471103  94.9475384  14.2112112   3.0668682  94.5486736  13.8260317
   4.0678957  95.6645203  13.6167240 101.4216328  81.4835167  70.9606171
 100.7205772  81.8278694  71.5139532 100.9678841  81.0996532  70.2102947
 104.3822002 104.5517063  45.7893324 104.5582867 104.7574615  46.7074251
 105.2318096 104.6389008  45.3571320 115.5993652  78.1617117  44.2619610
 115.5211449  77.2416925  44.0096235 114.8954582  78.2967377  44.8964024
   1.8293941  80.8038807  63.2204866   1.2873124  80.9298325  63.9992762
   1.5399274  81.4857960  62.6143312 109.9950504  52.3559618  93.2922268
 109.3025112  51.6978931  93.2325459 109.5340633  53.1936073  93.2468033
  98.1661129  68.9484453  87.8779793  97.6876545  68.2298040  87.4646282
  98.3257484  69.5697927  87.1675682  95.3063679  81.2990284  41.9354343
  94.7077084  81.8088627  42.4812460  94.8264980  80.4939175  41.7411137
  83.1322193 100.1702976  56.3577271  82.3264694 100.2459717  55.8465767
  82.9504776 100.6528473  57.1641731  81.3421440  79.0074492  61.4155769
  81.4439678  79.2304087  62.3408604  82.1964455  79.1976213  61.0279703
  90.8249474  94.9588776  53.9794493  90.4373264  95.7991982  54.2240953
  91.7658520  95.1308060  53.9425802  72.5348616  78.7437677  50.5597591
  72.9532385  79.1926146  51.2944269  71.9613361  79.4041204  50.1708698
 110.0411224  84.7424603  30.8011222 109.6961498  85.3246880  31.4780521
 110.7892418  85.2155495  30.4367852   0.0185230  55.3322458  38.5210443
   0.9429869  55.5572653  38.4163404  -0.4451830  56.1602211  38.3958793
  42.7708101   2.3227677  40.9010410  43.3313274   1.6148555  40.5833673
  42.8130007   2.2520806  41.8546963  94.9484730  58.5342407  56.0283232
  94.7683239  58.1859589  55.1551247  94.8638153  57.7785873  56.6097450
  27.0179391  85.6379509  14.7828162  27.4411559  86.3945580  15.1885974
  26.2046528  85.9859562  14.4171774 112.8493023  62.6705217  49.2028475
 113.3851147  63.4276676  49.4392157 112.7553940  62.7309656  48.2521868
   3.2855517  96.3006878  16.6042125   2.3618957  96.4949036  16.4449239
   3.5303742  95.7042885  15.8966839 112.9410934  65.1452255  53.1875610
 113.3846664  65.8816099  52.7665997 113.5904598  64.7895336  53.7942171
   7.9257309  86.1867142  61.2487173   7.1338499  86.6506672  61.5205622
   8.2805562  85.8229065  62.0598745   8.0171305  83.0171967   6.8663818
   8.0374765  83.9741039   6.8787855   7.1604204  82.7911282   7.2285610
  84.8682499  89.3337631  35.0269890  85.0223637  89.9709129  35.7244945
  83.9282417  89.3893719  34.8551941 111.6384411  91.6246128  36.8680024
 111.9464016  91.2556362  36.0402036 112.4380112  91.8754387  37.3306084
 103.2796764 102.1178532  46.9920492 103.7962246 102.8396511  46.6336966
 103.7090969 101.9041729  47.8204012  31.5456796  77.7448893  25.9404039
  31.3874817  78.6092854  25.5609012  30.7674766  77.2367334  25.7114792
  97.4245262  60.2912807  30.2397776  97.6217461  61.0510349  30.7875991
  97.1126842  60.6648302  29.4154906  21.3576460 104.9441338   9.0851706
  20.8879137 104.2642689   9.5682466  20.7138181 105.2849865   8.4642541
  37.3344898   2.2933577   4.6830574  37.9563689   1.5801229   4.5388636
  36.8674278   2.0462021   5.4811800 111.4666176  68.5319519  44.3550968
 111.9698524  67.8579617  44.8119593 110.9782505  68.9769506  45.0477028
 112.4992275  93.3482075  30.3372645 113.1890488  93.5450840  30.9710002
 112.8402996  93.6721325  29.5036149   7.8460854 104.9755573  66.7768192
   7.1739686 105.2295303  67.4092627   8.1499398 104.1202450  67.0807076
   1.1843717  85.7569599  47.6622343   1.2340534  84.8077297  47.7750301
   1.5986280  86.1135387  48.4480286 107.6067543  61.0131645  25.5670333
 108.4106636  61.4973259  25.3784680 106.9346619  61.6892290  25.6534052
  82.8462791  90.3179455  53.0866385  82.1261215  89.8193836  52.7005816
  83.4716034  89.6524239  53.3734751 104.7115326  79.7863579  18.9800191
 104.7911358  79.3458176  19.8260808 105.5899429  80.1219749  18.8011467
 105.2832890  87.9779053  58.4576607 104.5907593  88.0492973  57.8007412
 105.6717300  88.8520622  58.4921598   9.5398343  93.0645466  53.1305981
  10.4433453  93.2007408  53.4158230   9.4194078  92.1154594  53.1614542
   0.3068974  65.1066303  70.0650835   0.8326354  64.4945049  70.5799961
   0.9497610  65.6436729  69.6018982 111.3700390  70.9836864  20.2458477
 111.2635994  70.8079147  19.3109632 111.8141270  71.8308973  20.2812314
 104.6245480  93.8265705  79.5376396 105.3440857  94.4409180  79.6827984
 105.0410843  92.9647541  79.5409060   7.1980023  99.5400524  67.0890284
   6.3737363  99.2482662  67.4784899   7.8281838  99.5061779  67.8087234
  41.2996864  16.4117265  59.3372154  42.1455193  16.7955065  59.5685339
  41.2460947  16.5057111  58.3861494  97.4836254 105.8975601  46.3477230
  97.3338127 106.7698765  45.9832287  96.6901684 105.4079437  46.1310720
 109.4115543  74.9212360  27.4851274 109.8859978  75.6065750  27.0145464
 109.9526596  74.1388941  27.3784828  85.7887077  64.5762873  59.2089987
  86.5468121  65.0690746  58.8948870  86.1599922  63.9041376  59.7804832
 112.9821682  81.5619183  62.4982834 112.3495770  82.2651005  62.3513174
 113.7784481  82.0114040  62.7813816  21.2702703  75.5035877  19.8487365
  21.3521886  76.4255667  19.6048546  21.0261941  75.5213976  20.7741237
  26.1596727  66.1832047  41.1662817  25.7716107  66.8263769  41.7595530
  26.0463643  65.3450155  41.6144228 114.2551994  70.1518202  41.2369919
 113.3166790  69.9716663  41.2912321 114.5701694  70.0541162  42.1355915
  42.5292826   0.4886779  56.5237713  43.0250645   1.3046965  56.4563465
  41.6184139   0.7686123  56.6142368 107.0082378  89.0231133  63.2871151
 106.1531448  88.8628483  63.6863184 107.6171780  88.4978676  63.8062954
  11.8678963  94.9766159  35.8998942  12.2424960  95.8389568  35.7202506
  11.5757442  94.6596336  35.0452590 100.9867001  64.0888119  62.1315718
 101.5938854  64.8265028  62.1895885 100.4245090  64.2993927  61.3860321
  83.6133003 103.0359173  53.5381460  83.3704948 102.3500156  52.9162073
  84.4477749 103.3716297  53.2107449  87.3877048  75.1340246  30.1644516
  87.2143555  74.2240334  30.4054809  87.7232265  75.0849533  29.2693257
   6.8861425  36.2220311  31.8490267   5.9670782  36.4500713  31.9888496
   7.3144341  37.0574117  31.6621161   0.4886619  89.0315151  49.8692894
   0.6921598  88.9626408  48.9365101   0.4816145  89.9726105  50.0440359
 101.0765266  48.6981249  52.3814058 100.1362419  48.6189032  52.5420761
 101.4219952  47.8202677  52.5434160  47.4907780  87.8847408  55.7471132
  47.1971846  87.4619865  56.5541506  48.4363985  87.7373123  55.7298136
  59.5418119  66.7732143  24.4127035  59.9073553  66.4325523  23.5962749
  58.5963631  66.7882061  24.2639446 114.1118526  77.5083780  57.3602772
 114.1220093  77.7071762  58.2965469 115.0323391  77.5372267  57.0992994
  20.0042534   8.2970005  59.4355631  20.5426979   8.6269820  60.1548815
  20.4996371   8.5149413  58.6460495  69.5112181  74.0991735  45.7766294
  69.7333479  74.4521379  44.9150562  69.6879530  73.1612349  45.7040405
 116.0215187  86.3616943  54.1392612 115.4672527  85.6348133  54.4232655
 115.8320045  86.4569092  53.2058573 106.8437004  96.0633755  49.8067427
 107.0190525  95.3582191  50.4298353 106.8937778  95.6425571  48.9484692
  26.6055346  62.6853275  30.2190971  26.5066075  63.6250687  30.0663471
  25.7359552  62.3944807  30.4938173  34.2179942  82.7048779  60.5664778
  33.5170555  83.1058502  61.0804176  34.0849996  83.0380630  59.6790504
  69.6768761 102.9511833  58.9333677  70.3895092 103.5063362  58.6168480
  69.8283482 102.1044064  58.5135365  22.2630811  63.0653238  27.5049567
  22.2698879  63.4210157  28.3935905  22.3815775  62.1228838  27.6232862
 115.0528240  53.3792925  76.2964725 114.1942787  53.4387302  76.7155266
 115.6568146  53.7626648  76.9324398 106.1250114  30.8976698  46.2953997
 106.0576630  31.7251086  45.8189106 106.9569969  30.9586096  46.7647791
  76.5793991  88.0213451  30.3099895  77.2794724  88.4263897  30.8219147
  75.9240341  88.7120628  30.2118659  26.8756509   6.8461585  57.5308657
  26.0835075   6.9655287  57.0069456  26.8114996   7.5106508  58.2168436
   7.2136259  63.8869238  16.1957073   6.7334682  64.3459654  15.5065322
   7.0845139  62.9588509  16.0001564  23.5654473  87.9085350  66.5791178
  23.1890225  88.2580280  65.7714081  24.3464565  87.4343491  66.2937975
 103.0259228  81.7049789  12.5226104 102.1143436  81.5451908  12.7670014
 103.4029388  80.8312130  12.4194932   5.9781659 103.3714867  21.1316085
   5.2429044 103.9839077  21.1552572   6.0500038 103.0486965  22.0298696
  91.6453552  95.0248051  50.2531719  92.5386047  94.7564793  50.4684496
  91.5050411  94.6988487  49.3641806 102.4371529  97.4055099  68.8008261
 102.1718407  96.6294861  68.3072376 103.0762768  97.0794487  69.4344044
  29.9237275 104.7370529  29.3535995  29.9295282 104.8385906  30.3053808
  29.6945882 105.6050587  29.0215135  77.7347612  67.9398155  38.5743070
  77.5675726  68.6497736  37.9544401  78.4723854  68.2494926  39.0998936
   8.3013511  99.4257736  30.1585674   8.0303389 100.2320290  30.5975723
   8.6688334  98.8844967  30.8572865  20.8026481  84.5708942  25.6879735
  21.4910412  84.9927711  25.1738095  20.2418923  85.2917671  25.9745693
  83.5769176  74.1174507  61.7242146  83.5406780  73.6109400  60.9128189
  82.7339554  74.5693445  61.7623186 112.3913956  89.5629406  69.6413755
 112.7941990  90.2432442  69.1017675 112.0282650  90.0352287  70.3905869
  94.9158382  88.3690071  65.0467825  95.4785061  88.8608170  65.6449127
  95.4747295  88.1801891  64.2929792   1.3800506   8.4054685  33.1355572
   2.2180198   8.3859992  33.5977936   1.2264261   7.4959618  32.8797674
  23.5636306  49.9496460  29.3663788  23.2753348  50.5184126  28.6525035
  23.4693527  50.4864311  30.1532769 108.5286617 100.5509472  73.7132645
 107.8271961 100.7182789  74.3426895 109.1347122 101.2826061  73.8299227
   9.1415519  72.5516653  38.5131860   9.2238110  73.3174181  39.0815926
   8.7091613  72.8829622  37.7260971  55.3851175  51.0308743   3.3466142
  55.3525305  51.5545940   4.1471708  54.4807100  50.7501316   3.2070869
   0.5152613  90.8490467  58.2150936   0.2558004  91.3637257  57.4508810
   1.0877737  90.1679993  57.8620529  12.2589600  89.5363426  36.1436534
  12.8694677  89.8893166  36.7908931  12.8199661  89.1695690  35.4602909
  94.1056252  87.9665184  51.5344000  93.3679485  88.0101204  52.1428156
  94.6341801  87.2339439  51.8509388 108.2070446  70.1944637  54.9082947
 109.0041256  70.0355101  55.4138947 108.1274414  71.1479330  54.8801088
 101.9322014  59.9970245  61.7722702 102.6463699  60.4557705  62.2147036
 101.8832684  60.4065418  60.9084797 106.2168598  72.2104931  73.6678839
 106.2451172  73.1672573  73.6731577 105.4680252  71.9960499  73.1115627
  21.5401554  70.4489517  10.0858295  21.2995577  71.0738611  10.7698131
  20.9149837  70.6139231   9.3800116  83.6134720  79.8666859  59.5667171
  83.0754185  80.6379890  59.3883419  83.7131786  79.4419622  58.7147188
 105.4968643  75.6895733  45.9179354 105.2183247  75.9708834  46.7894363
 106.4443207  75.8257294  45.9137297  13.7016809  63.5687494  49.6065569
  14.0842891  64.1360235  48.9371967  12.8063166  63.8909149  49.7103024
 110.5258560  67.3854065  70.3212118 110.4630280  66.7959404  69.5696735
 109.6696854  67.8112936  70.3638029  97.2488594  69.9112129  40.3040314
  97.1041393  70.2650261  41.1815882  98.0328560  69.3689299  40.3907108
   2.3907980  52.7948046  12.9030669   2.3457479  53.3099413  13.7085712
   1.9461304  53.3338118  12.2488713 114.0128136  80.1687527  35.8384728
 113.1750298  80.1862049  35.3758144 113.8305664  80.5873299  36.6797900
  99.3311596  56.6149330  60.6602716  98.6778641  56.9872999  61.2525368
  99.0958595  56.9577503  59.7980976   8.0349296 100.8890057  52.9646540
   8.6756700 100.3280163  53.4016657   7.2323304 100.3676891  52.9475927
  32.4937630  76.3164711  22.6685357  31.9428182  76.1354303  21.9070125
  31.9611835  76.8912840  23.2182479  11.2504113  71.8449879  32.6290441
  12.0213652  71.4670849  33.0521846  11.4206409  71.7496586  31.6919398
  70.2363062  13.8647437  51.6225147  69.9268484  14.7164738  51.9307756
  69.9335337  13.8136911  50.7158995  91.7424965  87.3053455  55.9027672
  92.3385143  86.7225552  56.3732481  90.9742069  86.7647457  55.7191133
   6.6080594   0.5730078  40.1625109   5.8249664   1.0558073  40.4268980
   6.8498582   0.9528953  39.3178511  89.1475487  95.7887840  21.8734741
  89.5587921  95.2963448  21.1631083  89.5737839  95.4653549  22.6671696
  28.1544542  58.7779474  31.4346480  28.8547111  58.1908131  31.1497808
  28.6054611  59.5831871  31.6884470   0.1328867  70.7775640  58.9640999
  -0.5730235  70.8981133  59.5992279   0.4973456  69.9171114  59.1715240
   5.3723007  88.0108738  19.8533058   5.3040588  88.9595795  19.9606669
   5.8886558  87.7212429  20.6054521  85.4567623  58.1609488  38.7485528
  86.3189888  58.5683393  38.8312531  84.8441315  58.8963747  38.7408876
 115.6196880  33.4907341  69.5504427 116.5718937  33.4710002  69.6461153
 115.3545666  34.3130445  69.9624491   1.2434595  60.4749489  51.8623066
   1.5507860  61.3501740  51.6261673   0.4242235  60.6277180  52.3332024
 102.4916935 103.9857388  28.7900376 102.2338295 104.6049881  29.4728756
 102.2374630 103.1296635  29.1346335  97.0213604  53.2875538   3.1196883
  97.4890232  54.1217470   3.0791479  96.0999584  53.5333014   3.2025343
  55.3966761   1.9033208  44.8737717  56.1720324   1.7472079  45.4129267
  55.1516151   2.8090173  45.0632191   8.3496881  61.1798334  52.2853708
   8.5295981  62.0864534  52.5341749   8.0166399  60.7734728  53.0854845
 108.2113838  73.9304447  55.2346134 109.1635227  73.8600302  55.1660156
 108.0538940  74.1660690  56.1488914 104.9038124  42.0304871  36.3822484
 105.0896645  42.8882551  36.0002422 104.3470383  41.5960789  35.7360911
  15.4212713  97.1495533  21.6828609  15.1627922  96.8415928  20.8141923
  14.5951915  97.3617840  22.1173525  97.8164291  79.4509649  32.8986549
  97.4729347  80.3417015  32.9681468  97.0741081  78.9313889  32.5900698
 104.5565224  74.4103479  16.4102948 103.6421871  74.1744471  16.2535441
 104.6844673  75.2174759  15.9118927 106.6738224  32.5262070  39.7717929
 106.2791443  31.7037439  39.4819403 105.9283066  33.0896902  39.9789810
 106.0527802  67.0612764  38.5189462 105.5874157  67.7494383  38.9944506
 106.9010353  66.9983864  38.9579749  13.8109648  76.8786192  32.1766496
  13.4374356  76.7551947  33.0492759  13.9677131  77.8208351  32.1142888
 110.0734520  81.1110592  38.7156081 109.1524792  80.8999634  38.8688254
 110.4446507  81.2136936  39.5919132  20.7853293  74.9115133  32.1648669
  20.5268168  75.3420305  32.9797626  20.5448031  75.5337954  31.4784670
 105.9604263  62.5507641  78.1616211 105.6146145  63.1705809  78.8038588
 106.6164970  63.0504322  77.6756811  16.0686433  79.8880529  87.5119877
  16.6492391  79.1882420  87.8109932  15.1901293  79.5845318  87.7407169
   8.8884026  45.6866217  53.2908916   9.4315308  46.1657810  52.6650715
   9.2651266  44.8068905  53.3106089 105.2320576  68.8596869  50.4047632
 106.1395168  68.5575438  50.3665924 104.9453163  68.8726330  49.4916153
  81.5652275  85.4849339  33.1025672  82.4338818  85.7607269  32.8099680
  81.7205334  84.6686649  33.5777640  17.8564012  64.7848272  57.5142145
  18.2515717  64.5608854  58.3567858  16.9285202  64.5757580  57.6217365
   7.5699204  40.9407663  15.0092387   6.8565226  40.9310865  14.3711150
   7.1545404  41.2090540  15.8288217 112.2490883  41.9288874  33.1603479
 113.0099201  42.2554350  33.6406994 112.4054337  40.9884262  33.0747700
  89.8527527  75.4974127  33.9992237  90.5585957  75.4723787  33.3531666
  89.1054726  75.8601475  33.5235929  92.4825001  73.1004238  24.8521256
  92.5806713  73.6543083  24.0776539  93.3797741  72.9119444  25.1270938
  19.7032750  76.4456558  29.7395396  19.7439075  77.2805071  30.2060246
  20.4718208  76.4524412  29.1689920  78.7487602  57.0734978  36.2489820
  78.5582399  56.4478636  36.9479203  78.0787849  56.9040537  35.5866742
 108.8722229  99.4298172  49.0568924 109.1301918  99.9494362  48.2955265
 109.0143490 100.0118542  49.8033953 106.6260910  66.9334555  24.0644073
 106.1046982  67.5618505  23.5649014 106.3305187  66.0772896  23.7548208
 103.8945961  78.9059687   6.8453330 104.3597507  79.5820856   6.3526589
 103.5017681  79.3740177   7.5821143  36.7941546   3.7591103  21.5208745
  36.5437269   4.0706831  22.3906112  37.6716352   4.1155401  21.3822484
  96.0663795  90.0877094  19.1054797  96.5403843  89.3673515  19.5209873
  96.0789871  90.7895947  19.7561884  30.2271438  33.1641221  27.2375727
  30.1732326  33.6333895  26.4050388  30.2513599  32.2397208  26.9903326
  18.1004751  94.6158409  56.0892582  18.2748485  93.7263393  56.3968515
  18.7489295  95.1566124  56.5401411  73.4522438  10.7915330  58.6219263
  73.7422371  10.8173478  59.5337772  72.9182482   9.9993360  58.5627556
  70.2110624  38.4438705  91.4171982  70.6377506  38.4998298  90.5621910
  70.6448889  39.1137457  91.9456768  20.5194783  79.2414284  31.1988497
  20.6596041  80.0319767  31.7200208  20.9376788  79.4309902  30.3589654
  16.0892773  33.1305170  38.9331532  15.5757165  33.4392023  38.1866932
  15.5019641  33.2243323  39.6831489  12.2082555  67.8137112  31.1210275
  13.0668402  67.9906893  31.5054011  11.6390860  67.6475096  31.8724632
  34.3616700  74.4646740  13.9152944  34.9211264  73.7780285  14.2782748
  34.3273640  75.1326036  14.6000755 102.5434780  99.4673157   9.2737573
 102.3015404  99.7814941  10.1449561 103.0276680 100.1945972   8.8827854
  54.1342592  79.4959593  84.5084000  53.2034254  79.5434523  84.7263908
  54.3465185  78.5643721  84.5660305 113.5511971  74.6447754  67.5806284
 113.0256176  74.5368099  66.7879486 113.4565735  75.5701065  67.8065586
  11.7728758  58.6124182  46.2580395  11.1367583  58.0636883  45.7992554
  11.6925383  59.4708967  45.8423519 106.6771603  64.9636316  42.7761221
 106.4469147  64.2423964  43.3618164 106.5199184  65.7527399  43.2945967
  71.1277199 105.8457661  55.9406853  70.4122114 105.6018448  55.3535032
  71.3033676 106.7640972  55.7356167  70.2853632  21.4327788  37.0271873
  70.4626417  21.3499975  36.0901976  70.8201647  22.1755338  37.3074317
 102.9988003  80.5338383  60.4151726 103.4625912  80.6212711  59.5824099
 102.7986813  81.4335442  60.6734753 108.7229061  97.4806976  33.1545877
 109.4723988  96.8968487  33.0379200 108.2771397  97.4703979  32.3075771
   9.8711836  63.9054251  67.4930191   9.5534360  64.7311449  67.8583241
   9.0940124  63.4978008  67.1108150   7.1693659  93.1281948  32.8830862
   7.8930616  92.8853989  33.4606218   6.5815336  92.3730850  32.9052734
  20.8097601  79.0832329  42.9802942  19.9019980  78.8677025  42.7664089
  21.2920499  78.9200068  42.1697474  16.9476700  97.6938725  35.0803542
  16.4872944  97.9238033  35.8874607  16.6101861  96.8281460  34.8504329
 114.1005611  97.0909977  44.9153757 114.1471767  96.9996166  43.9636898
 113.2082748  97.3939610  45.0834846  41.7761278   6.1882687  59.6449804
  42.4638319   5.8133274  59.0947866  41.1587238   6.5767676  59.0252113
  76.0343695 103.6326599  41.4965725  76.7360210 104.2826653  41.4591312
  75.9526682 103.3163261  40.5968571  89.9769592  75.6109858   4.2389509
  89.3085861  75.4915905   3.5642320  89.5011997  75.5255842   5.0651407
  83.0258083  74.3498659  31.5639710  82.4149704  74.6473742  32.2382116
  83.8497829  74.7878742  31.7771602  70.1886272 103.2184219  45.1856470
  69.7544193 103.7958050  45.8135939  70.2939034 102.3905945  45.6545258
  17.0151138  87.4930859  18.7781239  16.3710976  88.1988907  18.7204981
  17.4803364  87.5245094  17.9421735  13.2755411  91.1320686  59.1817617
  12.9590929  92.0338821  59.2349005  13.8265157  91.0254860  59.9571943
  57.1095657  19.6988297  46.9774389  56.4929819  18.9737630  47.0790863
  56.9963408  20.2225065  47.7706432  94.7334385  99.4167900  23.7907243
  93.9969540  99.9894238  24.0049839  94.6626949  99.2788696  22.8461576
  40.4134130  29.6678996  52.1221018  40.6248522  30.3330946  52.7771139
  39.7548461  29.1165328  52.5446129 102.6039982 101.1676311  30.0935555
 101.7845154 101.2592697  29.6074605 103.1960106 100.7268810  29.4840574
  78.8108206  95.3295994  21.6227460  77.9252434  94.9911404  21.7547679
  78.9265776  95.9758091  22.3193455  81.6223717  94.7061443  48.2556057
  81.2112331  95.1757336  48.9813280  82.1347523  95.3730106  47.7984619
  71.6760683   8.1581944  72.4219370  70.7456017   8.3000356  72.5961161
  72.1177435   8.8694340  72.8859377  80.3713703   1.9458112  10.3329706
  79.4786978   2.2467668  10.5026615  80.3954887   1.0564592  10.6861043
  77.8154802  74.1764069  32.8883576  78.4148073  73.9240122  32.1859837
  76.9610786  74.2426109  32.4619246  10.3256977  84.4900799  42.7898884
   9.5729232  84.4060040  43.3751202  10.0404501  84.0816307  41.9725561
  16.9866633  20.4522467  88.9723587  17.3738289  19.5809305  88.8878345
  17.0673656  20.6609511  89.9030304  36.0827637  45.6407499  46.5992689
  35.6498194  46.3710403  47.0413828  35.4909921  45.4093981  45.8833694
 105.2883244  93.5072994  59.6843529 105.0876904  94.3579006  60.0747967
 105.5529690  92.9606056  60.4241610   2.8553280  75.0601912  48.8977957
   3.4205064  74.9689293  48.1306744   3.4209609  74.8439741  49.6391058
   6.2370908 103.5142899  33.1988740   5.5293256 102.8728580  33.1366396
   5.7903975 104.3586159  33.2606101 116.0535908  91.1709690  60.8316278
 115.1068497  91.1194038  60.9629202 116.1572361  91.3218594  59.8920918
  33.8635635   8.7889117  26.6258645  34.8115945   8.6895883  26.7130661
  33.4983850   8.1307542  27.2172260  87.6975727  68.3931828  18.4620905
  88.2464027  68.8099909  19.1263866  88.3193779  68.0223703  17.8359163
  82.8938675 108.6053181  67.0474577  82.8534603 108.5840130  66.0913467
  83.8285160 108.6605072  67.2465086  16.9165611  48.4435129  73.7067938
  17.3612857  47.5966072  73.7415648  17.3074841  48.8886309  72.9549408
 113.2996559 101.2526989  76.4849615 113.8673973 100.9968472  75.7580185
 113.8401985 101.8366432  77.0169830   9.9356240  77.1649265  24.3147802
   9.9472088  76.5322399  25.0329757   9.0768486  77.0497942  23.9079881
  44.2968559  16.6765177  53.7609291  44.4780922  16.2172604  54.5809698
  43.6636782  16.1188102  53.3089542   5.8140481 105.7058525  68.6697578
   5.1061231 105.9306431  68.0659819   6.0317278 106.5318203  69.1017580
  17.4675405   5.1306337  54.5156193  17.6237214   5.2026713  53.5739994
  18.1118858   5.7178402  54.9108887 110.2632236  68.3738756  90.4678822
 110.9202194  68.4567833  91.1590576 110.3244019  67.4606848  90.1875782
  93.1875324  81.8911839  53.1842661  93.0834293  82.8358746  53.2981443
  92.2934055  81.5494823  53.1882524 102.5138760 101.0055637  25.2856851
 102.0284271 100.9530258  26.1089754 102.0522690 100.4084778  24.6969223
  90.8304977  78.4008074  61.2965536  90.0439548  78.6559057  60.8143663
  90.7792759  77.4465132  61.3507032  25.3748274  98.8941002  12.3749828
  24.9724221  98.6647129  11.5373170  26.2991810  99.0306282  12.1672344
  84.1250038  89.2340279  80.8679581  83.8313866  88.9182758  80.0133705
  83.5621643  89.9861431  81.0517216 103.7973213  82.3173714   6.7286873
 102.8940964  82.4025249   6.4234477 103.7381744  82.4071026   7.6798350
 105.7999134 104.5194435  34.3670654 106.3188648 105.1059914  33.8167262
 106.3797283 103.7776947  34.5398498  30.7063174  14.5992470  14.9632788
  30.4876566  13.7676048  14.5428157  30.2594686  14.5647895  15.8090746
  23.4558773 101.8505669  38.3260536  22.5893641 102.1101379  38.6391163
  23.7294340 102.5687599  37.7554345 101.5355778  83.3527946  33.9732313
 101.2377834  83.5127926  33.0777144 101.4641953  82.4046612  34.0835881
 110.6961155  74.9301910  37.6998377 109.9089718  74.4236422  37.4997258
 110.7417202  75.5865622  37.0046139  23.6330938  87.3703671  49.9040794
  23.6639047  86.5045261  49.4971514  24.2549038  87.8945255  49.3992615
  97.8000927  99.9799824  79.5202780  98.6540604 100.2918911  79.2207861
  97.4897575 100.6641674  80.1134205 100.5392170  57.0795107  52.1758842
 101.3261890  56.9774961  52.7111340 100.6373882  56.4302015  51.4794683
   8.9670277  86.3719463  40.4098463   9.2452443  85.4579544  40.3512192
   8.1045538  86.3337326  40.8232546   5.2108365 109.5682526  22.4603748
   5.0622296 109.5053482  21.5168738   5.1152748 108.6704540  22.7782774
  21.3325930  64.2095613  33.7580895  22.1414137  63.9627790  33.3096051
  21.5640783  64.2093420  34.6868777  94.3051243  71.3947248  46.1745024
  94.3461323  70.6994390  46.8311071  94.1278362  72.1893549  46.6778612
   6.0009259 107.6064205  56.6468573   6.6698921 108.1893349  56.2877846
   5.1831269 108.0953979  56.5555382  82.3457146  82.1704674  43.0750418
  81.5839672  82.6314735  42.7236986  82.8730965  82.8564835  43.4842873
  10.5599892  70.7581186  37.1766806  11.3678360  70.9387684  37.6572824
   9.9119550  71.3432455  37.5689936  48.6507511  91.6160011  51.5844107
  49.2203236  91.3128567  50.8773565  47.8013468  91.2172413  51.3953781
 106.7956638  93.7312317  10.6862235 107.6215649  93.6509418  11.1633825
 106.9222546  94.4880390  10.1139915  27.7610064   3.5583532   9.8089111
  27.3281360   2.9039288   9.2606550  27.0556855   4.1432294  10.0858152
  87.5625038  96.2066174  51.5582705  87.1537304  96.4033508  52.4011374
  86.8372917  96.2109184  50.9335470   8.4392810  91.8445969  63.9525127
   8.5294932  92.3912144  63.1719351   8.6535853  90.9612846  63.6524200
  57.3848343   7.9278558  28.6828327  57.3761559   7.7496308  27.7424121
  57.8621960   8.7533730  28.7657642  35.6756759 102.9870033  45.1384926
  35.5157423 102.1132278  45.4950953  34.8256207 103.4244537  45.1862192
   2.6922554  92.3949528  32.4946475   2.6302376  91.9995594  33.3641601
   3.3112741  91.8384361  32.0220661  26.4214730  70.1257610  30.9342098
  26.8808293  69.9255610  30.1186442  25.5416870  69.7707844  30.8069229
  65.7824850  48.1254292  92.4095345  66.1365700  48.9984417  92.2401142
  64.9793720  48.2847738  92.9053688  74.5209312  75.2522278  26.3552213
  73.9018965  74.6097946  26.7020774  75.3524208  75.0356293  26.7770553
   1.2081944  96.0712242  38.0948472   1.2999922  96.8399239  37.5319099
   1.6097286  96.3320065  38.9236951   7.7665663  98.5376358  81.2272072
   8.2159543  97.8031254  81.6452885   6.9340444  98.6064148  81.6945553
   9.0486729  85.9502697  19.7198117   8.9325017  86.8759346  19.9340165
   9.8836756  85.7139206  20.1237202  96.7923355  88.1931782  77.3763132
  95.8519650  88.3707714  77.3567390  97.0773411  88.3115005  76.4702177
   7.8227872  96.3422012  56.8965816   7.7115083  97.2730732  57.0897770
   6.9573122  95.9614944  57.0457411  10.4551232 102.4211788  43.6375761
   9.5955229 102.0378208  43.8118124  11.0487998 101.6712284  43.6006641
 105.0593185  88.4123516  41.4171934 104.3912506  87.7269173  41.4279270
 105.7433414  88.0711174  40.8410883  94.9824238 100.7390022  39.8245645
  94.4368935  99.9890995  39.5873642  94.3588829 101.4120483  40.0973892
 114.0831661  75.6632423  20.6757069 113.5146427  76.4314795  20.6226468
 114.9658966  76.0089302  20.5433297  78.8764000  27.7094817  91.1584187
  78.5059261  26.8435073  91.3289165  79.8236036  27.5729442  91.1784554
 101.8513393 100.1985836  64.6226072 101.2653255  99.4439602  64.6805573
 101.5274525 100.8050537  65.2885818 102.2566223 107.4452496  47.8692436
 101.6796303 108.0472469  47.3992252 101.6615963 106.8474770  48.3218479
  15.5771649  54.8202610  16.6956615  16.1180460  54.9357367  15.9144163
  15.4040015  55.7108212  17.0008636  44.6464968   6.9770795  19.7245049
  44.3808508   6.3198811  20.3677440  44.8558807   6.4721870  18.9387107
  66.1448193  13.0117047  10.9755754  66.2602615  12.4214447  11.7202222
  65.3877449  13.5482919  11.2104034   1.7475399 106.2260723  43.8107014
   2.2211893 106.3889599  42.9950094   1.3021465 107.0523453  43.9981413
  66.7845058  35.3036261  53.6544037  67.4990749  34.7101593  53.8855362
  66.7612362  35.9401751  54.3688965  33.8432002  96.9695759  14.3045855
  34.1218972  96.3924408  13.5936189  33.2233620  96.4441967  14.8105574
  26.9818473  99.2095661  21.6911745  27.1768236 100.1465607  21.6750026
  27.8313136  98.7859917  21.5677810  79.2055655  21.5573120  31.6609120
  78.3445501  21.4290690  31.2628651  79.1267109  21.1693859  32.5324202
  38.4619331  91.3253975  21.9652581  38.1597567  91.5040588  22.8557658
  39.2847657  90.8505535  22.0822883  50.9637165  19.6423459  22.9417658
  51.8377209  19.2927682  23.1153750  50.6459427  19.1333222  22.1960115
  79.4216013  61.2151766   6.4831322  79.2017317  61.7671919   7.2335774
  78.5873175  60.8279943   6.2180030  28.4305716 102.0070076  38.4961820
  29.3017340 101.8390751  38.8555002  28.2152200 101.2119102  38.0086637
  34.1393685 107.2657490  37.5653982  33.5689855 108.0292511  37.6545644
  34.7242546 107.4870491  36.8407154 111.2654495  89.3835831  63.7146902
 110.5805302  89.8034477  63.1942844 110.9685135  89.4752884  64.6200323
  46.6001225  31.2814307  54.7248268  46.7808008  31.8520474  55.4718113
  46.8720722  30.4113507  55.0167847  77.2877598  13.8115573  14.8184860
  77.1588564  13.4656262  13.9353395  76.4200926  13.7709200  15.2206457
  55.7978916  34.7744060  29.0150785  56.5827179  35.1842546  28.6513329
  55.8827591  33.8489723  28.7857318  68.9698935  27.0833611  14.4329739
  68.3001852  27.7631044  14.5082831  68.7699556  26.6404653  13.6082935
  68.4846687  40.9661961  28.3109736  68.8484192  40.4391432  29.0224051
  67.8746891  41.5638542  28.7433624  29.6833682 105.3746223  21.6164184
  30.2094412 105.6050110  20.8506465  29.4590902 106.2156200  22.0147371
  44.9244070  16.8626666  51.1525583  45.2844715  15.9783125  51.2196589
  44.4738817  17.0016801  51.9855833 112.5302717  22.6240079  94.4536915
 112.8734800  21.8387668  94.0272782 112.2624895  22.3267286  95.3232593
  28.0085063  92.2132015  19.6928048  28.8481736  92.6216793  19.9033856
  27.5147271  92.2445393  20.5122137  79.8504066  25.9744024  21.4846730
  80.6272030  25.4717922  21.2393308  80.0129509  26.2399316  22.3898268
  80.5870628  32.4342895  40.3728294  80.6504059  32.3928261  41.3270330
  80.3279305  33.3372211  40.1890039  42.7742720   6.8478459   8.7556648
  42.8447628   7.1416503   9.6639276  43.1982946   5.9897226   8.7479234
  85.3008366  82.1977711  47.7229309  85.4844761  81.7689514  48.5587692
  84.4407082  82.5999641  47.8439665  42.1725607 105.9673882  66.6269207
  42.3230934 106.8600464  66.9379377  41.4096260 105.6671047  67.1208811
  85.9547806   1.3103600  51.3427401  86.6476440   1.9378422  51.1367273
  85.1433468   1.7705129  51.1281157  56.3215351 104.8489475  31.5328264
  57.0113850 105.3958988  31.1570835  56.1943960 105.1965618  32.4155664
  12.5705183  86.0360527  25.6677556  12.6834011  86.6489029  26.3943243
  12.2583759  86.5782928  24.9433422   1.7486659  70.2647638  91.4563942
   2.1217877  69.5662165  91.9940281   2.1405074  70.1373100  90.5924225
   9.3704224 101.1602592  28.0328250   8.6926842 101.4437008  27.4191785
   8.9284569 100.5326462  28.6046600  59.0836430  12.8328812  43.0771589
  58.6259508  13.6703670  43.0038977  59.1153908  12.6587713  44.0178537
  88.8173676  60.2828026  90.2835846  88.0617428  60.3320074  90.8691216
  89.2838287  59.4940758  90.5602837  27.5744629  20.2922153  44.9181128
  26.8791389  19.8315132  44.4485283  27.2151494  21.1639309  45.0831509
  58.3361864  31.6036367  46.2231255  57.4046326  31.3838387  46.2117386
  58.3680868  32.4932599  46.5749598  49.4487572   1.9696990  27.5585365
  50.3516150   1.7487454  27.7871299  49.0269423   2.1523315  28.3981490
  22.3273206  51.9483709  37.8830624  22.6815367  52.6170874  38.4692168
  22.7294564  52.1359444  37.0349264  45.2773142   2.9402000  11.2357306
  45.5776405   2.5187597  10.4304826  46.0435724   3.4149396  11.5577590
  62.7322531   6.1085248   1.4013936  63.2785797   6.6528904   1.9683348
  63.3390522   5.4719663   1.0234825  23.3844686  98.0106735  33.2683945
  23.0226827  98.6122990  32.6177120  23.4467769  97.1722221  32.8108478
  23.1569171  10.2085006  17.2035825  23.3724785   9.3320429  16.8848538
  23.1107688  10.1127875  18.1548667 100.1197338  78.8276052  89.2509556
  99.9062061  79.2550373  88.4215260 101.0067654  78.4905386  89.1252995
  43.4563684  96.5382195  52.9079819  42.5704479  96.4527607  53.2602215
  43.8674498  97.2086334  53.4536839  67.4642086  12.2944021  24.4099736
  67.8868675  11.5219092  24.7852731  67.1392250  12.0000064  23.5591221
  11.6067123  92.8207302  47.4181938  11.5230906  91.9060612  47.6876879
  11.9251287  92.7766228  46.5165854  52.3222637  93.7427139  13.6175728
  52.8137636  92.9693031  13.8941526  51.9823837  94.1142654  14.4316161
  74.2972231  20.9584904  57.0615816  74.2248678  21.3377857  56.1857176
  75.1965189  20.6339931  57.1085167  55.8541250  25.9084177  26.1503363
  56.7931890  26.0558772  26.2628222  55.4396820  26.5759683  26.6970015
  27.8442764  94.1747284  51.0232687  27.8380871  94.8812866  51.6689968
  28.7644219  93.9196682  50.9561396  59.2043352  78.2409906  65.8110094
  58.5650396  78.7339878  66.3252878  59.5066929  77.5514603  66.4020777
  41.0702753  31.8105626   6.2500548  40.5687094  32.1697116   6.9819570
  40.4139614  31.6234112   5.5788898 101.5559483  27.1534324  30.4227114
 100.8454609  26.8706369  30.9984398 101.1365891  27.2872949  29.5727396
  45.3092718  21.6872406  32.1768188  45.0538731  21.9417143  33.0635262
  45.5150366  20.7549167  32.2450972  11.2714255  96.7462826  20.5988669
  11.6680181  96.2168217  19.9070466  11.8698287  96.6581535  21.3407421
  77.6528597  15.6850386  11.4644516  77.6169252  14.8838985  10.9418476
  78.3607960  16.1956882  11.0716474  35.3290749  19.1616118  27.6559591
  34.7300005  19.4548345  26.9694018  35.9903717  19.8517215  27.7075934
  57.0603323  20.9672904  15.9720838  56.7433357  21.4654565  15.2187073
  57.8040075  21.4738989  16.2984717  59.1943979   7.4366343  14.2789340
  59.0783262   6.9530511  15.0968015  59.1824150   8.3571309  14.5411825
  72.9852581 108.7606525  48.9086437  73.0237532 109.6446228  48.5434532
  73.2647133 108.8648891  49.8181915  68.9883471  28.2920384  25.9880495
  69.0118027  28.6684275  25.1082706  68.0972815  27.9548907  26.0806417
  65.2594900  10.1487732  66.4420700  65.2783346  11.1046517  66.3954449
  65.4202080   9.8619121  65.5431223  87.7177429  11.2758422  38.4273887
  88.4699535  10.9404993  38.9152074  87.0582867  11.4552176  39.0975928
  42.1687889   9.5273584  56.6940117  42.6889038   9.4025564  55.9002018
  41.6979551  10.3473949  56.5454006  42.1681309  36.7518830  67.0012569
  42.5200462  37.5133801  66.5402699  41.2835169  36.6474938  66.6508341
  33.3324122  95.0749207  11.9102001  33.5518074  95.5427933  11.1044765
  33.5205269  94.1573143  11.7131197  49.4332981  63.2353544  10.6117678
  49.0217209  62.4534845  10.9798944  50.2556944  63.3225870  11.0937297
  85.3191662  33.2434130  89.0013981  84.8587322  32.9042530  88.2337952
  84.8807812  32.8305721  89.7454453  72.4916029  30.7762647  31.8355441
  72.8883648  30.0666118  32.3407221  72.0518732  30.3357911  31.1083198
  48.1375360   3.6315548   9.5579165  48.5662699   3.9975899   8.7843287
  47.9617071   2.7198175   9.3254274  79.0012646   5.3448457  12.3401725
  78.5804701   6.1161578  11.9603789  78.2817268   4.8447597  12.7254188
  11.8344867 106.9307804  39.1928649  12.2376227 106.8517113  40.0574207
  11.4438891 107.8046513  39.1897464  34.1074300  22.1189070  29.9248362
  33.5236812  22.3443174  30.6491709  34.8618984  21.7059040  30.3448844
  67.3522806  32.0040655  27.6502180  67.5236320  31.9198132  28.5881782
  68.2075500  31.8807483  27.2384691  47.6076555  25.6739974  51.2957478
  46.9285297  25.0882268  50.9612417  48.2365561  25.0923562  51.7228460
  66.9801426  20.1471376  45.9994125  66.3216305  20.8362913  45.9118938
  66.8572426  19.8097074  46.8866920 101.4784241 101.3988400  34.6756196
 101.9200516 102.2443199  34.5958662 101.3514709 101.2828159  35.6172419
  47.5981522   4.3791264  12.3267889  48.0721331   4.2306668  11.5085387
  47.9056454   5.2333403  12.6301050  83.2985973  14.8606515  91.3804817
  83.8673687  15.1745903  92.0834541  82.4168777  15.1119769  91.6555023
  66.4472771  12.3787618  31.4134097  67.3440170  12.0458353  31.4486504
  66.0755110  11.9826090  30.6253195  57.9249382   6.9747168  50.7287121
  57.6713371   7.2047293  51.6225863  58.3896065   6.1426640  50.8181667
  75.2259445  96.8756199  36.7319036  75.4562378  97.7994251  36.8308020
  74.5630169  96.7206764  37.4047709  73.2586002  34.9464750  10.5895567
  73.3937979  34.7482467  11.5161955  74.1325283  34.8917270  10.2029276
  86.8348694   6.8445998  45.4279089  86.7726517   6.1112070  46.0398722
  86.7508221   6.4427972  44.5632029  34.8489761 105.8567905  19.2147517
  33.9024329 105.7287502  19.2771363  35.0733256 106.3677216  19.9924731
  50.9375238  88.6755371  26.1484027  50.5258369  89.4482994  26.5351653
  51.2503672  88.9730930  25.2941108  94.9959755  81.2858295  27.4612451
  95.7423210  81.6022015  26.9522238  95.0330830  80.3333282  27.3740482
  37.4137235  79.5039892  71.1117172  36.7854071  80.0994587  70.7032251
  37.1474457  78.6339998  70.8143187   8.9257681  84.2031956   1.9569640
   8.7876052  84.6438694   1.1185425   8.6528182  83.2992172   1.8002588
  45.0808573  16.4782321  73.7869453  44.1484404  16.6910732  73.8259888
  45.1262522  15.7024860  73.2280254  79.1123199  18.3750153  43.9605713
  78.9867878  17.4363852  44.1000223  80.0623131  18.4922612  43.9608955
  47.7747107  73.9806795  89.4205761  48.4468746  73.3164024  89.5727825
  47.1393108  73.5515690  88.8475513  75.6452894 103.8212013   4.6272764
  75.4950571 102.9012966   4.4094414  76.5666294 103.9702606   4.4148123
   1.8752007 106.4065552  26.9056129   2.1193747 107.3269463  27.0030189
   1.8462653 106.0703468  27.8013563 109.3268776  29.7086310  23.4204531
 110.0691223  30.1601410  23.8222551 109.1737175  30.1809144  22.6020908
  85.6672096  99.0849876  47.0729065  86.1854458  99.7847939  46.6755104
  86.2876034  98.3659554  47.1926641  64.8506546   7.4816328  11.0725498
  64.1811943   8.1477809  10.9166706  64.3727398   6.6525179  11.0526288
  57.1283484   4.5543295  41.6073227  57.1034956   4.1710541  42.4840879
  57.8731346   5.1551861  41.6296148   8.1668001 109.2921638  25.4244041
   9.0172207 109.7314167  25.4159546   8.2241470 108.6456680  24.7208452
  26.1083341 101.6243267  48.2723951  26.3072157 101.0579681  47.5267982
  26.4621091 102.4787235  48.0252409  30.0049615  24.5765305  57.4285364
  30.5634212  24.6722174  58.2000256  30.0774693  25.4162002  56.9747400
  12.8388870 107.7634048  70.6185532  12.3313808 107.9602051  71.4059162
  13.2063353 108.6065769  70.3534746  32.9314947  21.7733383  37.4194145
  33.1705236  21.1522341  38.1074023  33.5465026  21.5919161  36.7087221
  73.2633114  59.3555737  25.3233576  73.2082462  59.0802860  24.4082546
  74.1859770  59.5753670  25.4522491  71.3558292  28.0324745  52.5476885
  71.1920261  28.5372114  53.3443308  72.2484112  27.7029228  52.6522350
  53.8234758   9.0387785  53.1731319  54.0508127   8.8606662  52.2605419
  54.6450758   9.3231976  53.5735130  83.7292194   0.6598302  32.0541978
  84.5281792   0.1460949  32.1723866  84.0213394   1.5703410  32.0973730
  58.2386112  40.8343554  29.9312091  57.6417255  41.1663532  30.6018329
  58.7639856  40.1744270  30.3836560   4.8521361  88.8351917  49.6465254
   4.6731707  88.1712723  48.9806271   5.7187009  88.6084366  49.9839926
  49.5703220  14.1893244  73.3408022  50.3387594  13.6250651  73.4265375
  49.8976755  15.0695562  73.5259008 104.1822433  19.6658909   5.6608164
 105.0388241  19.5659459   6.0761607 104.0594482  20.6125283   5.5898875
   3.1705830  75.5846119  89.4909668   3.9856508  76.0557556  89.6639538
   2.5004056  76.0874653  89.9538231  68.1296253  26.6915894   9.2327708
  68.4269667  26.9434428   8.3584774  67.8765345  27.5167584   9.6466213
  85.0797939  31.5529299  60.2031136  85.6370831  31.3694859  60.9594250
  85.5036163  32.2921109  59.7669792  64.3389750   8.8093776  69.0452147
  63.5793829   9.3576032  69.2419434  64.5564890   9.0185404  68.1368256
  61.3096571  40.5207777  55.9538603  60.9546900  39.7179556  56.3355732
  61.6851616  40.9934950  56.6966724  51.0461903  21.0682487  39.2882133
  50.2655554  21.2996984  39.7914815  51.2617254  20.1808524  39.5750999
  87.1722603  22.0000291  30.2710938  86.2686920  21.6847348  30.2512622
  87.2728062  22.3842335  31.1420178  84.6831322  24.8701549  20.0906205
  84.5677757  24.3367171  20.8769846  83.7929726  25.1015520  19.8254609
  14.8359621  66.8153095  45.1854324  15.6217241  66.3125467  44.9708652
  15.0937784  67.3554516  45.9324360  71.1971283  25.5035710  34.9494338
  70.4010868  25.6634426  34.4424868  70.9932661  24.7324300  35.4785991
  59.8923588  22.1173000  35.9307742  60.2405930  21.8291163  35.0870228
  60.6271458  22.0250845  36.5372491  31.0439610 105.0061893  31.9451213
  31.7448735 105.5190945  31.5427780  31.4128113 104.1277695  32.0376992
  11.1354148  67.3848772  83.4869003  11.6239285  68.1953716  83.6307335
  10.5056906  67.6034784  82.7999496  52.2786331  32.7482200  21.8653393
  52.6782131  32.3416805  22.6342964  51.7542553  33.4664774  22.2194123
  71.4096785  18.9577651  31.8261671  70.7226372  18.4435332  32.2501636
  71.3585615  19.8170519  32.2447896  28.6466765  90.0191784  63.0074739
  28.6164570  90.9741402  62.9494429  28.6151981  89.7228336  62.0978498
  61.3550711  95.5189037  17.9030144  62.0544720  95.0387573  18.3463275
  60.5546808  95.2427292  18.3494854  45.7737923  99.0633678  47.3385906
  45.9193373  98.5991096  48.1629181  45.8737421  99.9883270  47.5637627
   5.5066258 101.8553829  69.9199200   4.7948450 102.4601650  69.7105598
   6.3025928 102.3304653  69.6812487  97.9911137 108.4916973  31.9465327
  98.1683731 109.4321442  31.9270945  98.7491798 108.0961418  31.5163088
  13.8453972  63.1805563  85.2234745  13.9863002  63.7687635  85.9653568
  14.1689885  62.3319578  85.5258083  24.2698741  29.7771454  25.0137043
  24.7791791  29.6692300  24.2104650  23.5089326  29.2091489  24.8929501
 115.5735493  99.5220757  28.7823725 115.4618868 100.4265022  28.4895253
 116.5194246  99.4193077  28.8872170  71.4591169  34.6983480  34.5749664
  70.6106949  34.2552662  34.5847869  72.0975924  33.9911652  34.4829202
  32.6335001  87.4400616  41.3657808  32.6756692  88.0617619  42.0923805
  31.8378377  86.9337845  41.5296125  63.2726002  98.6296082  80.7434559
  63.1997156  98.4043217  81.6709137  62.7525282  97.9636955  80.2936459
  19.0143180  85.4685688  39.2373800  19.1966164  84.6405220  38.7931633
  18.2886803  85.2684784  39.8286867  69.5412159  15.4668045  28.7150693
  69.5022440  14.8720181  29.4640303  70.3171921  16.0037184  28.8757277
  17.1893501  92.6212883  67.2685289  17.0221460  91.7316914  67.5798178
  16.8902755  93.1848907  67.9820633 103.1906223  98.5006046  94.6579266
 104.0977573  98.5567570  94.3576145 102.7651501  97.9194832  94.0274525
  78.5357237  25.2730513  13.4718764  78.5301542  25.4306221  12.5277507
  79.4425011  25.0394154  13.6703658  96.9249821  37.8836513  41.7082167
  96.3593006  38.4555006  41.1893511  97.7802944  38.3130240  41.6907930
  31.0605860   7.1169519  65.4450464  31.2069678   7.6939106  64.6954346
  30.3018093   7.4924290  65.8917093  61.8884420  19.2130518  26.8093467
  61.3447618  19.1684043  27.5958896  61.3029861  19.5526052  26.1324596
  91.2974358   9.0617931  38.2541180  91.4575005   8.3601546  38.8852406
  90.3715038   8.9738864  38.0279613  45.1471663   2.8460935  49.5994139
  45.1042128   2.4044080  48.7512970  45.9830570   3.3122465  49.5846319
  64.7683620   7.2175044  35.6931901  64.3594027   7.4205005  36.5344858
  64.7696638   8.0498362  35.2204823  18.9541066  19.7513556  61.4842463
  19.6895635  20.3317904  61.2882137  18.3536899  20.2908897  61.9986725
  86.8493271  35.2271581  42.2564077  86.7553139  35.7638240  41.4694023
  86.2199306  35.5973291  42.8753281  37.8633046  97.3668385  57.4172640
  38.7541842  97.0297432  57.3227215  37.6091766  97.1255112  58.3080006
  82.3675632  43.4961796  34.8745632  83.2550526  43.7870312  35.0843239
  82.0325565  44.1627216  34.2747951  82.1887207  26.9002247   2.0585421
  81.5361118  27.0703959   2.7377847  81.9203377  26.0666990   1.6719759
 114.1925621  68.7754345  90.2799702 114.9240112  68.1580830  90.2704430
 114.5785904  69.5995903  90.5765915  82.4539948  50.7381010  11.8320167
  83.0438042  50.9043741  11.0966849  81.7691517  50.1773167  11.4676821
  29.6185875  85.6913376  68.0123186  29.0798306  86.2259579  67.4290848
  30.3481770  86.2617493  68.2543135  72.9133224  16.0825062   6.5319341
  72.8760862  16.9793415   6.8643975  72.3627377  15.5810797   7.1333170
  46.0131407   6.8492907  57.6098204  46.9687700   6.8953627  57.5801134
  45.7346773   7.7512693  57.7683258  90.9229088  10.1984453  21.4412379
  91.7075920  10.7016599  21.6586804  90.5581093  10.6424749  20.6757402
  81.1297035   9.7156626  19.9354315  81.7341805  10.3798103  20.2667117
  81.4321232   8.8980395  20.3307414  66.0539103   3.4437442  54.7841024
  65.4963923   2.7041987  55.0259256  65.4882431   4.0077171  54.2566681
  13.2014263  97.1511269  23.1339717  12.9016042  98.0595779  23.1663823
  12.5941324  96.6780376  23.7028408  99.9862289  31.0309362  45.3820896
  99.0905666  30.9120321  45.6981182 100.1176071  30.3155589  44.7598314
  57.9595804  28.6161995  38.8197732  58.2015753  27.7625680  38.4606314
  58.2255507  28.5737252  39.7382998  61.8931246  21.5523791  18.3854520
  62.4644232  20.8286500  18.6424899  62.4895477  22.2187853  18.0442643
 113.3369827  24.9946237   8.5704201 113.7454414  25.6738615   8.0337417
 112.6810741  24.5983386   7.9968500 106.0032749  41.7445850  30.1912737
 106.8209362  42.0113754  29.7711754 106.1161137  41.9867516  31.1104321
  28.5949683  83.9733219  32.2700977  28.5201073  83.4942150  33.0953789
  29.4042110  84.4769287  32.3580670  80.0064373   4.6294364  21.2206149
  79.8041439   4.2518690  22.0766234  79.3350792   5.2989930  21.0894585
  76.6362000  24.7631073  58.8596296  75.7642269  24.7702503  58.4648561
  76.5724373  24.1243219  59.5696449  59.0350866  26.6694689  21.0086656
  58.6531496  27.1087122  21.7685485  59.5740080  25.9716153  21.3812208
  71.8656731  85.1379204  47.4549007  72.1326780  86.0559845  47.4091053
  72.3461914  84.7130013  46.7444181  86.5638447  42.4254513  48.1165171
  86.8302822  41.8125963  48.8018322  85.7019329  42.7355146  48.3943558
   9.4429398  79.0944195  89.7556496   9.5852381  78.5321236  90.5171013
   9.2809701  78.4854460  89.0351295  89.2893505  17.1700883   6.7352784
  90.1761150  17.5292730   6.7647761  89.1053581  17.0626926   5.8020884
   4.6271110 105.7486343  33.8004780   4.4941884 106.6173172  34.1798806
   4.1980511 105.1514339  34.4132495  67.2631359   3.9751148  31.5776896
  66.8868780   3.9823398  30.6975698  66.5784597   4.3466625  32.1339321
  98.7532616  97.1114445  94.7521019  98.5177326  96.2131214  94.5202255
  98.2614326  97.6545906  94.1362000 101.5530491  24.9548173  50.1348114
 101.9609642  25.7404971  49.7707462 101.4318848  24.3768477  49.3814850
  96.1639023  11.5385485  15.2077484  95.9443283  11.2691200  14.3158817
  95.4475498  11.1985183  15.7438922  93.5827541   9.3298751  67.1469164
  93.2188129   9.0145344  66.3196659  93.9712620  10.1773822  66.9300699
  70.5859375  41.0427284  59.2915440  71.4976406  40.9823799  59.0062618
  70.6386900  41.3310003  60.2027750  85.0540733  74.2657948  40.9198809
  85.4026890  73.8822651  41.7246199  84.5619392  73.5548115  40.5093431
  46.4480925  83.6600685  76.1627722  46.6527653  83.4083462  75.2622318
  46.7135286  82.9055595  76.6885853  30.1570749 107.1460152  45.6518316
  30.6425691 107.4916649  44.9027920  30.3013396 107.7875328  46.3474417
  41.1868954  12.1938074  16.4044237  41.1169910  12.1460509  17.3578715
  42.1087265  12.3936605  16.2415683 114.6452045  87.7148628  91.9865513
 114.9538708  86.8704891  92.3151588 114.9569416  88.3508968  92.6303864
  72.3341274  12.1987092  56.5592194  72.6291227  11.6490257  57.2852039
  72.3084593  11.6079152  55.8065319  57.7546883 104.2396736  40.2705479
  58.3707190 104.6310520  39.6512246  57.7362394 104.8497486  41.0079098
  68.1817865   0.0141546  49.9278402  68.8656998  -0.0091014  50.5971336
  67.3823595   0.2264947  50.4095697  56.9520903   6.1358380  30.6483006
  57.3735332   5.3220034  30.3720903  57.2312069   6.7821819  29.9997902
  58.0593777  27.3206997  60.3446150  57.7646637  28.1576467  59.9855900
  57.2558069  26.8868899  60.6315184  90.2700233  64.9616146  63.0670023
  89.8786449  64.0916967  62.9876661  91.2027359  64.8203135  62.9048252
   5.6398785  93.0847549   6.8617266   6.5540564  93.3646679   6.9081867
   5.3341067  93.4051800   6.0131645  67.3804283  38.8366866  46.3374567
  68.2740355  39.0868235  46.5722561  67.3213005  37.9106975  46.5725756
  69.5759678  30.5456781  11.6998219  70.2370167  31.2021923  11.4801931
  70.0194263  29.7071171  11.5717828  54.0439701   5.2954280  23.4022546
  53.8131142   5.9549975  24.0564013  54.9529457   5.4913169  23.1750536
  42.7042484 102.4940491  67.4684763  42.2926474 103.0790710  66.8324232
  42.6513243 102.9675388  68.2986784  66.3027668  21.4037204  33.3969092
  66.2268543  22.1746039  32.8345871  65.6208229  21.5215468  34.0582013
  55.3247690  65.2012157  27.9575539  55.0798607  65.8307314  28.6357546
  55.5820847  64.4162178  28.4410810  38.3714867  97.6131058  20.2543616
  37.9085064  97.3186874  21.0387039  37.9814029  98.4632111  20.0509167
  25.1189709  17.1220303  40.5506992  26.0670018  16.9929433  40.5223131
  24.9418807  17.7512407  39.8514390  61.7982912  28.4282994  12.0537949
  62.1662760  29.3112445  12.0187151  62.2111702  28.0269504  12.8184402
  54.8678732  19.7084904  39.8534846  54.0899181  19.5984316  40.4001999
  55.1776648  20.5919671  40.0528145  73.4447670   9.1826850  74.1538191
  73.9033890   9.9721164  74.4413900  72.9190779   8.9221650  74.9101353
  98.7791634  37.7867723  21.1103797  98.4063911  36.9287848  20.9075761
  98.5767841  38.3230996  20.3438091  88.9312458  54.0128946  24.3976951
  89.6873760  54.4408369  24.7993875  88.3533955  53.8081455  25.1328135
  64.9266434 102.8588390  10.2903402  64.1875935 102.4604988   9.8306000
  65.2896643 102.1492100  10.8203113  67.1072197  21.0312438  55.9029198
  67.6844120  21.7157817  56.2412882  66.2243128  21.3797927  56.0263014
 106.0368538  63.5870838  10.3021884 106.0809994  62.9552650  11.0198832
 105.1111889  63.8249016  10.2490556  83.3376980  47.2522736  34.1722226
  82.8565311  46.5141392  33.7982345  84.2539692  47.0721722  33.9618492
  48.0750561 102.0112896  53.1341934  47.1214199 101.9354534  53.1016397
  48.2777977 102.0846176  54.0667963  94.8087502  28.7216663  20.3786635
  94.4974709  28.1463695  19.6798265  95.7567215  28.5898495  20.3929925
  87.2357082  26.9685292  23.0910349  87.1488857  26.0577798  22.8095603
  86.5712070  27.4391246  22.5878286  71.0018682   0.2200952  55.7365417
  71.1338091   0.8042566  56.4832544  70.0588846   0.0561647  55.7243824
  99.6218204  16.8139064  18.9903140  98.7413216  17.1583474  19.1396844
  99.6612072  16.6581953  18.0466855  75.4326868   4.8015711  28.5335875
  75.8253002   3.9670786  28.7899303  74.4892836   4.6497783  28.5899925
  82.5143623   0.1328984  15.6462276  82.6094151   1.0124926  15.2808356
  83.3848667  -0.2563727  15.5630398  29.6230650  24.3640280  37.4705791
  29.4080043  23.6301041  36.8949604  30.0906563  24.9809599  36.9075656
  39.1889024 108.4479713  51.5074968  39.5441437 108.6873245  50.6514931
  39.2071700 107.4909782  51.5153170  71.3944864  27.3463058  19.0522861
  70.9658718  28.1950212  19.1627550  70.9031630  26.9194055  18.3504403
  37.9901314   2.7407804  53.7906933  38.5467100   3.1055450  54.4787359
  37.7419639   3.4961790  53.2577610  77.7613688  45.9995174  27.4542046
  77.9629803  45.7813692  26.5442610  77.6186848  45.1529360  27.8774977
  76.2215281  53.2801342  37.6583719  75.4996157  52.7552652  38.0041909
  75.9011698  54.1814041  37.6945782  34.1108608 103.7410355  26.3927507
  34.2993641 104.6765232  26.4672494  33.4053421 103.5880661  27.0213008
  37.2596955  98.9996338  69.1444063  36.3755822  98.6494064  69.2535686
  37.2587967  99.8135185  69.6482134  13.9918137  98.9206791  64.5332718
  13.7337315  98.5049152  65.3559256  14.9371982  98.7804222  64.4802856
  67.4841166  29.0627956  41.7972612  67.1142817  28.7300277  42.6150131
  67.4092150  30.0142694  41.8702173  88.7883949   8.7240851  37.2634387
  88.4329128   7.9274601  36.8694186  88.0525970   9.1019583  37.7451444
  71.6670132   6.4331812  42.9327440  72.3629379   6.0558468  42.3946619
  71.0320091   5.7242322  43.0346918 100.5278873  25.0125384  43.9947605
 100.4989815  25.4100394  43.1244802  99.8778915  24.3107748  43.9592552
  92.7847290  49.1860247  23.6069202  93.2940960  48.8003254  24.3196726
  92.7768993  48.5127735  22.9265451  60.3117990  18.7363434  32.9758334
  59.9711514  18.6400008  33.8651657  59.6388721  19.2369294  32.5145173
  87.8817749   3.2938942  25.4777861  86.9620895   3.0390725  25.4037452
  88.1346035   3.0245227  26.3608193  65.3981876  19.1535699  76.8713379
  66.2208796  18.8255382  76.5082884  65.2257967  18.5874522  77.6236820
  44.1667032  25.7786107  24.9493575  44.1809225  24.8218346  24.9246669
  43.8186216  26.0350919  24.0953732  44.9558973 101.8370819  69.6556377
  44.1752911 102.0651913  70.1604605  44.6150446 101.4900208  68.8312578
  93.1987095  15.2487206  44.3633890  92.7184010  14.4225001  44.4171953
  93.9693165  15.1141477  44.9150038  63.5222769  95.6480503  47.2408342
  62.6236296  95.9200573  47.4270439  63.8621330  96.3270187  46.6579723
  90.1442146  37.2795057  50.9944963  89.8993397  36.8174171  51.7962074
  90.9792805  36.8881893  50.7380533  85.3996277  14.2558181  26.5252399
  85.0358295  13.9376867  25.6990004  86.0426044  14.9156511  26.2655473
  70.6479692  17.2563195  34.1040564  69.9937820  16.5579474  34.0806389
  70.6750011  17.5285172  35.0213385 102.4919891 103.8817883  83.1117916
 103.1349754 103.8627625  83.8206196 101.7266178 103.4326649  83.4705734
  84.1816711   7.0788485  69.7518492  83.5629177   7.8062189  69.6862364
  85.0277805   7.4626559  69.5216084  64.7835064   4.3783584  13.2777047
  65.6319094   4.1000754  12.9327357  64.2460299   3.5865200  13.2592082
  65.0559282   6.2827325  30.6322551  65.5002594   6.6821796  31.3800812
  64.9438477   7.0004499  30.0089169  95.8579636  16.2512934   4.6286938
  96.1443996  15.6550002   3.9368698  96.6656494  16.6545737   4.9468893
  80.9754658  49.0925360  27.2153568  81.2348652  50.0042200  27.3486829
  81.5721226  48.5901642  27.7702045  25.8156133  26.0243082  23.5960102
  26.1772609  25.3555274  24.1775393  26.1150622  26.8534088  23.9690423
  88.1881809  14.3660903  13.4377468  88.4501648  15.0972712  12.8783071
  87.2919559  14.5751035  13.7010336  68.1388855   9.5279163  24.9564123
  68.0968475   8.6659694  24.5422697  69.0669394   9.7609246  24.9308324
  72.6146317  46.8091059   9.0209937  72.4915457  46.8306351   9.9700028
  71.7853642  46.4745998   8.6794490  62.0436049  10.8409619  12.0134366
  62.4021578  10.7319415  11.1326480  61.1217451  10.5976486  11.9285738
  75.4026318  32.9599333  43.6599302  74.5058393  32.6269126  43.6269188
  75.9501219  32.1748042  43.6520958  37.4671578  24.5633197  52.5726843
  36.7678022  24.1599321  52.0584726  38.2399082  24.5086217  52.0104551
  66.4196730  16.9374454  59.7228003  66.5569401  16.6451633  60.6238842
  67.2527885  16.7630899  59.2849016  87.8028584  20.0323319  44.0150452
  87.2987747  20.4441667  44.7168493  88.6699772  19.8900962  44.3946648
  53.3226109  13.5725820  33.8942432  54.1062021  13.5275328  33.3463526
  53.3672237  12.7881646  34.4409871  80.6880283  46.6929150  40.4602814
  80.5045795  45.8665895  40.9072351  80.0244808  46.7456102  39.7724199
  71.8899393   0.6401557  50.8189344  71.3962936   0.2905363  51.5607643
  71.6780710   0.0538506  50.0925779  82.6645660  15.7556069  54.4175339
  83.5281181  15.7261276  54.0056515  82.8358364  16.0496938  55.3121901
  75.3840113  24.5713377  79.5350122  75.3142881  25.5015945  79.7494745
  74.6216822  24.3948460  78.9837122  66.7017746  24.1026568  20.2023244
  65.7534075  24.2216682  20.2539754  66.8151855  23.3029127  19.6887314
  51.7517233   7.5398552  80.8982658  52.4013472   7.6166761  80.1994610
  51.7509794   8.3990866  81.3201046 113.9503384  72.0981550  86.2067604
 112.9961014  72.0983648  86.1314297 114.2222404  72.9248571  85.8081818
  58.0448198  23.1577659  38.6688638  57.3291206  23.4947085  38.1299019
  58.4587717  22.4873066  38.1253910  39.3268085  88.1851578  46.3842249
  39.9950743  87.5455189  46.6302204  39.6857738  88.6214542  45.6115580
 109.0131760   0.8786216  49.9402285 108.3922100   0.6622365  49.2446613
 109.8631001   0.6031100  49.5967770  65.5554581 101.5797424  61.9103861
  65.0630999 102.1302891  61.3015270  65.2067184 101.8052101  62.7728128
  94.4642639  93.7838078  24.5874739  94.0324783  93.6152172  23.7499928
  95.2141380  94.3350029  24.3636513  85.7248116  52.5302982  54.7638035
  85.9033012  53.4180069  54.4533968  86.1528969  51.9620466  54.1234350
   8.4937567  30.2580261  35.3244495   8.8400394  31.0283613  34.8740005
   9.2585826  29.7007322  35.4683161  22.9741454  63.2270527  81.8521595
  22.8751397  62.2765827  81.9072914  22.2125959  63.5185099  81.3508320
  63.7094688  91.4512062  29.4131374  62.9472637  91.4784527  28.8347507
  64.1718006  90.6513882  29.1625714  12.8812504 108.2622337  47.7854729
  12.0083964 108.0413532  47.4605560  13.4483588 107.5757313  47.4342775
  14.0172279  10.4720902  47.3440218  14.9638128  10.3687191  47.2464371
  13.7322509   9.6689183  47.7798367  91.0396004  39.1857862  35.5064797
  90.7067871  38.4734106  36.0523653  90.7693577  38.9531636  34.6181750
  30.5181932 105.5479622  54.3176365  31.1383295 106.1622047  54.7105360
  30.9849906 104.7124195  54.3035984  23.2757235  11.3829947  12.5483739
  23.1722522  10.6943059  13.2050574  23.7112546  10.9502339  11.8140280
  34.2168331  15.8954239  54.6649790  34.0656519  16.7870951  54.9785042
  34.2100930  15.9726310  53.7109184  17.4900687  87.5209999  93.5650730
  17.8911495  86.7986488  94.0483665  17.8633153  87.4574375  92.6859379
  88.3587551  38.9511895  25.6110430  87.4170399  38.8778543  25.4560232
  88.4287453  39.4161534  26.4447951  61.7284346  25.6797194  31.5263009
  60.9553337  25.4166031  31.0269880  61.9537926  24.9066949  32.0438695
  69.5985746  17.4220586   6.2103415  70.2900410  17.6258373   6.8400848
  69.9522066  17.7040434   5.3667426  80.6671906   5.8849317  29.9936867
  81.0720348   6.7512316  30.0367880  80.2156639   5.7895768  30.8322906
   1.1949459  57.8654814  77.1815491   0.8279358  57.0387697  77.4947309
   2.0754910  57.6386166  76.8825436  33.1951666  96.7768288  37.8687072
  32.5282764  96.3632107  37.3206091  32.7702141  97.5635529  38.2103539
  39.3111658  26.7207360  84.6381855  39.4435501  26.3260794  83.7762356
  40.1587296  27.1079969  84.8570251  43.9162493 101.7388344  25.6631541
  43.9402294 101.1990261  26.4532566  42.9946947 101.7438984  25.4044223
  61.7433310   2.8952283  68.9452839  61.2023401   2.7003312  68.1800556
  61.5144300   3.7951806  69.1774988  62.8415012  47.6450825  32.7762055
  63.7978888  47.6084948  32.7909279  62.6195812  47.7375031  31.8496823
  67.6168156   2.5575370  25.8983183  68.4490681   2.4762636  26.3641286
  67.7316570   2.0288165  25.1086998  25.1891017  16.6153753  51.7855310
  24.8116970  17.4538314  52.0515919  25.3815174  16.1672008  52.6091480
  33.0480337 108.1113815  34.0287447  33.0853748 107.1873856  33.7816262
  32.3391199 108.1593132  34.6701288  85.5606461  66.5715075  39.9408078
  86.2666988  66.1850119  39.4227886  85.9922218  67.2400522  40.4728079
  69.7342062   4.0919763  43.4918737  69.6157742   3.1608567  43.3041954
  70.0312376   4.1170770  44.4014740  71.7992401  35.9712076  46.9120884
  72.7114248  36.2458396  46.8186665  71.4748764  36.4690590  47.6625299
  89.4510078  37.5593805  59.7070885  90.2870178  37.3837924  60.1389217
  88.7991333  37.4715352  60.4024744  34.2650795 101.8999100  54.5140743
  33.9088154 101.4460468  55.2778244  34.0491700 101.3310623  53.7751389
  18.6815786  22.7388883  38.5064650  19.1578269  22.9714060  37.7093744
  18.9150524  21.8245625  38.6668658  88.3040142  19.5579100  31.7758799
  87.3817730  19.6285141  32.0223045  88.7400150  20.2445245  32.2805476
  46.2934637 105.6931019  13.6156499  45.5749178 106.2579727  13.8999927
  46.8080950 106.2404537  13.0225217   7.7193838  89.5396996  30.4638433
   7.1094787  88.8021374  30.4795766   8.1583595  89.5056725  31.3137698
  53.5785437  19.3408012  66.2570906  53.5036659  19.4374216  67.2064543
  53.4891510  18.4001148  66.1042881   4.7464272  77.2088003   5.0378656
   5.1224059  76.3287258   5.0561339   3.8292855  77.0825386   5.2810532
  76.2919092   5.0451267  65.4093170  76.0412169   4.4083047  66.0785294
  77.0332766   4.6402204  64.9591446  73.7032413  19.7410941  45.2368593
  73.3778524  20.6388354  45.1704121  74.6559525  19.8288393  45.2072382
  53.3505297  15.2285028  41.3879538  52.8788757  14.4129062  41.5569973
  52.7689981  15.7268906  40.8137894 101.8337440  48.5058212  23.7973762
 101.3920879  48.4258032  24.6428204 101.2143135  48.1369686  23.1677079
  86.7347908  21.9259477  35.9454751  85.9653091  21.3683081  36.0602117
  86.3775730  22.8068066  35.8327222  59.4423771  49.7831869  17.2746599
  58.7972355  50.0497293  17.9296207  59.8727226  49.0195751  17.6592755
  47.3213768 109.0252209  73.6945391  48.2421827 108.8106632  73.8439131
  47.2304583 109.0402603  72.7417850  60.6338644  30.7894874  40.1923323
  60.4328823  31.7129159  40.0402975  60.1860380  30.5786371  41.0116148
  70.6228209  16.5957057  50.0417233  69.7299051  16.8535805  49.8127270
  70.8482218  15.9196651  49.4026661 106.3488007  31.5110564  55.1696539
 105.5117512  31.9719148  55.2262068 106.4708233  31.3500452  54.2340136
  79.4481945  49.2596149  56.0856724  78.5064316  49.4245625  56.1315060
  79.8200178  49.7986221  56.7838478  93.7774849  10.0360286  50.3280497
  94.0214920   9.8753798  49.4165182  94.4290257   9.5554209  50.8386755
  87.2011757  41.6504049   8.0306476  87.4234200  42.2637653   8.7310976
  87.9815006  41.6263628   7.4768072  70.4231310  31.8890667  51.1541271
  69.9777412  31.7978001  51.9964647  71.2683392  31.4584279  51.2822056
  82.2875690  27.4891615  31.1607575  81.3823128  27.6223755  31.4418221
  82.3961353  28.0793643  30.4150319 111.3720608   9.5865649  20.4828143
 111.5813446   9.6025270  19.5489109 110.4330063   9.7680753  20.5209637
  80.4701900  34.6979976   7.0417845  80.7638359  34.3831778   6.1868620
  79.8718262  35.4172373   6.8395716 100.1069164  48.9549541  16.5093505
  99.8176098  49.4936419  15.7729113 100.7672119  48.3719063  16.1347771
  94.8215008  23.8035011  47.8540039  94.7507000  23.0644774  47.2497988
  94.7104073  24.5766830  47.3007631  40.4632235  29.6063495   9.1096288
  40.0180483  29.2318797   8.3494824  41.3897991  29.4169593   8.9618868
  98.9863968  32.4949980  22.8074884  99.3447590  33.2131553  23.3290839
  99.2136669  32.7179813  21.9047928  99.4968605  28.3977795  39.2667270
  98.7296581  28.2197189  39.8107123  99.3685722  27.8570652  38.4873676
  82.7612209 108.1468678  50.6762409  82.4629211 107.4735546  50.0647736
  82.8139973 108.9435101  50.1482058   6.4362937  86.4395905  71.7567873
   6.4959621  86.5389156  70.8066273   7.3218977  86.1985111  72.0284891
  64.7025967  11.2578857  38.0458045  64.5813084  10.4941249  38.6098886
  63.8834333  11.3258803  37.5553083  59.8505497   0.7413525  83.9581394
  59.6961880   1.2571904  84.7495461  59.8847008  -0.1644980  84.2655468
  60.0613928  40.8346224  52.6218987  59.8205805  39.9208164  52.7742243
  60.4297781  41.1273766  53.4554577  67.8233910   5.8650464  39.3010616
  68.3000183   6.6583848  39.5453358  66.9913721   6.1836779  38.9511299
  72.2682953  28.0346894  36.6317248  72.8903055  27.4091911  36.2601233
  71.6514540  28.2099962  35.9210873  86.6450405   0.8617125  48.2262707
  86.7078304   1.5213856  48.9170074  87.4634743   0.3694588  48.2900715
  92.7349281   1.8037459  35.3923655  93.2802296   1.1259036  35.7916236
  91.9066334   1.3634370  35.2018929 107.3206806  30.5805779  30.3005385
 108.0743313  30.9893012  29.8748779 106.5663719  30.8851433  29.7960615
 108.7596893  16.6786563  27.9470611 107.8632641  16.3501143  27.8783679
 109.1782093  16.4052212  27.1307850  78.1045723  47.3877573  53.2816744
  77.2851992  47.3717403  52.7870989  77.8352833  47.5477028  54.1861820
  81.4457893  28.1228566  81.6505241  80.5378151  28.3965945  81.5205956
  81.4511299  27.1937728  81.4202881 103.4364223  72.6927471  21.6983604
 103.0115986  71.8448162  21.5688491 104.3692017  72.4865818  21.7586780
  65.5343485  24.3210554  38.3844805  65.6688786  23.5639668  37.8144360
  66.2557602  24.2794085  39.0122247  85.5854511  30.2604079  42.8814983
  86.3679504  30.7612920  42.6511765  85.1129913  30.8229637  43.4951258
  69.5428038  24.2181015  56.0753155  69.4248629  25.1020384  55.7275009
  69.3595552  24.3024731  57.0110178  91.4441013   8.7957388  44.2760754
  91.1023140   9.3606335  44.9691153  90.9360981   7.9881257  44.3530130
  95.3931618  32.1119404  58.3429050  94.5400620  31.9784713  57.9298306
  96.0264492  31.8501329  57.6746035  98.3723545  50.6764174  54.9998569
  98.8906288  50.0606871  55.5180311  97.4894428  50.6119776  55.3639269
  77.6989603  20.1655293  34.0311766  76.9348526  20.2862120  34.5949221
  78.3877993  20.6838465  34.4472027  85.9490776  65.7557011  43.1463051
  85.2115250  66.3284206  42.9360008  86.7065334  66.1846733  42.7482128
  90.4239559  40.2816391  53.2614326  90.2981472  40.2293539  52.3139811
  89.8234653  39.6277189  53.6192417  73.7935162  18.9296162   5.7469410
  74.1677141  18.0720305   5.9488207  74.5329809  19.5342338   5.8090848
  15.4076040  61.0916805  94.5630360  15.2814794  60.2975988  95.0824165
  14.9250579  60.9271622  93.7528992  13.8017738  11.4370155  31.7281413
  13.1056678  10.8762467  32.0704985  14.0487635  11.9912255  32.4684644
  45.7480288 105.9444618  31.4360642  46.1410284 105.7565212  30.5837369
  46.2474728 105.4097748  32.0532322  79.1456079  10.1952803  58.5216379
  79.8268414  10.6041801  57.9878235  78.3320332  10.3747737  58.0503511
  92.3428535  19.9218512   5.0178379  92.5637054  20.7944989   5.3433210
  92.5017452  19.3413138   5.7621235  76.9752407  32.8846145  50.9638548
  77.5155497  33.4938788  50.4607630  76.8842983  32.1197367  50.3955889
  57.5072289  15.7727957  16.6367602  57.1510506  16.2669599  15.8984041
  56.7598248  15.2831674  16.9801068 101.1474228  36.1311197  52.8593493
 100.8734226  36.9655704  53.2399416 100.3291512  35.7007766  52.6114178
  11.5473914  31.6707683  12.3254490  12.3771369  31.9493127  12.7129626
  11.5044177  32.1371102  11.4906371  71.2935066  31.8307686   5.6738442
  71.0539055  31.2069082   4.9885538  70.6078863  32.4978971   5.6407791
  87.9827213  43.5446072  20.9992838  88.4228706  42.7191782  20.7963872
  88.5085964  43.9305782  21.6997957 105.0481987  36.2412190  62.5434399
 105.8065891  36.1709023  61.9636774 104.3940163  36.7110085  62.0261621
  45.8951378 106.0345078  67.4813938  46.2014675 105.4187298  66.8156576
  45.0755167 106.3807106  67.1284103 101.9173431  50.2893686  44.3062353
 101.8147850  50.0616646  45.2302837 101.0470104  50.5793190  44.0329742
  73.3642626  31.2836266  50.8279705  74.0104866  30.5774999  50.8316994
  73.7812805  31.9873166  50.3308344  74.9062109  39.4126916  46.3739538
  74.1889620  39.7332811  46.9207716  74.7709942  38.4660029  46.3323593
  41.1301613  99.0895176  52.2745132  41.2168932  98.1437397  52.3937702
  40.7211351  99.3964386  53.0836678  97.2299290  46.7857838  29.3204880
  98.0382252  47.0853615  29.7365880  97.4161053  45.8847141  29.0565920
  41.8780279   2.7065209  68.4813404  42.5350094   2.4353951  67.8401661
  41.0588074   2.3315772  68.1580353  68.0907583   5.8416790  26.9023728
  68.5972977   6.5670776  26.5370655  68.7487078   5.2501345  27.2676277
   8.3615088  22.5263333   2.6202750   7.5124931  22.1104503   2.4704553
   9.0007335  21.8827200   2.3146819 102.8319836  41.2387037  42.9466486
 102.2548294  41.4479589  42.2122526 103.6944008  41.1224985  42.5479507
  75.2597284  24.5532179  13.6911774  74.5480776  23.9895797  13.3877039
  75.7231712  24.8049188  12.8923678  68.1108427  14.8257804  10.5545127
  67.5531101  15.6004369  10.4833007  67.5696945  14.1822684  11.0119843
  76.8415403  25.1988482  30.1709986  76.1055136  24.6117258  29.9984264
  76.9489288  25.1752210  31.1218619  95.9209156  50.3255653  27.0277500
  95.9295559  51.2813807  27.0785260  96.1224270  50.0366068  27.9177666
  75.6817579  34.6956897  30.0463462  76.0036802  34.8882818  30.9269738
  75.2548742  33.8429046  30.1285625  95.4159832  25.8855057  40.4938650
  94.6728992  26.4877772  40.5302048  96.0297871  26.2987995  39.8866868
  81.0016251  39.7486401   5.9832138  80.4008389  39.1701388   5.5135107
  81.1978531  39.2816949   6.7954254  87.7789688  35.2394342  19.4440198
  88.1709862  34.4146395  19.7308457  88.0986404  35.8875966  20.0716519
  91.7079067  10.0813794  47.2479677  90.8432961  10.3886867  46.9754744
  92.2148132  10.8819079  47.3837280  22.7645063 102.4604321  18.0483210
  22.8376937 103.2749271  17.5508559  22.0511508 101.9838047  17.6238430
 112.5884533  53.3925962  30.8733702 113.3075523  54.0210819  30.9376550
 113.0152512  52.5363588  30.9039831  87.4181557  22.9464555  32.9621887
  88.2268524  23.0601311  33.4614968  86.7361546  22.8574109  33.6279035
 114.5520878  92.9966259  84.2754650 113.6774731  92.8163624  84.6201229
 114.8511600  93.7604809  84.7687340  12.5119519 104.7363377  90.6729412
  12.1205533 104.3094254  89.9108410  12.1515119 105.6230164  90.6621838
 103.2365322  46.3568783  54.0248251 103.3181381  45.4113722  54.1496706
 103.5133648  46.5038252  53.1203890  80.7378578  20.3620219  14.4587290
  80.1290798  19.6233773  14.4533145  80.4570007  20.9092569  13.7253213
 104.2870331  48.1839418  50.5864096 105.1894474  47.8662395  50.5556774
 104.3698025  49.1366529  50.6278419  19.9117649 101.6213894  63.0204058
  20.6019807 102.2672367  63.1711292  20.3493452 100.9067345  62.5577784
  52.4110699  10.3100455  40.4700851  53.3452272  10.1146054  40.3967333
  51.9784975   9.4674695  40.3316021  26.1122918  38.8463092  63.5700798
  26.5795088  39.6654820  63.4060860  26.8033051  38.2070136  63.7433720
 112.5131321  30.8210373   6.5617484 111.6214371  30.5147243   6.7269671
 112.5750732  30.8747816   5.6080681  76.1191368  43.8649511  41.8234301
  76.3422489  42.9742575  42.0938253  76.5504026  44.4260406  42.4679661
  99.8965263  70.0348806  50.5206537  99.1953087  70.0788307  51.1707354
  99.8751926  69.1310978  50.2060843  96.5612602   1.1229656  17.5275970
  96.1084938   0.3095164  17.3050261  95.8588982   1.7601569  17.6576293
  60.3950596  13.2169902  62.6561022  60.8526993  12.7890491  63.3797455
  60.0003433  12.4974823  62.1634150  81.7518902  64.5137548  20.4631543
  82.6686096  64.5445013  20.1894426  81.4151001  63.7030268  20.0816894
   7.4703521  53.2990932  29.0115643   6.6425031  53.5891819  28.6284900
   8.0977333  53.3465958  28.2901978  61.5458250  34.2418265  34.0461421
  62.1035957  33.7821603  34.6737027  62.0866156  34.9657845  33.7304473
  87.9182816  59.3497849  58.3402061  87.4339962  58.5981560  57.9985094
  87.6843262  59.3838787  59.2677498  71.8665504  27.1804261  57.8836155
  70.9418058  27.0260835  58.0766439  72.3358917  26.7392635  58.5916567
  90.2407360  43.1517553  54.9252748  89.5163631  42.8833818  55.4905081
  90.7733250  42.3624468  54.8274422  94.4122124  49.5621538  18.1883156
  94.8161507  49.9201727  18.9788127  93.4748554  49.7145319  18.3082700
 102.9543686  29.0090466  43.9890146 103.8898945  29.2111349  43.9752102
 102.9135799  28.0784965  44.2095709  65.1122952  30.6219673  37.8428197
  64.3324614  30.4723263  37.3083091  65.7284975  29.9454069  37.5621223
  73.4886026  36.9043851  34.4966650  72.7580166  36.3113904  34.3210864
  74.1510630  36.3519621  34.9116421  57.0961618  77.6325417  28.6047482
  56.8161821  77.1833086  27.8072309  56.2948084  77.7287626  29.1193414
 101.5648174  23.6265874  47.0330858 101.9784069  24.0646005  46.2892294
 100.6298447  23.7999392  46.9235086  68.7146997  39.6682811  65.9617949
  67.9452610  39.8378539  65.4182434  68.3562851  39.3734384  66.7989540
  77.2763109  39.9150133  29.4884491  76.6671562  40.6292343  29.6756744
  76.7139006  39.1680837  29.2834544  58.5313606   1.6550902  38.5863018
  58.1334972   1.9087830  39.4191122  57.9982042   0.9216075  38.2797432
  94.2863846  26.7484832  61.5005159  93.4330177  26.3262796  61.5992403
  94.2148399  27.2455549  60.6856346  74.0050220  42.3310900  32.9693031
  74.4406557  42.6373959  33.7646842  73.5692453  41.5203238  33.2319665
  80.0163651  20.4222965  37.1913648  80.1008606  21.1566377  36.5832233
  79.1351938  20.5120397  37.5542927 108.8448906  44.0113115  51.1958313
 108.6901760  43.1342220  51.5465450 107.9905224  44.2924690  50.8683634
  97.8948689  80.5607891  41.3667488  97.8859711  79.8466349  42.0040274
  96.9712448  80.7723522  41.2311745  62.6985121   8.4479296  50.2209806
  61.7982626   8.6135912  50.5008698  63.2386589   8.8445449  50.9044790
  66.2390089  74.0317965  21.1938500  66.5819597  74.6943474  20.5941439
  65.9478283  73.3203030  20.6235719 104.0379715  54.2971659  53.6329031
 104.6762466  53.9440536  54.2527008 103.6349964  55.0313997  54.0963030
   9.8533964  45.1203060  63.4406376  10.5511236  44.4650269  63.4362268
  10.3115237  45.9574795  63.5147381  69.1835213   3.7722018  77.5667048
  69.5068598   3.7811807  78.4675980  69.7547293   3.1521520  77.1133947
  98.5846615  14.2669022  43.1756067  98.8483143  14.8713887  43.8693762
  99.4081783  13.9088368  42.8441763 112.1066475  26.1188769  24.6502995
 111.7140675  25.2941585  24.3640375 113.0472374  25.9923625  24.5257211
   3.3060890  55.7369566  27.5918627   2.8387830  56.4992476  27.9335761
   3.8232246  56.0799313  26.8630481  60.6136942 102.1780109  71.1286211
  59.9428034 101.8121052  71.7050314  60.2975702 103.0573654  70.9211636
  64.5802402  21.2096095  40.3552103  65.4605198  21.1348987  40.7236671
  64.2646313  22.0604897  40.6595516   5.0436884  37.2147679  38.0543661
   4.1137245  37.3060131  37.8468275   5.4166704  36.7710400  37.2926426
  82.3531151  19.2150235   7.7175248  82.9326153  19.8639321   7.3183757
  82.3114681  19.4664431   8.6401767 108.6977959   7.6626742  54.8649931
 109.2146015   7.0059633  54.3982315 107.9538441   7.1750379  55.2185297
  91.2347317  25.9740281  31.0755110  90.5410671  26.2780929  31.6608334
  91.1368275  25.0219393  31.0623908  78.4956837  50.8882284  35.6048107
  77.9891968  50.6022358  34.8446035  77.9084921  50.7528591  36.3485265
 113.3621120  29.6490908  64.5713806 113.3971596  28.9036322  63.9719677
 112.4282074  29.7823429  64.7335339 113.1014252  11.2194443  50.8097553
 112.8814411  10.3112924  51.0173607 112.2564602  11.6403508  50.6513166
  91.3425446  11.6008413  58.1365108  90.6052208  11.6580105  57.5287914
  90.9574699  11.2759626  58.9503956  15.7079101 100.7817173  67.0145798
  15.3972673  99.9253750  66.7206144  15.5559027 101.3609314  66.2678289
  93.2477188  28.2664990  45.0026178  92.5362206  28.1858945  44.3673944
  92.8070259  28.3154368  45.8509254  41.9203758   7.7349693  16.3478315
  41.1013412   8.0565041  15.9709609  42.1295261   8.3640277  17.0383203
  56.5807152  16.2504947  13.7461042  56.4600325  17.1960664  13.6591494
  57.5265026  16.1220968  13.6737931  72.6455450  29.4287682  15.9492052
  72.8776646  29.0375066  15.1070261  73.4072447  29.2678642  16.5061212
  81.0643005  45.5767584  33.1240797  81.3824844  45.1841402  32.3111582
  80.6522083  46.3958216  32.8492188  75.7227755   9.3207073  57.5650072
  75.8960533   9.8199773  56.7669249  75.1636267   9.8938966  58.0894470
  52.7961540  28.4300661   3.6633927  52.8275490  27.5143266   3.3865017
  52.9621983  28.9281225   2.8630179  99.8791885  22.7565193  16.7166162
  99.2477036  22.6913905  17.4330091 100.0384521  21.8497729  16.4545476
  74.6498108  22.8263855  45.4456139  75.5721855  22.9850435  45.6463242
  74.2922592  23.6947083  45.2601290  97.0681858  31.9511366  27.8421926
  96.1236000  31.8694043  27.7106261  97.4134922  32.1618748  26.9746757
  94.3705845  23.7789702  39.2086124  93.9160347  24.4547176  38.7056375
  94.9476528  24.2658210  39.7970009  12.5731003  95.6709480  75.9861040
  12.0273149  94.9432468  75.6880951  12.2448957  96.4297295  75.5036545
 103.2392693  16.7690206  57.0583344 103.6244202  17.5941420  57.3533916
 102.8152561  16.9859958  56.2280512  46.6738367 106.8421268  53.0618811
  46.9486618 106.3971043  53.8635397  46.0732794 107.5249195  53.3608246
  93.7139034  41.5841293  23.7269831  93.5356331  40.7271338  23.3396721
  93.3751297  41.5186071  24.6198249  64.1693783  12.9055393  43.7650442
  64.2221975  13.2031691  44.6732616  63.8053226  13.6520159  43.2891607
   1.2769172  24.3026710  36.7368889   1.2537098  23.5574412  37.3371601
   1.0108668  23.9385247  35.8925891  87.2978306  24.9747276  39.5016170
  86.5336990  24.8421335  38.9405918  88.0469894  24.8143792  38.9277864
  62.9273272  40.5830193   8.0692172  62.7189970  40.1607513   8.9025956
  63.2247734  39.8682547   7.5063074  88.3578777  24.7121477  61.9472694
  87.8560829  24.8167443  62.7556562  89.1051769  25.3011656  62.0513344
  85.4308891 102.1992016  37.5012398  85.7695103 103.0930138  37.4496174
  84.9066639 102.0954418  36.7071009  11.5667486  54.7813034  58.5485125
  11.3973582  55.6627512  58.2159662  12.0220065  54.9218941  59.3786955
  92.7750397  12.8409982   4.9211460  93.5480213  12.6659620   5.4578978
  92.8090096  12.1800792   4.2295793  66.4267826  46.6974497  19.3720889
  66.6563177  46.9550323  20.2649450  67.1781206  46.1875248  19.0692687
  47.3170757  38.9598656  50.0511169  47.5057554  38.7833166  50.9727764
  47.8901052  39.6926236  49.8254204  93.6507702  46.7741632  45.3703785
  93.0275726  46.9271326  44.6601248  93.8439655  47.6473141  45.7117128
  89.0453053  76.4918184  64.0032578  89.6653461  76.8913078  64.6133327
  88.7185860  77.2238445  63.4801722  59.6977615  86.1588001  24.4710350
  59.6937227  85.2140045  24.6246266  58.7725115  86.4038563  24.4614506
  86.6331005  45.6202364  46.5322781  86.3472939  45.6337309  47.4457121
  87.5813198  45.4983616  46.5797806  68.0740070  75.2057648  24.4916129
  68.5413647  75.5550861  25.2504182  68.5325336  75.5752420  23.7369776
  31.4545369   6.3902688  42.3827457  31.8069577   6.7633402  43.1907368
  31.8099451   5.5019569  42.3541451  94.7995472  51.2635946  35.4702520
  95.7112217  50.9724331  35.4524040  94.8538399  52.2180605  35.5180001
  93.4874725  36.8132758  33.0891681  92.7341270  36.4502096  33.5548782
  93.1860161  36.9117951  32.1860361  83.9420891  50.8379602   9.4847751
  84.1709709  51.7636347   9.4012821  83.5592556  50.6085730   8.6379850
  69.4170380  47.0549345  17.5595856  69.3759346  46.8902111  16.6175628
  69.0226793  46.2780476  17.9560149  92.9068565  64.7134972  62.6087141
  93.2374763  64.2095613  61.8650913  93.4694481  64.4585133  63.3399487
  87.6252842   1.7101951  20.1105762  88.0198669   2.3274583  20.7266259
  88.0921268   1.8606967  19.2886066  92.4798012  42.2177553  50.2913332
  91.8713379  41.7268515  49.7390509  92.5484753  41.6983843  51.0924435
  73.4028292  14.8206449  79.3999434  72.5882053  14.3209887  79.3455648
  73.9176750  14.3674350  80.0676060  84.9727917  37.8750563  36.7839313
  84.8682117  38.7433815  37.1729112  85.4699612  37.3794222  37.4346256
  64.1060448  14.7525859  22.8862166  63.8377094  15.4291713  23.5078740
  63.8517141  13.9295053  23.3034515  52.5491524 107.0422459  24.3499637
  53.0990791 107.8200722  24.2561340  52.0259190 107.2119331  25.1333284
  33.9890456  98.0595875  54.0183783  33.4371471  97.3320007  54.3051672
  34.8817992  97.7740002  54.2124414 108.7361431  26.4979529   5.4412735
 109.1588020  27.1079636   6.0458201 109.1837120  26.6388440   4.6069688
   3.9134121  75.8826208  63.6543798   4.1035804  75.3746462  64.4430685
   4.7699434  76.0344744  63.2549715   3.6402771  21.3694882  50.3238344
   3.7388527  22.2703695  50.6319380   2.8017604  21.3646340  49.8622084
 110.2808475  38.1650782  49.2310810 109.8814201  37.3420310  49.5126629
 111.2020111  37.9476976  49.0881681  84.5478344  32.4547243  44.1924667
  83.9865589  31.9362259  44.7689772  85.3578091  32.5720406  44.6888733
  75.0055408  32.8980398  52.9317713  74.1437578  32.6311827  52.6118517
  75.5718327  32.8519034  52.1614361   2.4635291  67.9517174  77.4422884
   2.1384673  67.8819561  76.5446806   1.7570007  67.5959063  77.9812193
  82.8452778   1.5216598  39.6984100  81.9754601   1.3419600  39.3415403
  83.3037663   1.9785759  38.9932513  21.3367677  32.4532437  90.1434803
  21.3534713  31.5590477  90.4846096  21.6873884  32.3776293  89.2560291
  61.5253162  98.6689854  74.3736458  60.9315205  99.4113350  74.4857073
  61.1634541  98.1825256  73.6329412  93.6250210  57.4335098  58.3419514
  92.7882481  57.1636248  57.9635286  93.3848286  58.0044460  59.0717268
  46.5907192  43.0314255  55.9431362  46.4080048  42.8478098  56.8646193
  46.1049604  43.8352060  55.7581806  88.3199024  24.5771956  51.0833406
  89.0701962  24.0020919  50.9331751  87.5585556  24.0393901  50.8657312
  82.1291065  22.2427034  45.6381416  81.6426468  22.9012966  46.1339664
  81.4648628  21.8044233  45.1062250  68.4745884   9.9498159  58.0938911
  68.8699818  10.1292682  58.9469385  69.1373348   9.4431663  57.6245260
  63.9561033 102.0458508  72.0874929  64.0274191 102.2522259  71.1555338
  64.6129036 102.6017094  72.5068474  88.2920074  89.8632526  43.5893726
  88.1482220  89.2388725  44.3004990  88.4703732  90.6931591  44.0317202
  76.9527197  41.4476919  43.0694389  77.3956585  40.7507610  42.5853777
  77.6146317  41.7738724  43.6791182  90.2743721  38.1298208  21.0974050
  89.3606472  37.8594398  21.0066772  90.7281399  37.6843715  20.3819299
 116.0587692  33.1584740  28.2502842 115.3400326  32.5270247  28.2198668
 116.2254333  33.3760238  27.3331523 102.1472740   3.0590343  10.0024426
 101.7282677   2.8574586  10.8391213 101.8694782   2.3527524   9.4191515
  91.4314556  18.1894350  15.5566812  91.6565228  17.4354029  15.0116944
  91.2892532  18.9016688  14.9331951  91.6124630  28.9924502  34.7164726
  90.8904457  29.6189404  34.7658181  91.2993813  28.2276464  35.1994753
   3.7865371  24.1072392  51.0699272   3.0702642  24.4208264  51.6220570
   3.9566845  24.8294735  50.4652309  71.5165043   4.3965420  39.5925093
  71.9826412   3.9039102  40.2679777  70.5905342   4.2417836  39.7792387
  81.4464569  53.6405182  37.7036214  82.1099663  54.2760324  37.9721451
  81.5175438  52.9342270  38.3457494  31.3878942  95.8245182  91.7734623
  32.2532868  95.5218124  91.4983273  30.8548760  95.0300503  91.8042755
  97.5968933  37.3810625  33.1295228  98.2992840  37.8250027  33.6047101
  97.1567535  36.8503308  33.7934732  41.2960005 101.1893749  48.7929249
  41.0774565 101.9646549  49.3100405  40.9356451 101.3710308  47.9249477
  65.7077312  55.5999374  36.3532543  65.2215195  55.5686665  37.1771789
  65.6504631  56.5142822  36.0759068  89.6833992  43.7180662  31.8117762
  89.6055603  44.6460056  31.5901947  89.0370274  43.5822153  32.5045800
 111.0733700  47.5424433  54.7488832 111.0386562  46.6627121  54.3732500
 111.2560844  48.1141996  54.0032721  78.4512997  31.8676281  30.4822493
  78.5989857  32.7736354  30.7534909  77.5655556  31.8676114  30.1193547
  78.5898542  19.4440579  25.6977510  78.2106447  19.7659552  24.8799396
  79.4718885  19.1603398  25.4574227  98.9183235  35.9927797  36.7913747
  99.2342758  35.8126450  35.9059620  98.1231689  35.4662919  36.8736744
  49.8799992  22.2610688  56.6754675  49.4459963  21.4099383  56.7342234
  49.4789076  22.7829266  57.3704624  89.1403961  31.7470789   5.5337185
  88.3200932  31.2901640   5.3477705  88.9690018  32.6563263   5.2885151
  87.8576183  48.2653522  10.2455389  87.1449280  48.6136103  10.7812834
  88.6462784  48.6763096  10.5996060  90.3447533  32.4655962  28.1855059
  90.3428745  31.5246916  28.0096483  90.5235767  32.8677678  27.3355007
   3.6179042  78.2849693  83.9946938   3.7492365  77.9003525  84.8613262
   4.4734478  78.6444235  83.7600231  84.0167713  26.7692089  48.2008076
  84.5030308  27.4296284  48.6944008  84.2874146  25.9354424  48.5852861
  47.2169113  27.3135900   8.5109186  47.8801394  27.8694510   8.9200407
  46.4537716  27.3901677   9.0836233  92.8479576  31.0253358  16.5289736
  93.2250500  31.8990278  16.4255607  92.1209908  31.0030365  15.9066761
  41.7115974 104.8113823  13.7428927  40.8395863 105.1648426  13.5671198
  41.5479565 103.9498520  14.1265905  78.1564665  11.4464188  36.3844132
  78.2733107  12.3529732  36.1002707  78.0252600  11.5070140  37.3306394
 114.4046688  19.5520604  32.7094936 113.5215664  19.1941845  32.6185155
 114.2682266  20.4753065  32.9221725  80.7507229  55.1919746  30.1664543
  80.4141426  54.8187447  29.3518090  79.9739981  55.3161621  30.7118964
  26.3813996  12.1554518  39.1913462  27.2177672  11.6901076  39.2046905
  25.7558107  11.5344405  39.5644617  20.9627223  27.9680872  50.4747725
  21.3162541  28.5827065  51.1178017  20.8940125  28.4786391  49.6680212
  18.8731158  73.6098242   9.5997977  18.6826646  74.1882658  10.3382862
  18.5548699  72.7515221   9.8795664 103.9856434  99.1033363  13.6906302
 103.5002995  98.3894444  14.1042006 104.1627502  99.7170639  14.4035137
  89.8313141  56.4536190  59.9540520  90.6333351  55.9543800  60.1081562
  89.3964195  56.4772940  60.8064270  94.3140793  75.6331158  55.7109261
  94.2757702  74.6816540  55.6135750  95.2286625  75.8551121  55.5362892
 105.9002686  68.7744904  17.8760266 106.6965675  68.8140154  18.4057212
 105.7622623  67.8401613  17.7203918  86.7715645  52.6998997   0.3679822
  85.8403873  52.9067564   0.2882942  87.1911144  53.5441208   0.5338125
  46.1925316  87.6751614  93.6547852  46.4704084  88.0345058  92.8122425
  46.8438673  87.9959774  94.2785358 110.1876736  61.0915518  64.0237522
 109.4055653  61.3090181  63.5165548 109.8538494  60.6277370  64.7916555
  40.4098988  61.8598318  80.5267048  39.5868039  62.3197985  80.3618622
  41.0886955  62.5043392  80.3265095  91.7493343  71.8176413  60.0050831
  92.4741077  71.3025284  59.6506786  92.1162033  72.6928568  60.1301241
  88.1306267  74.8315239  27.5007725  88.8112831  74.3567467  27.0237756
  87.9473114  75.5977583  26.9571590   6.2789619  44.3043470  20.2501369
   5.5857778  44.0738010  20.8686638   6.9694507  44.6828318  20.7943845
  81.8771839  45.7873678  36.9462776  81.3192844  46.5470314  36.7792511
  81.8134785  45.2632475  36.1478639  19.0196550   4.4462258  39.5776606
  18.6423826   5.2074289  39.1366768  19.5713758   4.8173779  40.2661991
  71.6140079  17.6936316  85.5210495  71.8961096  17.4765122  84.6325111
  72.2596788  17.2709572  86.0873413  14.7516453  76.6919184  94.0157604
  14.7073019  77.5184345  93.5349941  14.7423577  76.0184288  93.3356380
 109.9285889  20.1726007  14.2282426 109.9547577  19.5498896  13.5017598
 109.2617321  19.8231280  14.8193502  61.2913990   4.2643672  80.9326458
  60.8813047   4.9484503  81.4618683  60.7705688   4.2379647  80.1299858
  82.6181412  76.6928339  67.3977375  81.6886425  76.9188833  67.3635721
  83.0064678  77.3607779  67.9627895   2.4260943  45.8752394  54.9503946
   1.9088161  45.6231308  55.7153082   3.3325383  45.7081127  55.2085733
 101.5901566  36.5109611  13.3541083 101.3147163  37.3470044  12.9780781
 101.4018154  36.5950966  14.2888165  91.4274883  48.0204582  38.9418340
  92.0937634  48.7075567  38.9558816  90.6936550  48.3883142  39.4341898
 113.5540771  27.9806519  39.9810600 112.9142284  28.5791683  39.5955658
 113.0607033  27.1775222  40.1477671  98.8325596  32.1003366  57.5942135
  98.8309574  31.9030023  58.5308504  99.7521400  32.2650671  57.3857260
  79.6270370  50.4890394  50.2136421  80.2772617  51.0205984  50.6728697
  79.4865990  50.9459734  49.3843508 106.3179016  20.7351136  30.0475025
 105.5731964  20.6340456  30.6403208 105.9250641  20.7873440  29.1761923
  85.5307007  44.9808264  53.4466457  85.4831219  45.0985909  54.3953800
  85.3599739  45.8518505  53.0883121 106.1101437  72.9400015  86.6305447
 106.7341614  72.2668076  86.9019222 105.3518772  72.8069973  87.1993732
  90.6658363  44.1267586  17.9738700  90.3919506  43.6853695  18.7778556
  91.6205788  44.1614628  18.0330133  65.7859802  80.9335899  41.2009239
  66.6330767  80.8241558  40.7688522  65.7514381  80.2248287  41.8433332
 104.8327541  61.3346767  46.5999603 104.6757030  60.9516382  45.7369137
 104.5505619  60.6592464  47.2167206  34.2025852  16.8939841   3.5009423
  34.3063903  17.5821817   2.8437963  35.0865078  16.7503119   3.8389820
  93.5009766  60.0117207  41.6844368  93.6569691  59.2355204  42.2224045
  93.1627750  60.6641817  42.2977352   4.8653999  52.2317791  35.7495975
   5.0084931  51.2995768  35.9131765   4.4631988  52.5572872  36.5548992
  90.6098366  18.3935165  65.0343418  89.8073196  18.3468950  65.5539799
  90.8394623  17.4796832  64.8657942  71.7784119  62.7224207  40.1605797
  72.2797394  63.5162067  40.3471422  70.8651447  63.0090141  40.1664162
 105.5118084  59.7490072  27.1129513 106.2604713  59.5964956  26.5363431
 105.0113678  60.4394770  26.6781592   0.6706956  43.8955784  35.8576202
   0.9292555  44.2020559  36.7267847   1.4268073  43.3995295  35.5438328
  86.7108822  28.2474089  47.1895933  86.6497993  29.0958214  46.7506170
  86.7934036  28.4636903  48.1183815  98.2396698  60.0588512  33.7622952
  99.0746307  59.6381617  33.9674783  98.4006405  60.5224705  32.9404807
  80.7564259  37.3097754  41.1592007  81.2080669  37.8719306  41.7886734
  81.3267803  37.3044801  40.3905010  74.2139292   5.3318661  41.9081163
  74.5150948   6.0743892  41.3844872  74.6281195   4.5697069  41.5034056
  99.6547508  64.4675016  37.5161552  99.5825386  63.6995363  38.0829406
  98.9563179  65.0508308  37.8130579  26.4292359 108.2197571  63.6994934
  27.1145415 108.7616158  64.0906191  26.0938430 107.6957512  64.4269276
  73.8719797  20.6193066  50.9936380  73.6001587  21.4341664  50.5713224
  73.2796383  19.9564290  50.6387424  88.2006454  68.8436365  66.6577053
  88.2432556  69.5060778  67.3473310  87.6638985  69.2440891  65.9737635
 103.3851528  46.8953943  27.6888871 103.6334801  46.2519503  27.0251513
 104.0727043  47.5600433  27.6472116 107.4812317  61.5289021  45.0589085
 106.8093872  61.3293123  45.7108450 107.8103924  60.6730127  44.7844267
  68.1345463  39.6202254  20.7128096  67.6185417  38.8268185  20.8559012
  67.7843523  40.2504826  21.3423896  92.2420883  35.8953547  53.2888556
  92.9914856  35.5801058  52.7836275  91.5795040  35.2122355  53.1860828
  30.5880284 103.8278770  89.3433857  30.3349948 104.1767693  88.4887028
  29.8939991 104.1177654  89.9354362  65.0872707  17.3092937  79.6888304
  66.0423470  17.3443735  79.7420645  64.9083281  16.6258359  79.0430021
   3.2466292  58.1484175  32.3703003   3.6529389  58.9264154  32.7522135
   3.5163650  58.1636429  31.4520168  77.8530836  52.6780605   1.7693135
  78.6882591  52.4450064   2.1747787  77.3329020  51.8758011   1.8142229
 113.6555195  24.1706061  19.1948688 113.2983589  23.5432291  19.8234105
 114.5557785  24.3153286  19.4861305  25.5704355  95.0845528  85.6775665
  26.2840629  95.6266308  85.3412437  25.0992656  95.6573391  86.2826729
 113.6659050  74.8074436  43.4820032 114.2406082  74.4070959  44.1344357
 113.8973141  74.3737745  42.6606560  99.4064426  15.5485368  26.0268283
  99.6943951  14.7789526  25.5358577  98.4932041  15.3644514  26.2467146
   4.1944420  81.8082714  12.0984566   4.3080246  82.7390766  12.2906494
   3.7854889  81.7905331  11.2331963  59.6209145  44.0621710  30.0939178
  59.3418074  43.5638380  29.3258095  59.4046068  43.4984970  30.8366919
  98.3592129  40.5023956  31.7803144  98.7322807  41.3660526  31.6038227
  98.9671993  40.1012135  32.4013090  87.1328068  38.9002728  65.7144928
  87.5643444  39.4573712  66.3622952  86.7030907  38.2194972  66.2322950
 109.7649384   9.0489107  39.5049453 110.6281567   8.8068020  39.8403072
 109.7183132   8.6355025  38.6428833  56.4261675   3.5196415  63.0951738
  55.9438992   2.7133507  62.9120207  57.3424578   3.2915735  62.9382229
 109.1353512  82.5291920   5.0117242 109.4131565  82.7750111   4.1293213
 109.1121483  81.5723801   4.9976864  72.6146078  66.9533348  38.7508345
  72.6762342  66.5692997  37.8762197  73.5168028  67.1790123  38.9774370
  93.5176182  24.9161100  35.0374508  92.7989388  25.5312538  34.8914099
  93.8325119  25.1203609  35.9179926  75.6187010  39.8696113   6.1321348
  76.3066387  39.9938083   6.7860097  75.8048105  39.0126324   5.7484877
  78.5111666  31.5771651   0.1369837  79.1972446  32.2406793   0.2096259
  78.5289049  31.1211777   0.9784075  94.4925022  32.5567126  27.0321679
  93.7199974  31.9936991  26.9822669  94.2432117  33.3482480  26.5551376
  26.6389346  75.2446032  18.5061800  26.1887002  75.1547098  17.6662755
  25.9503150  75.1280832  19.1607475  95.3044987  80.4362011  54.1230202
  95.8902645  81.0583115  54.5543861  94.4723606  80.9032631  54.0479374
  84.7284985  39.0581775  60.9747505  83.8738537  38.6498523  60.8365774
  84.8535156  39.0369225  61.9235086  93.2527256   9.2680264  74.6210051
  93.4303284   8.3279657  74.5897913  93.2574081   9.5432293  73.7042284
  98.7953472  34.6702528  39.7843122  99.2685604  35.5003691  39.7276545
  99.3080521  34.1436648  40.3975630  85.2790642   2.7386123  57.6157761
  84.5401382   3.0710867  58.1253672  86.0095501   3.3102345  57.8521585
  66.7035866  90.2386093  30.9125376  66.0181570  90.2501202  31.5805840
  66.4334774  89.5508385  30.3040648   7.3521823  23.6052132  37.8407288
   6.5396810  23.4835339  38.3319187   8.0006862  23.0882192  38.3186316
   3.9134434  40.4192543  42.4587822   4.6584886  40.7249355  42.9761791
   4.0759683  40.7611752  41.5796328 110.4308510   9.2526084  51.4866495
 110.3680706   9.2111886  52.4408865 111.1818886   8.6994284  51.2717915
  16.1369956  39.8035336  28.5056639  16.0209012  40.6182528  28.0168009
  17.0633304  39.5885873  28.3964252  64.6237993  77.1878672  45.7685900
  65.2150202  76.5602064  45.3529787  64.7067451  77.9814148  45.2397776
  96.4324188  68.5029173  33.7216878  96.6151333  69.2063427  34.3446136
  97.2838974  68.2978201  33.3354926   4.3234760  25.5162835  32.5654197
   3.3966815  25.6637406  32.7539396   4.3246019  24.8628235  31.8659759
  26.0089016  95.2771378  33.2269502  26.7742801  95.6955719  33.6210728
  25.5501366  94.8741055  33.9640617  79.9696970  52.5632381  42.4900103
  80.5861664  51.8387651  42.5964403  79.5824718  52.6776886  43.3578777
  19.1668653  29.9982071  77.2704077  18.9301896  29.8442698  76.3557911
  20.1191735  30.0941110  77.2585011   5.4481155  76.3799477  13.8053679
   5.4107881  75.6099319  13.2379973   4.8038849  76.2036991  14.4910312
  99.3900108  36.4803147  28.3550692  99.2708111  36.3622499  29.2974520
  98.5249138  36.7351365  28.0342889  71.1814785  40.7676554  40.5136871
  70.2369452  40.7298374  40.6642008  71.4719486  41.5353203  41.0061884
  70.1107788  83.2197189  42.0379782  69.5640564  84.0053940  42.0441246
  69.8306656  82.7390862  41.2590313 105.2334499  48.0331945   4.4151789
 104.4661522  47.7321672   3.9284879 105.4668999  48.8652372   4.0035510
   1.7765512  18.8428640  48.7230635   2.7067950  18.9534426  48.9196634
   1.6851386  19.1451216  47.8194523  80.7387924  66.9843531  60.6385612
  80.5456543  66.5764236  59.7944498  81.2391376  66.3223124  61.1156178
  13.5263789  34.9050832  18.6308908  12.8436601  34.4988346  18.0969548
  13.7990165  34.2155814  19.2362738  90.3600311  69.3165350  25.5919409
  91.1764431  69.4817257  26.0635471  90.6389427  69.0580654  24.7135139
 115.0563431  28.5893846  23.0888176 114.3292999  28.8699818  22.5330210
 114.7968292  28.8502407  23.9724684 104.0745258  16.8768370  50.4039431
 104.8147869  16.6072869  50.9476280 104.3950081  17.6409745  49.9247599
  96.5909576  68.6861181  58.3280802  96.6431618  67.9575586  57.7094507
  96.9028759  69.4435883  57.8329277  94.9901009  57.7624178  43.3442640
  94.0792465  57.4966621  43.4705973  95.4334164  56.9663239  43.0511093
 104.8617077  34.7758961  21.7823529 105.4801846  34.6401930  22.5002003
 104.7057056  35.7202744  21.7759180  69.5937729  59.3946409  55.1472759
  69.9677038  58.8116503  55.8079815  69.8863077  59.0292692  54.3123198
  64.4496727  16.9024563  18.4974194  63.7962866  17.2287786  17.8786826
  63.9513683  16.3582456  19.1071391  90.9911060  49.3262815  26.3448954
  91.4221668  49.9484110  25.7589197  91.6728306  49.0707254  26.9663215
  79.7615671  48.7816906  24.6274281  79.8953915  49.0633917  25.5323958
  80.5066395  49.1469002  24.1502285  95.9741306  19.7124100  50.7862854
  95.2755547  19.0596950  50.7395697  95.5406952  20.5048776  51.1030769
   5.1627249  47.9188061  17.6735449   5.7162827  48.6989021  17.6381099
   5.7513279  47.1971846  17.4520910 104.1333675  47.3008442  10.3333127
 104.4906807  46.4392042  10.1185119 103.3185101  47.1129036  10.7990634
 113.8920784  27.8308940  35.0880122 114.7923660  27.5233769  34.9824405
 113.8511562  28.6345649  34.5696783  65.8695078  48.3275366  33.8563323
  65.2802277  49.0573978  34.0468168  66.7380142  48.6528158  34.0932441
  23.3241034  20.4473400  45.3766155  24.0432501  20.0759077  44.8656368
  23.6475706  21.3029695  45.6585693  93.0065346  59.9480772   8.2238638
  93.1989288  60.4274988   9.0296996  92.0546150  59.8476458   8.2263839
  91.4868069  61.0297012  32.7535462  90.8871269  60.7034731  32.0825815
  92.3397350  60.6721735  32.5067472   7.8368229  58.7692738  66.0610390
   7.7655524  58.6222649  65.1178837   7.9884529  57.8984737  66.4283895
  93.7188435  31.1820507  37.2725511  94.4900894  31.6743207  36.9913244
  93.0135250  31.4990926  36.7084336  85.3026295  60.4561424   9.7088367
  85.0015068  61.3513470   9.8643082  84.5433903  59.9095058   9.9112523
  65.4234123  35.3455114  40.8074045  65.3243351  34.4868994  40.3960609
  65.0418329  35.2390981  41.6787815   8.6177278  27.3749089  19.4506955
   8.7863290  28.0785084  18.8239944   9.1164327  26.6302133  19.1146111
  98.2622910  71.4174175  46.2664175  99.0017700  72.0050526  46.4216375
  97.6352501  71.9465685  45.7734203  13.5448062  29.3186021  21.8760467
  14.3280637  28.8146996  21.6550922  12.9253733  29.1184545  21.1742806
  96.3809872   1.0744718  48.0250931  97.3196411   0.9244748  47.9126310
  96.1218071   0.4637064  48.7150383  25.1549983  84.0002632  83.1175804
  24.8928571  83.2596016  82.5708294  24.4882560  84.6671009  82.9532146
  78.4161711  19.5602822  64.4476414  78.6581469  18.6844993  64.1464996
  79.2425585  19.9543154  64.7270298   1.6977528  71.1053610  44.2510843
   2.2478171  71.4012766  44.9764109   2.0449179  71.5626240  43.4851742
   2.1275806  83.2705784  17.2159612   3.0486700  83.3030415  17.4743640
   2.1362251  82.8652763  16.3488460  85.7426739   9.9533331  19.2263043
  86.2747669  10.5021775  18.6502135  84.9087048  10.4178596  19.2965424
  93.3545017  54.2713737  31.2797785  93.1327629  53.6333466  30.6015587
  93.1585121  55.1202679  30.8832955  72.7264071  52.6645517  27.0697474
  73.0014086  53.5790777  27.1349359  71.7699194  52.7015018  27.0695162
  98.8088036  36.3891959   5.3176039  99.2383003  35.8553410   4.6492034
  99.2532825  36.1558485   6.1325967  84.5288181  53.8687515  49.2556477
  84.8776627  54.4838619  48.6105299  83.5807896  53.8986206  49.1268635
  17.2901356  40.6895876  23.1537366  16.5891993  40.2408361  23.6265397
  17.2317183  40.3505898  22.2604823   4.5868373  49.7457457  41.1626673
   5.2930176  49.1121960  41.0355473   4.6073669  50.2886200  40.3745699
 104.9109554  30.5408406  17.2564960 104.7613144  29.6741629  17.6342690
 104.0987682  30.7431817  16.7921233  91.9724941  58.2939911  14.6160400
  92.6945496  57.6684952  14.6761954  92.3886871  59.1160202  14.3566525
  99.7509956  58.9115286  22.7072930  98.8381481  58.6323547  22.7780056
  99.7559071  59.5320892  21.9785166  94.0281963  67.9941607  22.2671080
  93.9212322  67.1029282  22.5995183  94.6141148  67.9009151  21.5159535
 109.8857403  28.5510278  27.7520967 110.3917789  28.5419655  28.5645413
 110.5457115  28.5477877  27.0587993 105.9158230  20.9546709  27.2488213
 106.8214607  20.6506968  27.3092437 105.9462357  21.6741586  26.6182327
 106.8476868  31.9728541  18.6487460 106.3434601  31.2898374  18.2066226
 106.2129402  32.6699257  18.8143277  93.8845348  15.4294670  25.4209471
  93.2351208  15.1066816  24.7962022  94.7118664  15.0509560  25.1234818
  97.7172279  28.1207371  41.5359449  97.7173233  27.8586006  42.4565506
  97.0691872  28.8235068  41.4870882 109.2845154  41.7269897  34.6276402
 108.6190224  41.4096260  34.0172076 109.6802044  42.4762201  34.1823077
 110.4560661  22.1094346  60.4782343 110.6409550  22.7632380  59.8040009
 109.5110226  22.1699333  60.6177807  86.4731121  19.7796869   6.7737818
  86.2856483  19.9535525   7.6962018  87.2439957  19.2124546   6.7888248
  93.2813072  84.5488644  36.4232254  93.5795021  85.4185677  36.6895556
  93.0421925  84.1162300  37.2429085   9.9217600  56.6816473  11.6393840
  10.1905239  55.8226490  11.9651473  10.6004477  57.2796297  11.9524848
 106.6693497  59.6568060  73.4997416 106.2164211  58.8161135  73.5654736
 107.3856354  59.5929956  74.1314840  78.7833595  43.9571524  34.8509216
  78.2393503  44.7257137  34.6788740  79.6657276  44.2262316  34.5954704
  97.7638149  61.5867758   2.4822620  97.9321671  61.1058664   1.6719478
  97.9359627  62.5013208   2.2581878 112.6482868  80.4333878  43.2603216
 113.5213661  80.5283928  43.6410379 112.0551682  80.7604885  43.9366722
  79.9914885  84.3941402  30.7690072  80.2095127  85.0924683  30.1517296
  80.0895786  84.7975731  31.6314721  80.3582191  63.5877275  52.1350813
  80.0236797  64.4560623  51.9107771  80.0492001  63.4353352  53.0281162
  93.0633259  43.5012531  18.7787819  93.4272671  42.7516603  19.2498338
  93.7618732  44.1555071  18.7934983  15.2487206  38.5660005  39.6607137
  16.0695469  38.1951213  39.3367910  14.8440456  37.8547812  40.1573372
  89.4231129  27.6338530  45.9419203  90.0375271  27.9534578  46.6026688
  88.5589218  27.7942181  46.3209724 106.4591980  57.0831251  31.9568038
 106.2195683  57.9465103  32.2935224 107.1547985  57.2578716  31.3228989
  99.8915100   7.0518553  53.3092260 100.6229973   7.3964232  52.7969360
  99.5215225   7.8196698  53.7448883 112.4693489  32.7945805  23.6084294
 112.0359612  33.5057878  23.1366324 113.4036827  32.9826903  23.5196686
 104.6498203  51.4015055  27.1609545 103.7261581  51.1610985  27.0883083
 104.6966743  51.9355059  27.9539728  87.7773380  48.5783291  43.2320929
  87.3051167  47.7901411  43.5004091  88.0544662  48.9829922  44.0540934
 112.5676918  47.1102762  38.8880849 111.9326305  47.6864433  38.4627008
 112.1991920  46.9472122  39.7563267 106.1602688  19.4994855  38.1923366
 106.3669777  19.1561913  39.0616202 105.6019306  20.2584434  38.3610892
   2.5228199  23.3797979  41.4546919   2.8446943  23.2046604  42.3389721
   1.9660157  24.1523933  41.5511179  91.7424393  65.6866169  42.0814085
  91.8932819  66.5546036  42.4556732  92.4515247  65.5720663  41.4487171
 114.8875809  44.5194435  22.2389889 113.9352608  44.6055460  22.2825980
 115.1214886  44.8775911  21.3826871   3.5822228  30.4774952  12.5998139
   3.8796672  31.0844445  13.2775831   2.7989697  30.0703359  12.9699063
  83.5498238  50.8133459  56.3822794  84.1977787  50.7634020  55.6795025
  83.9785862  50.4025030  57.1330118  31.2572384   3.2407197  85.3328991
  30.9414148   3.1774166  84.4315243  30.4616761   3.3006409  85.8617878
 109.6224022  30.0633359  11.8759310 109.2121696  30.8997250  12.0959210
 110.1179600  29.8261261  12.6597571  19.1547763  44.6978378  47.7007103
  18.6699474  45.1748610  47.0272017  18.4771430  44.2936277  48.2426167
  73.5465574  70.6389761  35.6986284  72.7679729  70.0876665  35.6205630
  73.7510824  70.6335783  36.6337085 115.0728512  78.3388424  22.9140162
 115.8208370  78.8962603  23.1285834 114.3359756  78.7384796  23.3761144
  16.4818001  71.4092064  77.9093122  17.0750630  71.0291433  77.2613764
  15.8363545  70.7221031  78.0752039  89.2657566   9.9821675  78.6921310
  88.5395050   9.7549403  78.1114769  90.0511265   9.7935355  78.1784821
  17.6090848  50.1492739  16.6780508  17.2739303  50.9508896  17.0796943
  17.3292708  49.4501972  17.2689998  94.8839664  45.6737900  54.9690390
  95.3452396  46.3207388  54.4352627  95.5802250  45.1497889  55.3651237
  91.8995380  39.9614596  28.4232497  92.6815128  40.4649639  28.1969070
  91.2431049  40.2382183  27.7839279 109.2867184  44.0241957  25.9230757
 110.2311134  44.0452099  26.0776997 109.1670418  44.5076275  25.1056433
 111.4958858  14.8067176  51.9864321 111.3184261  14.2249250  51.2473440
 111.8618011  14.2334616  52.6600170  58.9493561  35.1805925  49.3331718
  58.9040565  34.2782950  49.6494627  59.8842716  35.3442883  49.2092133
  95.4673862  29.0078187  32.6630926  94.8918247  28.6816859  31.9712853
  94.8715687  29.3623137  33.3230686  87.7534008  57.0821476  24.2074132
  88.4054089  57.3020077  23.5419965  88.1730461  57.3076296  25.0376439
  98.0042458  25.5465484  17.0495343  97.2990417  25.1386380  16.5470219
  98.7982464  25.1023531  16.7520583  22.9460239  21.3273120  49.3949366
  22.7231240  21.1329317  50.3052998  22.2859812  21.9624376  49.1171026
  90.7551670  53.5735941  57.8292227  90.4787731  53.5225487  56.9142151
  91.6549492  53.8977480  57.7899027  94.2774010  34.9794340  59.1550732
  94.9966240  34.3587279  59.2719889  94.0763855  34.9397469  58.2200623
   1.2024327  35.3826571  40.8657551   1.5211765  34.4811821  40.9102106
   0.2691517  35.2973771  40.6709576  14.4328654  35.9323287  50.1384449
  14.3481553  35.4854798  49.2961979  15.0560474  35.3984332  50.6312275
  17.4358535  61.8587637  64.8415995  18.2439041  62.2841311  65.1285648
  16.8767071  61.8578529  65.6185055  81.0844898  25.0445986  69.5728254
  80.1280880  25.0837874  69.5746946  81.3353348  25.2738476  70.4676723
 104.4863605  58.9010763  20.3814936 105.0192928  58.1152153  20.5024505
 103.5954189  58.5708094  20.2658463 108.8224983  70.7246065  10.6400442
 108.3168793  70.3558779  11.3643551 109.3824005  70.0052071  10.3481483
  50.8010483 106.4064312  41.3762093  50.2861547 106.2123680  42.1594429
  51.3894224 105.6569958  41.2846041 101.8923187  19.9440074  25.4601336
 102.3940372  20.0144267  26.2722611 101.0731125  19.5228553  25.7204485
  40.2641344  30.7676101  46.0338259  40.4945183  30.7591510  46.9628525
  40.9819555  31.2410712  45.6133509  27.5551319  21.7187715  39.5638227
  27.2267008  22.2574568  38.8439727  27.1224856  20.8729887  39.4467807
   1.3810068  88.9907742  24.7028661   0.7411491  88.3083248  24.9055433
   1.1449507  89.2869568  23.8237858  27.8895235  89.6989250  94.3211269
  27.1873999  90.3484726  94.2844486  28.0086803  89.4234562  93.4121990
 103.1949425  70.4367733  13.7235463 103.1306553  70.0711393  14.6058214
 103.9083099  69.9480152  13.3131194   1.0561748  22.3239660  39.1036153
   1.6337031  21.5906572  38.8915992   1.5186048  22.8017139  39.7921991
  96.2836742  45.7968187  41.7121315  95.8484077  46.1591959  40.9404755
  97.0761013  45.3842592  41.3685036  68.6417055  61.8913317   6.5750563
  68.0532503  61.7887354   5.8271080  68.6087990  62.8259182   6.7792654
 102.5589180  41.5279961  37.9613662 103.3342934  41.8123484  37.4774575
 102.0689297  42.3340940  38.1236911   0.3403190  62.2597551  38.1251240
   0.9454982  62.1822691  38.8626790   0.9047972  62.2695065  37.3521423
  54.2401457  40.4370642  36.9962335  53.8080692  40.2850676  36.1557364
  53.6919928  39.9792933  37.6335764  58.5672045  25.9242535  37.2502351
  57.7242804  25.4717207  37.2806239  59.0213203  25.5348134  36.5030074
  63.1250477   2.2855943  92.9785919  63.8141394   2.8865829  93.2617760
  62.9955769   2.4890599  92.0522690  91.8254471  51.3779736  41.4229536
  91.0515785  51.1637735  40.9019089  91.6046047  51.0908842  42.3089790
  89.1177273  40.2620077  28.0304742  88.1643486  40.3330660  28.0778456
  89.4330883  41.1480665  28.2084894  10.5174637  47.0233965  48.3805609
   9.6994388  46.5463591  48.2409143  11.0391760  46.8379307  47.5997639
 101.0293770  64.9614763  81.7288399 100.6342316  65.1000547  80.8680916
 100.2872181  64.7883463  82.3080254 114.5105457  50.4845810  45.4997873
 115.4296970  50.6992531  45.6588840 114.2932320  50.9469795  44.6903467
 102.0107555  43.9220715  44.6149731 101.5763569  43.1075907  44.8682690
 101.2992573  44.4926500  44.3243837   5.7674801  85.5915260  87.8801060
   6.1234641  84.7171307  88.0379868   5.1104820  85.7100964  88.5660553
   1.2652437  33.2242131   1.0737801   1.0281664  32.8841305   0.2110110
   2.0979568  33.6747956   0.9330802 102.7531528  81.1827278  37.4348664
 103.6967087  81.1298752  37.5869608 102.5356197  82.1008396  37.5960684
  86.1291027  84.3272018  26.3778329  86.6853046  84.0441895  25.6520462
  85.6108570  83.5532379  26.5983558  64.4346142  16.9546866  36.6042733
  63.8844967  17.5700665  37.0889473  65.3301239  17.1969831  36.8400431
  76.4723253  70.1995468  71.3407135  77.4088383  70.2403545  71.5343952
  76.4229870  69.7722054  70.4856253 107.1377659  63.3558321  40.3443241
 108.0835533  63.4320164  40.2181482 106.9348907  63.9955425  41.0268497
  79.2559195  29.6479917  46.1611843  79.8240328  29.0955949  45.6242180
  79.7455263  29.7769141  46.9735193   6.1920369  72.8275681  37.9620147
   5.9777498  73.1024551  37.0705271   6.4469230  73.6357498  38.4071112
   7.8670740  41.3842869  17.7273977   7.7041268  42.3267984  17.7642035
   8.0032402  41.1289549  18.6398089  17.2205079  62.5821877  32.0398068
  17.8191710  62.0907116  32.6022029  17.7937853  63.0786848  31.4557958
  93.4407997  66.3577032  15.6343055  93.4717751  67.3115587  15.7079673
  92.5976658  66.1768198  15.2188075   4.6468577  46.2606049  38.3714080
   5.5079716  46.5084076  38.7080216   4.1303983  47.0651007  38.4192801
  96.6779613  36.9260955  54.0091515  96.9117737  37.1325755  54.9140978
  97.2260571  36.1737943  53.7858486  99.2965126  60.3643894  57.7526331
  99.5433140  59.4506645  57.8955460  98.3394146  60.3551149  57.7419806
 109.2919922 103.9908791  44.9495602 109.7680664 104.4874859  45.6151152
 109.9029350 103.3051968  44.6797085 112.2367382  23.3651781  46.4220715
 112.5073433  22.5278020  46.7986345 112.4025726  23.2707477  45.4840899
  11.8489420  77.2423553  36.3258028  11.6727018  78.1235504  35.9961510
  11.0401547  76.9862604  36.7690969  98.4586716  61.0708809  18.7769759
  98.7533283  60.9477997  17.8746116  97.6471138  61.5721893  18.6976600
   1.8588233  47.2375917   6.8517429   2.8078690  47.2844744   6.7362171
   1.6372865  48.0314684   7.3384821  93.5147476  35.5437112   9.0373993
  94.0724277  35.0399637   8.4445572  93.3532715  36.3655090   8.5739255
 105.5301952  74.4429207  91.7057323 105.8166599  75.2930403  91.3718605
 104.5792580  74.5229149  91.7801952   5.6785709  53.8866329  24.0139151
   5.9859228  53.2005405  24.6063995   6.2451881  53.8115644  23.2460999
  87.6624393  23.6100531  26.0430622  88.3778858  24.1542602  25.7141137
  87.8998756  22.7198052  25.7836175  82.5078773  31.7062545  56.8801212
  83.3316708  31.3880897  56.5108395  81.9637966  31.9031310  56.1175966
 104.8340034  55.0440168  26.9393229 105.4217148  55.1248646  27.6905155
 104.5762253  55.9438181  26.7389679 109.5626926  65.1357937  33.5629463
 108.7612534  64.8163652  33.9775300 109.6679878  64.5837069  32.7881265
  20.0920868  61.3744497  14.3137217  19.2433143  60.9374237  14.2442489
  20.2823973  61.6709185  13.4237099  30.6887436   5.4637945  22.2195220
  30.0240302   4.8980489  21.8266869  31.3696361   5.5336511  21.5503883
  84.7042274  46.2028980  38.7169242  84.2901802  46.3516712  39.5670199
  83.9814377  46.2321329  38.0900741 108.3693218  80.6337261  64.2537117
 107.8167534  80.2076912  63.5984325 109.2460251  80.6256199  63.8695717
 111.6797543  82.4331093  23.3427954 112.0095158  82.1531487  24.1966748
 110.8598518  82.8862190  23.5395026  89.5024395  57.5952530  31.6759944
  89.4917011  57.6924801  32.6281810  89.4289398  56.6520023  31.5307093
  93.9182281  58.9390850  46.0734940  94.2314243  58.0752516  45.8052778
  94.7066021  59.4811344  46.1030674 102.3607731   7.1672910  28.2970333
 101.4558792   7.2340965  27.9921842 102.7075672   8.0556202  28.2143450
  77.0131397  47.2145081  42.1086025  77.8471518  46.7470646  42.0621490
  76.6336966  47.1147203  41.2355042  90.6663418  51.6516685  52.5576353
  90.4402733  50.8204985  52.1401644  91.3802910  51.4325762  53.1563902
  14.5482397  32.8513789  34.1243672  13.6892462  33.1952095  33.8791251
  14.6169436  33.0257559  35.0630379   0.2830089  39.2371869  33.0134058
   0.0788732  40.1685524  32.9290581   0.0228211  39.0149641  33.9073586
 112.0223045 108.1908226  25.8751297 112.6500702 108.1940365  26.5977144
 112.0479965 107.2947598  25.5395126  12.6445186  66.8511629  54.9147415
  12.5280166  67.7691603  55.1595783  12.9191446  66.4203835  55.7242107
  51.8750715  10.6830180  77.6402092  51.4676046  10.7262492  78.5052729
  51.6407013   9.8164129  77.3080969 108.7282944  47.4071646  31.1433244
 108.9603043  47.8685760  30.3374076 109.2132854  47.8653049  31.8297148
  81.0757923  17.9186714  25.4262519  81.5228939  17.4677169  24.7100282
  81.3739681  18.8259208  25.3612494 102.9969692  55.5174160  46.9568157
 103.1069088  55.2698660  46.0387421 102.3673058  56.2380743  46.9368124
 103.8659668  56.4482355  38.7561536 104.3705845  55.9793758  38.0915046
 103.3692646  55.7648087  39.2060876  89.3847656  70.5046558  54.6931887
  89.3136692  70.9721947  53.8609743  88.9580822  71.0798454  55.3282738
 101.6720676  87.1864700  68.4080744 101.4579105  87.9272175  68.9752293
 101.1615276  86.4583015  68.7621117 112.0347118  58.9666796  38.9659572
 112.9783344  58.8067293  38.9507937 111.6944790  58.3329487  39.5975113
 109.5193481  84.2862511  18.2796526 109.9478054  83.9879322  19.0819407
 108.5999393  84.3918133  18.5241485   4.8758310  60.5155897  47.7036190
   5.1557112  60.7254362  46.8126297   5.5820173  59.9733448  48.0550480
  74.9184895  72.1582508  57.4761343  75.8174515  72.3222303  57.1911526
  74.9405575  71.2736845  57.8412247  79.7821236  93.7407207  14.2694950
  79.7726154  92.7983665  14.4371426  80.6987000  93.9941597  14.3785560
 109.3212509  64.5091629  25.3595424 108.8816261  64.2392731  26.1658454
 108.7701988  64.1614246  24.6583605  83.5498714  40.8936405  12.4675012
  83.5445499  40.0565529  12.9317081  84.4601059  41.0109329  12.1955764
  82.5281620   8.9740640  45.4677629  82.3381042   9.7244179  46.0308599
  81.6944027   8.7780714  45.0403786  90.0764656  59.8673105  61.2165737
  90.2411270  60.4699326  61.9418049  90.4139709  59.0256882  61.5231609
  70.3987932  25.8778429  38.3118010  69.7237873  26.0316181  38.9728260
  70.3371048  26.6326475  37.7263951   0.0276548  27.7258801  46.1758041
   0.9760607  27.8115630  46.0787630  -0.0849914  27.0281887  46.8213797
  13.9454675  99.6893215  26.4382362  14.3955767 100.3880501  25.9634662
  13.0451941  99.7212696  26.1146307  81.9269848  50.2713203  23.7453628
  82.8708839  50.4303026  23.7489343  81.5644169  50.9696674  24.2904186
  77.7388239  73.8109684  35.4162502  77.7401924  73.9062452  34.4638038
  78.6556864  73.6549950  35.6426716  87.3385048  61.4593744  13.5622048
  86.7577076  60.7608557  13.2605839  86.7536449  62.0973206  13.9710999
  58.3177328  23.3367157  51.0711384  58.3248711  23.1558752  52.0110703
  58.8699102  24.1123128  50.9722519   1.7421111  18.4788191  57.1849060
   1.0722852  18.1241024  56.6003227   2.3017386  17.7299070  57.3902845
 107.4764633  55.6377840  28.1330919 107.7868176  55.9755898  27.2929716
 107.8312588  56.2459183  28.7815714   6.3289148  38.3411169  86.2313366
   6.0777456  38.4099388  85.3102398   6.9742274  39.0369582  86.3562584
  75.9124279  66.6822147   4.3327755  75.7063961  66.2046289   3.5292226
  75.3295994  66.3049650   4.9917349 107.8822327  51.5946865  38.9933825
 107.6858044  51.1006021  39.7893286 108.0535889  50.9246016  38.3316779
 107.5028229  70.8144855  29.3540025 107.7456570  70.8705807  30.2781892
 108.3055401  70.5381966  28.9117908   0.9108988  75.8664322  43.2004595
   0.8559224  75.0131464  42.7702093   1.7598727  75.8575249  43.6424971
 104.2476273  36.9980741  10.8506155 103.8554573  37.8695226  10.9055579
 104.3776512  36.8525887   9.9135149  16.8755448  26.7372656  62.6494694
  17.5910306  27.0289731  62.0844746  16.0870028  27.0946884  62.2412014
  97.1999645  41.4582682  34.5249796  97.4909782  41.9607306  33.7640071
  96.4135361  41.0026693  34.2246795  83.6501598  66.9528961  25.5940270
  83.7013817  67.6525831  26.2452149  83.4314251  67.4014425  24.7772074
 109.1334248  23.6415076   4.9990916 109.2029953  23.5592914   5.9502131
 108.5455704  24.3849897   4.8653162  90.9878349  70.0968981   9.5639169
  90.4888821  70.7802057   9.1162890  91.3844681  69.5878696   8.8569462
   6.0886562  43.9839125  38.4280181   6.8686301  44.4836712  38.1869483
   5.5789113  44.5835400  38.9728475 100.8043480  18.0774200  47.4389362
 101.6996479  18.2642198  47.1564913 100.9070873  17.6170623  48.2718515
  85.5265427  48.8872147  11.4410281  85.0254250  49.2038727  10.6894696
  85.0671196  48.0946255  11.7184591  13.3219552  77.1003723  48.1200361
  13.5987532  77.5848007  47.3422527  12.6923788  77.6785326  48.5508442
  88.9052773  65.4324961  41.7350388  88.7286472  65.3181934  42.6688290
  89.8583698  65.3803110  41.6634226  99.5114040  42.1625137  63.6515379
 100.1492119  41.8240976  63.0231190  99.9993324  42.8065205  64.1647673
   2.0268726  85.0105858  70.0509214   1.1080711  84.7449970  70.0121832
   2.1906494  85.1716805  70.9801435  28.1223750  10.9680998  28.4897828
  27.8410387  10.2879810  27.8778028  29.0012550  11.2067842  28.1951094
  59.3149805   8.4611672  94.5038986  58.5922861   9.0845275  94.4306374
  59.0326881   7.7055389  93.9885712   2.4589570  30.2455568  44.9971437
   3.0775696  29.7629571  45.5454588   2.0446807  29.5739675  44.4553185
  86.9255638  60.0896549  18.0077517  86.2736130  60.7486677  17.7692139
  87.1754932  60.3135061  18.9042211 100.5336094  41.9031858  33.8489699
 100.0022125  42.6149845  33.4923267 101.0667801  41.6090918  33.1104136
  75.2217817  43.6879539  54.3710661  75.1659393  42.9487991  54.9766731
  75.0088406  44.4525719  54.9060917   3.6237231  36.6666174  16.9620454
   2.8600338  36.9470382  17.4664009   4.3593276  36.7651701  17.5665331
  71.6315889  98.8247967  69.8033047  71.0231352  99.0161133  69.0895700
  71.0693502  98.6703968  70.5624390  79.4572115  62.0953465  31.6308880
  80.1655388  61.6668987  31.1503267  78.6842585  61.9700575  31.0803604
   0.4800749  63.2964945   8.9644259  -0.0956042  62.5554609   9.1533554
   1.2756434  62.8978968   8.6116892 109.8006725  54.9539852  24.8294473
 110.4279327  54.6081972  25.4644322 110.3282547  55.4948664  24.2417884
 101.9550610  67.5023365  29.9595070 102.3310852  67.7106762  29.1042686
 101.7249584  66.5750837  29.9005198  16.6846585  92.9280090  11.6234517
  16.8117452  92.7397346  10.6935954  15.8531380  93.4006786  11.6606569
 107.5465298  66.1837053  57.0522499 106.7369175  66.3255405  57.5428104
 107.4559975  66.7360878  56.2757826  96.7302132  65.4207850   4.1662675
  97.6293087  65.0952148   4.1229984  96.7980289  66.3444090   3.9243042
  91.8277454  66.3728237  25.5891967  92.0453739  66.1290550  26.4888859
  91.6903210  67.3194647  25.6241059 102.7562809  93.7648106  44.3517351
 103.0125046  93.7324715  43.4300327 101.8466377  94.0624142  44.3371582
 100.8764553  57.6084805  14.3716061 101.0394001  58.0078602  13.5171020
 100.6151772  56.7099476  14.1701210 115.2920341  56.2662029  24.4783211
 115.6944466  55.5362701  24.0076828 115.3025532  56.9899416  23.8519645
  66.3351011  45.2759504  34.2166519  66.3740206  46.2322426  34.2019701
  65.4415083  45.0768661  34.4960952   1.3912866  42.8979731  21.2294698
   0.7879002  42.1564484  21.1815453   1.1016643  43.3933020  21.9956303
 114.1277313  47.5194359  36.8387246 113.7316322  47.3732519  37.6977777
 115.0472069  47.2801924  36.9550967  91.8979645  28.5141850  14.1510630
  91.5847683  29.1938400  14.7478962  91.3377762  28.5964584  13.3792758
  86.0227489  34.6322465  39.2927289  86.1761379  33.7363195  39.5927644
  85.0709534  34.7318387  39.3125963  82.3390198  94.9435806  17.5592387
  81.6070652  94.4239521  17.8915930  81.9649982  95.4508495  16.8388069
   8.9186847  58.9735746  27.7226663   9.2784685  58.1102085  27.5192165
   9.4813019  59.5854330  27.2479844  25.8465457  54.0225172  11.8089676
  26.1222625  54.9391174  11.8011057  24.9103332  54.0523243  11.6118717
 113.2632446  51.1525202  42.8172493 113.6756897  50.4024553  42.3888588
 112.3438740  51.1020517  42.5556231  89.0183258  52.1060324  28.5345387
  89.3111515  52.9726553  28.8163972  89.6356583  51.4997625  28.9438820
   1.2520644  70.4396057  40.5694532   0.2961943  70.4092550  40.6097412
   1.5301025  69.5557833  40.8098364 102.8088760  72.0234203  34.0512371
 103.0937386  72.2585154  33.1681657 102.9828453  72.8053904  34.5751524
  13.6927330  56.8212843  55.9765100  14.3169343  56.1425829  55.7196617
  12.8349614  56.4442492  55.7808018   4.6745217   5.2566934  37.2199011
   3.9692372   5.6843543  36.7341948   5.4761016   5.5523843  36.7883134
   0.8873825  49.8449898  65.6711674   1.2103553  50.3013897  64.8942375
  -0.0128981  49.6054506  65.4512835   5.2966368  53.0758381  59.2133284
   5.9277207  52.4922466  59.6344995   4.4598234  52.8612757  59.6255636
 112.4748039  48.6842155  49.2801428 113.2530880  48.5763836  48.7334442
 112.2938633  49.6238613  49.2565680  78.6669636  69.8194599  36.9182038
  79.4731855  70.1317310  36.5074444  77.9795074  70.3731298  36.5479445
  90.2214813  46.1642456  45.9080887  89.8952389  45.4019976  46.3863945
  90.5905533  45.8017063  45.1027441 100.4800510  99.1940880  57.8473234
 100.9883976  99.3609715  58.6410284  99.9060345  98.4641743  58.0795860
  94.9176407  29.3358397  16.8438005  94.1629601  29.9149609  16.7374659
  95.6066895  29.7412419  16.3174045  83.8379478  36.7733765  42.8413296
  83.7025166  37.0247889  41.9277191  83.1160545  37.1883297  43.3134747
  18.6777866  66.1965942  52.6811790  17.9871869  65.5402756  52.7736521
  19.2676246  65.8322716  52.0211840  16.9740784  70.3270769  43.2069206
  16.5309525  70.9232807  43.8105917  16.5643370  70.4968691  42.3586798
   0.8000047  89.6070194  21.8479538   0.3648293  90.4537106  21.7481160
   1.4046474  89.5596886  21.1074114  86.0653114   9.6642023  77.5223207
  85.3864861   9.1400814  77.9474449  85.9080601   9.5455158  76.5856171
  75.5749464  68.2593393  22.6458001  76.1183119  67.9775190  21.9098902
  74.9300146  67.5596094  22.7491045  94.8037243  51.5974474  52.5383520
  95.2578640  52.4022579  52.7878809  94.8859310  51.5616703  51.5853596
  97.9035282  63.5201550  23.5986328  97.6350594  64.2472029  24.1603780
  97.0821953  63.1602907  23.2637501 101.7676640  66.5375137   0.5743314
 100.8322334  66.5307236   0.7772071 101.8553066  65.9439516  -0.1714806
   7.5679380  77.6457548  34.9528790   7.6054800  78.5644102  34.6866226
   7.9353338  77.6373482  35.8367252 101.9844246  50.7011414  30.6432438
 102.1873569  49.8132801  30.3486943 101.8689823  50.6189156  31.5898919
  39.3662524  62.5978422  19.8530304  40.2614117  62.4363232  19.5549810
  39.1796303  61.8757725  20.4530430  56.5252399  18.6214340   8.8909239
  56.1262512  18.7797999   8.0353773  55.8131552  18.2711291   9.4261360
  20.4595637  50.2829266  63.8271332  20.7732368  49.4207144  63.5543156
  19.8225856  50.0986624  64.5174503  10.3634512  38.1095171  16.9828594
  10.5180156  38.9702511  16.5936565  11.1911738  37.8872824  17.4091434
  61.4696121  89.2732143  26.8724036  60.6046724  88.8726425  26.9598961
  61.3975906  90.1037884  27.3427224  47.2452068  17.5937986  89.7759151
  47.0618629  18.1191957  88.9970875  48.1337833  17.8434825  90.0295353
  96.7101192  57.7082825  33.4997296  97.2812939  57.5596046  32.7461553
  97.0348930  58.5197067  33.8900399 106.0144329  79.7720575  46.7036390
 105.3634930  79.3135357  46.1723566 105.6608391  79.7439003  47.5926924
   9.3284452 101.3368225  46.7218542   9.5131880 100.8369827  45.9267044
   8.5453731 100.9249878  47.0871210  70.8964205  35.1537919  19.0343440
  71.6491461  35.2053857  19.6233857  70.5762196  36.0539222  18.9754713
   5.5238569  44.4984722  12.8992307   6.2552083  44.7017956  13.4823406
   4.8293921  44.1938257  13.4833038   2.0702100  26.8942404  36.0722208
   1.7457037  26.9893408  35.1767397   1.8282679  26.0022140  36.3211823
   7.0465034  43.6697769  41.3942671   6.3692248  43.0811167  41.7274427
   6.6414458  44.5368099  41.4146471 103.7337494  30.4563308  34.9225211
 104.4780159  29.8604059  34.8378539 103.2368851  30.3354526  34.1133618
  31.5314937  78.8601303   7.1666479  31.3313150  78.7250519   6.2404114
  31.2830472  79.7690058   7.3353153  71.0079193  75.1164770  28.0854774
  71.7284536  75.4054928  28.6454129  71.4041424  74.4724131  27.4986053
  87.5514030  88.2208824  22.7372241  86.8115139  88.6327457  23.1835055
  88.2488537  88.2069778  23.3926558  95.7756805  89.3819237  37.2801852
  95.5571079  90.0410080  36.6213465  96.6994381  89.1850567  37.1247554
  96.0112953  50.4696465  44.3874121  95.3225231  51.1157656  44.5434809
  95.6164074  49.8394203  43.7848282  98.6573315  77.8747225  38.3578181
  98.1667519  78.3053207  37.6577115  99.2280674  78.5594845  38.7065172
 107.5012875  49.9311829  41.0056686 107.4954796  49.0069294  41.2545872
 107.4283886  50.4031086  41.8352509  71.1398363  19.9538267  94.3565083
  71.9346905  20.1975656  93.8821411  70.9975958  19.0349209  94.1293240
 103.8842392  32.7087545   6.9002193 104.6900177  32.9630804   6.4504606
 103.6249733  33.4907007   7.3876321   0.0188223  58.4368658  32.5730920
   0.1678889  57.9826212  33.4023523   0.7947986  58.9852619  32.4575353
  86.8710041  51.8948841  57.1748114  86.2029171  51.8458986  56.4910841
  87.6833439  51.6454124  56.7342377  87.2774220  32.6056385  42.8033495
  87.2887611  33.5439038  42.6142454  88.0635929  32.4577355  43.3289814
  98.9013100  97.8740978  18.5374701  98.5105705  98.2287025  19.3360984
  99.0527916  96.9498158  18.7349188   9.3812674  76.1357450  72.3339844
   9.4983608  75.1859474  72.3139715  10.1970100  76.4852476  71.9753075
  11.3364041  49.0422344  32.6640797  12.1961331  48.7543726  32.3571062
  10.8017588  48.2482862  32.6580811  91.0390568  21.1440611  56.4736605
  90.7842159  21.9858551  56.0959482  91.8942165  20.9568763  56.0864878
 106.9314671  31.4970160  26.9294667 107.4933147  30.9386158  27.4668264
 106.8428421  31.0228133  26.1027217 105.5832100  54.8905802  64.0278244
 104.6842098  54.9404621  63.7029457 105.6351471  55.5750990  64.6948814
 114.8117447  87.0948601  51.1534977 115.2914715  87.7813435  50.6900024
 113.9479160  87.4740124  51.3156080 107.7357864  40.6352329  26.4991975
 107.6978874  41.4764452  26.9543386 108.6577320  40.5317354  26.2635255
 106.3804340  41.4669323  59.0181637 105.8328247  40.7118368  58.8032627
 105.7729912  42.2065163  59.0342236  85.3772449  31.9056797  15.8215821
  85.0618839  32.7477646  15.4934418  85.5939102  32.0720506  16.7389762
 108.5650349  62.5230837   1.7373021 108.8037586  63.2152081   2.3539132
 107.7041531  62.7817917   1.4083925  31.9548225  81.0576725  17.6701295
  32.1130252  81.8243408  17.1193004  31.9411421  81.4028358  18.5628271
 110.8493137  57.0153427  22.3133755 111.2411118  57.8494501  22.5721979
 109.9359703  57.2287798  22.1223545  91.6481781  41.5230656  43.6240149
  92.6026821  41.5947390  43.6198950  91.3405037  42.4261856  43.7011337
  95.3221893  58.3674717   7.5976264  94.7379398  58.4977102   8.3445740
  96.0591698  57.8711796   7.9536837 101.1837959  43.6761189  65.4093456
 101.4061546  42.9813099  66.0290527 101.0384560  44.4477892  65.9567308
   1.9690719  55.5906630   0.6515828   2.5105000  55.0442028   1.2212019
   1.7939714  55.0407219  -0.1120499  51.3851118  41.5801287  14.7663772
  52.1457481  42.1457720  14.8994565  51.7128420  40.6957150  14.9295735
 107.2024250  44.1224432  34.0668941 107.7911854  44.3769217  33.3563805
 107.2333622  43.1657600  34.0725493   2.7094358  18.7348449  19.3868721
   3.3903682  18.2958174  18.8771486   2.4947235  19.5159841  18.8770163
  99.5369816  57.5586271  57.8548431 100.4240704  57.6332426  58.2066011
  99.6021366  56.8802595  57.1826744 101.8880844  44.1110992  23.6750674
 102.5048447  43.6596060  24.2512536 102.3836517  44.2708111  22.8718615
  10.9927738  20.0543714  46.9234800  11.5196848  20.7165861  47.3707724
  11.4933205  19.8419881  46.1357117  88.0084705  51.7480946  35.4846787
  87.9657078  51.4932919  34.5630074  88.7730122  52.3214149  35.5394602
  76.7736721  52.6537943  18.9054275  76.4398146  51.7694998  18.7544465
  77.5548601  52.7120399  18.3553469  90.7974720  61.1002064  25.4166794
  89.9913216  60.6399441  25.1831889  90.6140900  62.0189857  25.2205873
  94.9762344  47.6590490  36.5428543  94.2653561  47.0269585  36.6493702
  94.5815563  48.5027695  36.7633080   5.5631995  46.0315466  35.4831529
   6.4823586  46.2108469  35.6812167   5.1403838  45.9739304  36.3399720
 106.8535900  38.7197709  24.5372868 107.0345306  39.5240378  25.0237513
 106.2670326  38.9932537  23.8320327  76.4153433  92.0958424  47.2994804
  76.9479561  91.3009930  47.2717237  77.0428371  92.7988911  47.4674416
  14.3781233  45.8444071  28.2699895  13.7712932  45.8822727  27.5306964
  15.2172959  45.6014633  27.8788400 114.8152924  63.6225843  29.3992209
 114.7636127  62.7539062  29.7979212 113.9669228  64.0236378  29.5880437
  87.9040718  15.0885105  85.3017330  88.0782318  14.1652358  85.1188087
  88.5244942  15.5634165  84.7487736  87.9417515  49.6220398  37.6432371
  87.5322056  50.4104948  37.2870827  87.2549152  48.9565277  37.6034284
  98.2620239  31.2979388  38.5652781  98.4234524  31.1442065  37.6343966
  98.8046265  32.0565963  38.7803626   6.4418918  42.3212576  23.7034392
   7.1107322  42.9013824  24.0672231   5.8961344  42.8935051  23.1640768
 112.8312874  33.3925986  60.5667782 112.9664898  32.4457026  60.6033993
 112.0177650  33.4994888  60.0738287 108.6994934  75.8445120  34.9766874
 109.0850353  75.0048447  34.7265744 108.4592152  75.7332277  35.8965325
  76.2737703  38.5096908   2.5969356  75.7454348  39.3048310   2.5273415
  77.1771669  38.8140726   2.5105587   8.6389160  66.1261034  23.2904601
   8.4159631  65.2447319  22.9909539   9.5949900  66.1563444  23.2552361
   0.7646897  46.5230370  10.4567087   0.5104889  45.7880735  11.0147738
   0.0546247  47.1569967  10.5573785   5.2410436  58.3218384  42.3606443
   4.4567463  58.4619665  42.8911877   5.3341281  59.1280937  41.8531799
  23.9806867  61.5858650  71.0902977  24.0534472  61.3454676  70.1666403
  23.9824152  62.5430632  71.0895205  91.1187363  65.5003881  31.7651749
  91.6682816  64.9767256  32.3482728  91.6829014  66.2226343  31.4889264
 114.1446686  50.7072783  57.4045229 114.2512035  49.8532248  57.8234148
 113.3618259  51.0779095  57.8119802 107.7363491  56.2285137  40.4682684
 107.4555779  56.2298775  39.5531750 107.7708340  55.3021622  40.7068396
  70.4592371  65.4033518  31.6401339  69.7133446  66.0030317  31.6563344
  70.0677443  64.5371389  31.5277004 106.1942005  43.7588167  52.9489851
 106.4872646  42.8952980  53.2399845 105.8557606  43.6118126  52.0657587
  93.4954929  54.9739599  56.6865253  93.9020824  55.1893616  57.5258780
  94.2043972  54.5941591  56.1674547 104.1223431  81.5268040  33.5180879
 103.2688236  81.0952663  33.4793305 104.1082478  82.0118523  34.3431759
  16.2247157  59.4339752  31.7814493  16.1215127  59.5306301  30.8347511
  15.4960978  59.9306917  32.1537614 100.5011654  80.7587051  33.3608007
 100.7451820  80.2337933  34.1231394  99.6456623  80.4181004  33.0993843
 103.8700962  92.1365166  19.4362509 104.4993114  92.3478222  18.7465632
 104.2994595  92.4141598  20.2454448  10.1375258  62.1812582  29.5843482
  10.5528557  62.8046179  28.9883947  10.2800024  62.5514078  30.4555082
  61.1605787   0.2146505  27.7837443  61.9378710   0.6321423  28.1548929
  61.5067816  -0.4377519  27.1748543   1.4568923  51.5397644  50.6678200
   1.3818684  50.8706951  49.9874163   0.7693700  52.1720982  50.4587746
 101.7267990  73.8318396  39.3924952 101.4419556  74.6896696  39.7074890
 102.6723766  73.9219999  39.2742324  39.6506071  53.3556128  59.4513988
  39.1920781  52.5820017  59.1235209  40.2220440  53.6189890  58.7300634
   8.4864980  65.6397724  39.5522070   8.4502208  66.1755085  38.7598014
   8.9887893  66.1660051  40.1743126  86.1744976  97.6029778  16.8656862
  86.5937710  97.0679569  17.5396252  85.6590366  98.2440472  17.3551238
  37.3634815 104.4437122  43.3294582  36.8602610 104.2215729  44.1128206
  37.6307702 103.5983181  42.9687643 106.2892151  77.6080084  38.8918304
 107.0430374  77.1009922  38.5903049 106.0985756  78.2063627  38.1694293
 104.0226746  50.2444458  10.9934342 104.4293880  50.2566624  11.8598449
 104.0508747  49.3250608  10.7285488  25.2522826   3.3040076  17.0184028
  25.0975251   4.0963471  17.5326788  25.9612679   3.5411322  16.4206231
  37.9026580  98.2476807  52.5026894  37.1700406  97.9459667  51.9655943
  37.5786781  99.0435791  52.9243660   9.2437387  26.6564488  39.6828580
   8.6665714  26.5089083  38.9336324   9.2060345  27.6012301  39.8318505
  15.5981064 108.3566952  24.8925424  16.3921559 108.5999107  24.4165564
  15.7066858 108.7521839  25.7574248  86.4853382  69.5775986  30.9550667
  86.1784172  68.6721277  30.9086490  86.4578247  69.7923231  31.8874669
 115.1170635  47.1236944  28.3599186 114.2751026  47.0979023  28.8145328
 115.7168198  46.6543245  28.9397621  93.1674576  40.7847929  88.2269955
  93.5370827  40.9429359  89.0956688  93.9082146  40.4789495  87.7035618
  66.2878227  11.7411184  90.5320358  67.0473719  11.2803733  90.1756191
  65.9259653  11.1391246  91.1823368  91.0387516  81.3369846  34.9706149
  90.3654957  80.6567192  34.9568319  91.5314198  81.2028122  34.1609812
  99.8272419 100.7197952  51.7663765  98.9186859 100.5470753  51.5195417
 100.0513935 100.0092506  52.3672962  22.2963285  82.6651192  67.8244591
  22.5794792  82.6809692  66.9102335  22.5390506  83.5260010  68.1653261
  98.6181641 101.3774204  44.6369982  98.6266804 100.4507160  44.8765421
  97.6893711 101.5988541  44.5696163 102.7764320  98.9202404  37.0390606
 102.0150661  99.4733620  37.2140074 103.4863949  99.3255234  37.5369883
  95.3642845  10.1071358  91.8842697  95.5406284  11.0287368  91.6950989
  96.2288761   9.6968341  91.9032764  89.9887562  54.8107529  18.4228539
  89.9709225  54.0445995  18.9963698  89.2994404  54.6446753  17.7798128
  26.2872195  33.4472632  26.5944982  25.9235358  34.1137767  26.0116386
  27.2147584  33.4058356  26.3617110  99.1033459   6.4770508  91.4190006
  99.7252464   6.7498690  90.7444286  98.3454323   6.1561221  90.9303284
  90.4058361  69.6075773  31.2191415  90.0933361  70.1641750  30.5058551
  91.2675095  69.9615526  31.4392662 110.0024605  60.7685328   7.6665783
 109.7395039  59.8924971   7.9487848 109.3235970  61.3463163   8.0151987
  24.4823027   7.9309285  33.2923102  24.4027686   6.9880307  33.1479192
  23.8179898   8.1290311  33.9523673  48.6972284   6.4362198  36.0079169
  48.5595512   6.7438841  36.9038081  49.4816113   6.8991786  35.7135653
   1.9951878  39.3920755  21.3668728   2.7951059  39.9131680  21.4363432
   1.9228806  38.9503121  22.2129512  21.7608976  63.7786818  36.5681505
  22.0414329  62.9572821  36.9716763  22.5763917  64.2396355  36.3713646
   4.7110581  66.1712360  34.3200159   3.9243355  66.1944914  34.8647714
   4.9513242  67.0908594  34.2068934  67.9181099  23.7513185  29.9095011
  67.8868198  22.9419613  30.4195929  67.0415735  23.8314009  29.5333409
 100.9417343  54.1516972  58.4916162 100.0226784  54.3174314  58.7015963
 101.3186359  53.8238907  59.3081474  11.3001359  64.6762896  31.5051818
  11.0231149  65.5919886  31.4737844  12.1890938  64.7069788  31.8587971
  82.7960110  71.1903286  56.2675381  82.0954514  70.7551098  56.7533731
  83.5965061  70.7538033  56.5588903 113.7693787  50.6925297  26.4853907
 113.1348991  50.2034950  27.0093322 114.2024899  51.2714672  27.1126723
 106.5964794  82.5911522  10.3017676 106.0732460  82.8498650   9.5431298
 106.0674191  82.8487873  11.0567188  15.6304872  85.2468586  18.1538916
  16.3599205  84.8163891  17.7079582  16.0480535  85.8440685  18.7745428
 108.3122635  69.5165825  31.8279266 107.6263428  69.0220308  32.2764444
 109.0970421  68.9765835  31.9215178  85.7063580  65.4712343   9.5659471
  84.9691296  65.7595587   9.0278000  86.4775467  65.8329105   9.1292661
  10.1632798  68.3664227  34.7419286  11.0917342  68.5660505  34.6221328
  10.0745964  68.1928205  35.6790686 109.1037750  61.7662191  30.9181690
 109.3942451  62.1163034  30.0759697 109.7764683  62.0463562  31.5388417
  94.3799305  92.1830654  12.4260795  94.2278099  92.2437859  11.4829957
  95.2813148  92.4831200  12.5431025  21.2893653  71.9738102  15.5806005
  20.8411407  71.3063574  16.1000526  22.2168422  71.7469406  15.6480408
  17.9778409  45.7646132  40.1308441  18.6772370  45.9388590  40.7606983
  18.1353199  46.3860798  39.4200611  51.9563866  94.3080521  83.8125420
  51.7678070  93.4864998  84.2661190  51.2437391  94.4016838  83.1804085
  72.9573059  27.6452112  93.6028099  72.7442217  28.3719540  94.1881943
  73.3867025  27.0016527  94.1664314  12.9800534 103.9334488  73.5219049
  12.0952201 104.1035938  73.1988716  12.8879404 103.1580162  74.0754938
 107.2916603  88.1164646  11.3609719 106.6762257  87.5605869  10.8830011
 108.0054474  87.5277519  11.6062319 106.8816662  71.1472034  50.8353329
 107.6975727  70.9545374  51.2972927 106.2478638  71.3214636  51.5311480
   9.9300820  60.6838989  26.0250330  10.2679825  60.4579639  25.1584244
  10.6057239  61.2441397  26.4069605  17.3414826  77.1859741  18.7318277
  16.9674087  77.9771090  19.1196513  17.4424279  76.5829039  19.4682705
  38.8192654  62.1727467  28.6849618  38.2348228  62.7738333  28.2230616
  39.6819782  62.3378515  28.3045673  88.5281277  71.4468622  43.7429619
  89.1375732  71.8181038  44.3809128  89.0721989  71.2436295  42.9820967
  92.0570660  58.9654303  21.7238379  91.1144638  59.1303349  21.7008877
  92.3289967  59.2509365  22.5960636   8.7741834  58.3705616  15.9304452
   8.3307880  57.9465580  16.6651917   9.6789372  58.4753180  16.2248576
  13.3115029  74.3373442  40.7730675  12.9249227  74.8535156  41.4804268
  12.6297522  74.3020964  40.1020956  10.6307757  63.3270121  44.6468878
  11.1007738  64.0782976  45.0086927  10.4746008  63.5602570  43.7317753
  97.8525448  60.9847546  50.8944225  98.0104923  61.4265776  50.0601101
  98.2963753  60.1412392  50.8065414  24.6609879  82.4837399  43.7569523
  24.0291953  81.9466591  43.2788134  25.0630021  81.8808746  44.3823957
  92.9678440  90.6578827  14.4213033  93.3776951  90.9552288  15.2336073
  93.3274746  91.2339687  13.7467408 107.4642086   6.7276931  22.9232574
 108.0398083   7.1915942  22.3152232 107.7966404   5.8301002  22.9301906
   3.7551883  23.0843329  43.9871264   3.8576540  24.0191102  43.8084507
   4.6415639  22.7291822  43.9205122   7.2096151  82.5940418  66.2660551
   7.6742768  82.3808861  67.0753050   7.1844214  81.7697430  65.7801104
  77.4115229  48.1735277  18.6845660  77.3775673  47.4677801  19.3303204
  78.1953812  47.9876471  18.1676066  10.5356789  60.6602478  44.6813583
  10.5240691  61.6087389  44.8096848   9.9663597  60.3183079  45.3706932
 103.2787609 103.5661983  42.1458387 102.5889778 103.6316967  41.4854193
 102.8088093 103.4833527  42.9756069  19.5340312  18.5130656  68.4873676
  19.0724671  19.3511891  68.5145664  20.4425073  18.7331450  68.6934471
  77.9056072  93.5430050   5.8517861  76.9971943  93.5729313   5.5515742
  78.3986712  93.9975929   5.1687974  12.3030007  90.7501698  52.3968792
  12.6864576  90.9847927  53.2419491  12.1416223  89.8087978  52.4601698
 101.2220192  65.1779318  47.2232246 101.6647148  66.0149527  47.3633718
 101.8269157  64.6754885  46.6774321   0.3965868  51.2222958  40.5227184
   0.0844432  50.3263998  40.3955555   1.2657531  51.2322617  40.1218653
  33.1040382  93.0074692  79.0511990  32.7474475  92.7697277  79.9070930
  33.2464242  93.9524841  79.1051579  93.1598663  78.9006948  45.0025177
  92.3829174  78.4504366  44.6710873  93.8305855  78.2192755  45.0476456
  33.0079627  60.4040241  10.2623808  33.6734009  61.0384083   9.9959540
  32.8268886  60.6170464  11.1778402  39.0288091  72.1100140  79.2940235
  39.4968867  72.9330730  79.4344282  38.1675243  72.2544336  79.6858978
  24.5187402  24.3589473  26.9951534  24.7134376  23.5968876  26.4496350
  23.5939121  24.5420194  26.8296003   0.7243107 102.0684624  37.3385978
   0.6918946 101.1721611  37.6730013   1.2111179 102.0002079  36.5172625
  13.3557272  27.3722696  65.0896406  12.9019618  26.5294981  65.0977945
  14.0069532  27.3004198  65.7874775  27.7311635  96.4894772  72.5741053
  27.1227455  96.1856365  73.2477093  27.3129344  96.2487888  71.7474318
  27.2768593  78.2968044  49.9467611  27.9035687  77.6748037  50.3163290
  26.8003917  77.7931833  49.2867804 114.0579987  62.4826050  33.0990243
 114.2111301  63.2122231  33.6993909 113.8881779  61.7337608  33.6705351
 105.7619476  66.0246849  45.6202316 105.8728695  66.6838932  46.3053465
 106.4115238  65.3527260  45.8269882   8.8535476 102.1116352   3.6143884
   8.2049817 101.4309311   3.7939388   9.6216488 101.6339874   3.3011788
  88.8960266  27.3309517  40.8678150  88.2551289  26.8235493  40.3698015
  89.2902946  27.9179788  40.2226877  24.9873257   8.4709251  89.2230606
  24.9488759   8.5552609  88.2703590  25.7009721   9.0519822  89.4863415
 105.7336617  93.4610081  64.1658831 106.2657166  92.9549980  64.7799778
 105.3612804  94.1657448  64.6958828  98.7003136  60.0768328  16.1821222
  98.6933517  60.7981777  15.5529642  99.6232891  59.8351669  16.2592304
  15.4997969  99.6761322  17.6868117  15.9818530  99.1655636  18.3373296
  14.6102810  99.3238831  17.7170825 109.1125965  87.0462227  48.8103056
 109.7236156  87.6939869  48.4591818 109.1442490  86.3229847  48.1840801
 104.7987747  79.3895864  21.9028544 105.2439404  80.2352715  21.9565511
 105.2978897  78.8186741  22.4869585  67.0060730  17.5623608  37.3429298
  67.4756527  18.2152724  36.8238592  67.3712778  17.6486313  38.2235050
  32.6247144  89.7216415  76.9670105  33.2830524  89.1932106  76.5158081
  32.0248151  89.9992466  76.2747049  99.4435596  14.5141304   3.5101771
  99.7027969  13.6417294   3.2136223  98.7708855  14.3521905   4.1716194
  96.8982792  10.0586236   5.3999066  96.7999649   9.2972749   5.9716702
  97.8441143  10.1527321   5.2868837  57.0593596  27.3726439   2.1143556
  56.9524145  28.2769585   1.8193828  57.1598959  27.4407148   3.0638239
  27.7966070 107.3112774  15.6269836  27.3623443 106.4988613  15.3669178
  28.2142043 107.6268005  14.8255563  63.5444021 104.8142338  41.5331984
  62.6999712 105.1415157  41.8431330  64.1886377 105.4013348  41.9287920
  78.8051367   7.4499416  28.5483909  79.3886757   7.3215628  29.2962074
  79.1063595   8.2648718  28.1466627  69.6968031  25.4085016  23.7152958
  69.8768377  25.2434731  24.6408153  69.6883392  24.5394015  23.3142638
  51.1700583 100.1568127  19.2281544  50.3443003 100.1357269  19.7117996
  50.9746981 100.6680775  18.4428668  43.2935190  99.1972828   4.4823655
  43.9937115  99.2257595   5.1344001  42.6603365  98.5736752   4.8379421
 104.6401978  33.4121871  19.3677080 104.0945435  33.9678264  18.8111508
 104.7037029  33.8901806  20.1945829 110.0653744 108.2556534  17.7986920
 110.9488010 108.0375290  18.0956948 110.0229836 107.9172421  16.9043136
  97.0104504  30.1067829  29.9183488  96.9486523  30.7634354  29.2246461
  96.2589550  29.5322752  29.7719550  51.5506172  87.9226017  23.1557202
  50.6475878  88.2396698  23.1405330  51.4783525  86.9851398  22.9763341
  29.3773603  63.8268137  85.6690693  29.7702861  64.5393515  85.1649570
  28.4542751  63.8350010  85.4159355  46.4259243 103.9576530  47.4140739
  45.9319782 104.4902134  48.0374813  47.2562599 104.4218254  47.3076916
  80.2736092  12.1550238  12.7397954  79.7139549  12.8717589  13.0386376
  80.1562786  11.4693749  13.3973277  37.5770688 102.7851486  23.0785942
  37.7543044 103.3048058  22.2945166  36.7174625 103.0842972  23.3749413
  38.2221174  92.1494961   7.4354339  38.2202888  93.0402946   7.0851350
  39.1405654  91.8817139   7.4041653  37.2852898  92.6683712  23.9866614
  37.3356223  92.3699570  24.8947597  36.4533997  93.1390381  23.9349747
  91.9581032  12.1636426  19.6614778  92.5258923  11.5790570  19.1593742
  92.5618172  12.7442527  20.1247835  71.8747854   6.5606230  48.1085110
  70.9865141   6.9170469  48.1214380  71.8401003   5.8543581  47.4633598
  32.7387738 107.3886013  63.7869835  33.3608341 107.4757099  64.5092630
  31.9375968 107.0647430  64.1986418  62.6927137 105.9214115  30.1159096
  63.2104778 106.5604115  30.6056285  62.4917889 106.3593102  29.2888045
  67.3107719  14.8891008  25.1999378  66.6014576  15.3125954  24.7164559
  67.4461842  14.0570021  24.7466087  39.6556211  94.7988224  22.0248437
  40.0650215  94.1738033  22.6231503  39.8988247  95.6571198  22.3718619
  82.8141785  24.7034168  30.4876041  81.9574928  24.3767548  30.7625747
  82.6705837  25.6331515  30.3109598  42.2509384 107.2910309  19.8478484
  42.9186249 107.8422832  20.2559519  42.1422768 107.6566792  18.9699411
  72.3932791  14.8478997   9.1112298  73.3373737  14.9749339   9.0175283
  72.1221828  15.5195379   9.7370422  43.8111353 106.8048668  14.1771472
  43.4286213 107.4543095  14.7671771  43.0731773 106.2534809  13.9170861
  15.2664506 101.6799355   2.3976849  15.0904989 101.7716408   1.4612752
  15.2099037 100.7384586   2.5609368  62.0076084   3.5089356  30.7178235
  61.1230707   3.1759137  30.8692145  61.9258118   4.4578749  30.8129835
  77.0961761  74.7247601  26.9324136  77.7064562  73.9878988  26.9610715
  77.2636604  75.1417351  26.0872436  32.0744228 103.0446911   6.7223150
  32.2010779 102.3883533   6.0371774  31.6205215 103.7642860   6.2836856
  97.0598030  11.2806237  46.4039898  97.0706940  11.9593549  47.0788479
  97.6540947  11.6057312  45.7277107  23.5174704 104.0908813  34.5588803
  24.3858075 104.4439888  34.7526288  23.1218195 103.9432430  35.4178858
  46.2944126  15.7421243  19.1365564  46.0304880  15.6448805  18.2216132
  46.1733818  14.8711169  19.5146155  83.8874722  30.9793687   3.3077085
  83.9093399  31.7765951   3.8370311  83.7866879  30.2718019   3.9444372
  49.4876909 105.7454395  19.3261349  49.7118235 106.6742992  19.2694175
  48.5306740 105.7302284  19.3372428  38.2139945 106.1748314  24.5107365
  38.4219313 106.9576931  24.0007162  39.0432215 105.9288406  24.9207401
  50.9075880  79.1415119  12.8592443  51.2528849  79.0489912  13.7471855
  49.9804020  79.3447256  12.9827845 114.8779106  70.5355501  73.9506292
 114.2924881  70.0545931  74.5356035 115.0534916  71.3569069  74.4097376
  94.1982555   6.8856424  10.3242147  94.6523952   6.0982704  10.0241625
  93.2764435   6.6306162  10.3622937  69.0270948   0.1233714  47.3262072
  68.6851835   0.0071584  48.2126713  69.8580360   0.5825775  47.4482822
  69.2211580  29.6538663   4.6474320  69.5863342  29.1614270   5.3825366
  68.6503935  30.3050804   5.0553358   3.8081229  59.9023819  79.6452999
   4.1856080  60.7725382  79.5165634   4.1785538  59.6009445  80.4748440
  49.9764776 109.5091915   9.0647262  50.8149195 109.2528343   9.4488323
  49.4846630 108.6909389   8.9953196  30.0465369  34.3935728  79.9669313
  30.1524091  34.3990493  80.9182453  29.9430966  35.3157473  79.7321415
  76.3999128  33.7052131  17.9240179  75.9481812  33.1787014  18.5835314
  75.6965208  34.1381979  17.4402809  83.9457035  99.2428780  36.5678835
  83.3778477  98.7827301  35.9497952  84.8106575  98.8560104  36.4321518
 111.8851185  19.1641104  44.2661190 112.4319839  18.3984005  44.0904474
 111.1621666  19.0901196  43.6431456 106.6983700  60.0235510  19.0195715
 106.6299725  59.4092655  18.2886779 106.0622597  59.7053862  19.6601737
  25.4647231 101.6531181   3.1030765  26.3567853 101.3362503   2.9614678
  25.4578519 102.5294018   2.7179641  82.2324848  36.6293716  46.7528582
  81.6102791  37.2429085  46.3621378  82.5279999  37.0646358  47.5525093
  68.3230734  84.6611500  46.4445496  67.4016285  84.7394562  46.1974907
  68.5635567  85.5349636  46.7525291 105.4680347  19.3919897   3.1181163
 105.1792717  20.1382089   2.5927502 105.0366974  19.5133603   3.9639622
  41.6898823 105.5791855   6.4503556  41.0762072 106.1091137   6.9590908
  42.4171352 106.1716652   6.2598109  52.3807335 103.0449104  21.8379760
  52.0262384 103.6206722  21.1604261  52.6512098 103.6380672  22.5388670
  24.2319250  33.4208131  93.5980225  24.2449641  34.3715072  93.7086773
  25.1329064  33.1472683  93.7701797  69.8025227   5.1291198  16.8696856
  70.3939962   4.9097493  16.1497796  68.9288425   4.9378461  16.5286136
  93.3733177  19.7969747  38.5152769  93.5384083  19.5027494  37.6195049
  92.4715614  19.5295334  38.6928630  61.2419653   2.3019049  37.0725989
  61.0834837   2.0021832  36.1774540  60.4893684   1.9809657  37.5694180
  53.4016275  10.6305778  14.8355412  54.1633177  10.0510979  14.8517609
  52.6675606  10.0682449  15.0828445   6.2405658  24.0700889  48.9417267
   6.0860133  23.1309891  48.8395691   6.8730724  24.1322565  49.6574831
  66.3736582  32.8157496  34.3469548  66.4158678  32.3781776  35.1972365
  65.5296659  32.5495148  33.9822173 101.6532040  28.7268448  49.0076065
 102.1704388  29.1570520  49.6885061 100.8182526  29.1949081  49.0094376
  12.5902283  50.2268934  81.4933014  12.5285101  50.1643896  80.5401421
  11.8536067  49.7075129  81.8155861  79.6896219  30.2616215  42.5384331
  79.0050697  30.8039927  42.1467018  80.2211952  30.8756924  43.0449724
  63.6920643  23.6923528  17.4876595  62.8659868  23.9435983  17.0744991
  64.3054533  23.5981941  16.7588794  31.1812615  96.5125179  13.0137336
  30.4995394  96.0991955  12.4839675  31.9924951  96.0891151  12.7329075
 108.5137844 105.3274918  93.9118290 108.4134293 104.7476673  93.1568718
 108.7340355 106.1783791  93.5327244  90.9683514   8.0590677  41.0072756
  91.6392136   8.4066522  41.5949535  90.9558201   7.1190590  41.1874390
  29.4748592  87.4830341  38.0988026  29.5166397  88.2933903  38.6065507
  28.9175010  87.6975632  37.3507619  88.7143612  21.1227131  11.0687613
  88.4975147  20.6832600  11.8910074  88.7468624  20.4179549  10.4218507
  54.1869640 108.8297462  48.4152889  53.9735985 107.9917526  48.0048370
  54.4056940 109.4062424  47.6831388  68.9043808  20.6728697  32.9401755
  68.0147266  21.0255575  32.9593110  69.3686295  21.2278914  32.3135543
  78.8479376  17.9355001  29.8747206  78.1512642  18.5909534  29.8392558
  78.4441948  17.1380591  29.5322108  31.8583322  93.4792328   7.8481084
  31.5651202  92.7133465   7.3544794  32.0855927  93.1348896   8.7118274
  95.6631184  36.1363053   5.0954586  96.1924458  35.4942012   5.5684751
  96.2673092  36.5258574   4.4634560  97.4769020   5.0896478  33.5879135
  96.9169807   4.3554544  33.3355522  96.8655491   5.7787544  33.8479543
  81.2752914 100.3088856  17.8371620  81.2625122 100.7153130  18.7036991
  80.8451843 100.9463978  17.2672355   4.9872914  25.1418257   4.1217318
   4.0811843  24.9289417   4.3450749   5.4847425  24.9301624   4.9116516
 103.3187199  44.1706705  11.6849041 102.8528976  45.0067568  11.6708243
 104.1138935  44.3309307  11.1767256  13.0662763  42.7191973  44.4316626
  13.1328857  43.1281948  43.5688114  12.2354937  43.0380106  44.7843504
   1.4646521   4.5927489  45.0251007   2.4070022   4.5734885  44.8582554
   1.3674207   5.1685244  45.7835627  89.9369049  10.4377186  13.0275142
  89.2695618  10.5061758  12.3447287  90.7336330  10.7755327  12.6184452
  49.9756765 103.9680862  28.1382322  49.8885345 103.8049793  27.1990657
  49.3039846 103.4172821  28.5403252  74.2066050  90.8080387  32.3743916
  73.2603598  90.8733082  32.2455716  74.3262339  90.8961868  33.3199859
  36.8178797 106.2504387  85.5095196  37.2150326 106.9925690  85.9653091
  37.3100591 105.4892445  85.8170509  24.9874163  43.0891991  38.4360814
  24.6574211  42.1907425  38.4466553  24.7617960  43.4373903  39.2986894
  87.6965618  12.9555082  51.6671467  87.5682259  12.2852635  52.3383665
  88.6264801  13.1754112  51.7229748  82.8179646   9.8764795  15.6159711
  83.7611580   9.7693306  15.7389855  82.4240303   9.3147725  16.2834537
   2.3208039  35.1167774  31.0927844   3.1100002  35.4712057  30.6831741
   1.6979156  35.8434892  31.0811782  68.0334711  39.1181493  15.4504597
  67.5662947  39.0714574  14.6163130  67.3826122  39.4451070  16.0715210
  94.5381069  58.5633707  37.1189332  94.6833324  58.4371471  38.0565953
  95.2918625  58.1463766  36.7015553  71.0038900   6.4654601  52.1340942
  70.3988886   5.9738624  51.5786409  71.5798759   5.7992423  52.5091028
  49.5136356  70.4680300  83.9926147  50.2710009  71.0531521  83.9763546
  48.7603521  71.0481691  83.8820076  76.5009832  23.9893651  26.7701650
  77.0729256  23.2362580  26.9183040  77.1000099  24.7111988  26.5794826
  84.5751095  15.7952356  48.8699245  84.7344494  16.6454911  49.2796898
  85.2983856  15.2451074  49.1706848  95.1294422  46.6731977  27.4646711
  95.8915424  46.8301296  28.0221653  95.4706669  46.1619520  26.7308950
 108.2212353  19.1223323  27.0906711 108.2856274  19.1394675  26.1357927
 108.5938358  18.2768250  27.3407173 114.1112614  92.6414299  79.8606396
 114.8154259  92.1851635  80.3212929 114.1277122  93.5295010  80.2174187
 102.6916981   2.5162724  58.8700390 103.3289146   2.6771802  58.1741238
 102.1263790   1.8265170  58.5223627  14.4846559  63.2099342  35.4541063
  13.6979985  63.2243156  35.9992623  14.8282981  62.3220205  35.5528593
  96.0223770  12.7759135  31.0766029  95.6899452  13.0272472  31.9383168
  96.6430950  12.0696831  31.2559986   2.7049002  45.5180550  22.9784322
   2.4238178  46.0746241  22.2521710   2.6366109  46.0794163  23.7507296
  91.1476421  47.6246595  33.1011367  90.6522655  47.8720188  33.8819361
  91.6632271  48.4025145  32.8881955  50.5575228 108.6973381  47.8515148
  51.0892725 108.9896393  47.1112251  50.4303312 107.7607918  47.7000523
  11.8251646  15.7126188  41.0447884  12.1684980  15.2123380  40.3044653
  12.3362446  16.5219569  41.0445642 112.9800987  21.9041562  24.8344326
 112.8176594  22.7771020  24.4769287 112.1084118  21.5564728  25.0228405
  78.7579632  10.8261251  20.9554100  78.2932568  10.0063837  21.1236382
  79.6792507  10.5722570  20.9005046  52.0741081  32.9365587  74.9369049
  52.8370094  32.6701999  74.4238091  52.1564627  33.8871932  75.0126743
  88.2368660  41.4112043   4.9573398  88.8133049  41.6813612   4.2425197
  87.3541260  41.4880753   4.5952696  98.2151413  36.1925316  10.1898837
  98.9308739  36.4839482  10.7547128  97.5142193  36.8255377  10.3455853
  20.2099061  22.0787811  18.4585631  20.9397960  21.4597130  18.4743369
  20.2361345  22.4576473  17.5799263  68.5346079  48.8982248  34.7574711
  68.9440346  48.8384056  33.8943243  69.0049696  49.6065426  35.1971078
  50.9226322  30.7032919  29.9049425  51.0898256  30.9040809  30.8257914
  49.9683237  30.6949830  29.8310542   4.0205878  68.5783911  88.9879322
   4.8203954  69.0162277  88.6966610   4.3154001  67.9624701  89.6587181
  70.2600336  20.5886626  20.8572960  70.9396648  21.1421227  20.4725718
  70.7352543  19.9949360  21.4385748  88.7788010  44.7886705   8.4721774
  89.5127869  45.1622438   7.9843962  88.8978481  45.1086807   9.3664092
  20.9606743  49.3534374  52.0283937  20.7608700  50.2624416  52.2520351
  21.5388584  49.4153738  51.2680626  98.9888096   4.0798387  50.1031828
  99.8857880   4.4092071  50.0468588  98.6445808   4.4594815  50.9116459
  91.1669350   0.9661800  55.0594664  90.3941059   0.9913821  55.6236696
  91.6287041   1.7828912  55.2491617  92.8070927  37.0231748  37.6474905
  92.9943371  37.9597855  37.5848007  91.9049072  36.9381285  37.3391509
   3.3078775  73.7570333  78.1999636   3.0227995  73.3856153  79.0348387
   2.7594933  73.3242655  77.5455809  48.0532742  32.7747345  28.2905364
  47.4527884  32.0353889  28.3855224  47.7162027  33.2619953  27.5387430
   1.5473817  81.8558598  88.1185055   1.4460504  81.3073254  87.3406410
   2.4411175  81.6863155  88.4163761  38.0675411  13.9026403  67.7923679
  38.0018663  13.2439232  67.1009874  37.2880173  14.4466007  67.6797533
  93.1926632  18.8080752  54.1151953  92.9414845  19.4636035  53.4644890
  93.5040569  19.3191826  54.8622179  39.8471498 103.7500668  79.3381453
  40.1809502 103.1439781  78.6767387  40.3619194 103.5568142  80.1216602
 103.0057049  38.9848089   4.0727898 102.9613113  38.5788321   3.2070854
 102.3120213  38.5562563   4.5741653  64.6449280   4.9311548  52.8757334
  64.2775297   4.7387034  52.0130587  65.2006674   5.6974804  52.7338505
  37.7255940  68.6558628  72.0914936  38.2033515  68.2318592  71.3786125
  37.4773645  69.5102882  71.7385435  91.3008690  11.2261689  30.3546739
  90.3463078  11.1705494  30.3105021  91.5060329  11.0921061  31.2799668
  44.3036985  91.2645626  20.5792356  43.3638620  91.0833168  20.5699348
  44.6330023  90.7829666  21.3380909 102.5646877  15.7683623  19.9366295
 102.6610279  16.1448467  19.0618658 101.6745186  16.0008657  20.2007461
  73.4440994  21.3896251  28.4451580  72.8861570  20.6312108  28.6175966
  73.6366272  21.7473459  29.3118763  83.5510635  47.6220560   4.7133973
  83.0419731  48.3574343   4.3723932  83.1307507  46.8467617   4.3412581
  85.8757782  22.6411486  42.8717136  85.1212597  23.1581330  43.1539488
  86.1277390  22.1414590  43.6482811  91.8778324   7.0928484  13.4410119
  92.7898407   6.8938988  13.6529124  91.7232800   6.6487193  12.6072884
  87.8654480  21.2494588  48.4751320  87.4270248  21.9397855  48.9726019
  88.7207699  21.1580038  48.8949871  18.2950974   8.2194859  21.6510105
  17.7725792   8.6976981  22.2948432  17.7061534   8.0995524  20.9060335
  98.6591530  26.6628551  48.1757355  98.3480453  26.0406017  47.5182819
  98.5480976  26.2059188  49.0094709   0.9452142  40.0038910  36.4060044
   0.1174033  40.2599859  36.8126702   1.4759310  40.8003521  36.4210176
  96.4121532  20.2560806   5.4927665  95.8119106  20.6504965   6.1255175
  95.8646107  20.0620079   4.7320014  70.4148388 101.6718292  54.9069357
  69.8399067 102.4162292  55.0846004  71.2795830 102.0620728  54.7798109
  56.5892220 103.8393402  14.2711830  56.3127089 103.5258961  13.4100676
  56.3804626 103.1194496  14.8664999 107.5833511  98.8111401  87.2851276
 107.6884460  99.3438625  86.4968395 107.4532318  97.9213047  86.9572735
  25.4325175  87.3240566  89.1755199  25.4007030  88.2278442  88.8618565
  24.5146585  87.0779705  89.2904568  64.6533442  16.7496550  39.4236064
  64.5787621  16.2211359  38.6290383  65.5427599  16.5862107  39.7373748
  22.8273726  20.2351904  26.1240196  22.2790003  21.0195327  26.1060476
  22.2090411  19.5087790  26.0451174 101.9097328  45.6462908  61.9097710
 102.5719833  45.7801199  61.2317276 102.3602581  45.1441479  62.5888205
  74.9286270  45.8842754  55.8193159  74.3141127  46.0878038  56.5244293
  74.9473476  46.6761637  55.2819157  81.9409180  15.4237568   6.9662988
  82.3945713  15.9993255   6.3505477  82.4295044  15.5154383   7.7842909
   5.8508497  14.3418384  36.8550491   6.7831635  14.3219757  37.0709848
   5.5766237  15.2358222  37.0595574  87.0951176  42.7994156   0.5432746
  87.4843979  43.3414268  -0.1429603  86.6575146  42.0916891   0.0701365
 110.2196789   2.3653781  15.5053520 109.9016094   2.6644343  14.6535158
 110.8856678   1.7105317  15.2959096  79.5200491  14.9610436  40.1832533
  79.5052671  14.7061777  39.2607260  79.4758511  15.9171069  40.1683474
   9.1812915  61.4664841  63.2072973   9.6371633  61.1173677  62.4414444
   8.6267877  60.7454062  63.5052919  62.1962070  32.1303630   4.0257770
  62.4384975  32.7796721   4.6860224  61.4159441  31.7058086   4.3823975
  86.1753750  13.2545078  33.9108562  86.5649700  12.4469674  34.2460132
  85.2468967  13.1822741  34.1320515  75.0824118  30.0617743  21.1533141
  74.4236088  29.3673682  21.1497426  74.8980856  30.5627155  21.9478655
  17.6505923  70.4610348  89.7870541  18.5932636  70.3691292  89.9254704
  17.2835028  69.6256065  90.0760841 104.1242218  24.5865107  48.5162497
 103.8438034  25.4861569  48.3482313 103.7122250  24.0734291  47.8210974
   1.5974133   8.1885260   4.8898640   1.3988824   7.5773007   5.5992448
   2.3386775   8.6997133   5.2145892  70.6868792  94.3350887  16.2659085
  70.7918739  95.2148914  16.6280699  70.4174614  94.4800186  15.3589129
  28.7000203  63.2099485  94.2325497  29.4482398  63.4925938  93.7067127
  28.5812044  63.9091969  94.8753357   3.1028110  13.2792687  24.8120809
   3.7200505  13.6671066  24.1917348   2.9007316  12.4194932  24.4430542
  94.8035717  22.2859454   2.9979438  94.2890739  22.0717573   3.7761813
  95.7119465  22.1461916   3.2654196  45.2534485 104.0836525  25.0897479
  45.9860420 103.4914398  24.9199748  44.5209646 103.5044098  25.2999306
  98.9711666  35.3241277  13.0858958  99.4542503  35.9365582  13.6406863
  99.4463730  34.4976139  13.1712520   9.2054385  20.4931450  27.3819470
   9.3474269  19.5475960  27.3371291   8.7667197  20.7087374  26.5589786
  27.4337506  37.9786825  80.8964825  27.0951843  38.7502313  80.4422665
  26.6561246  37.4567747  81.0943222  35.5922723 107.2016335  24.2583084
  36.5055203 106.9620323  24.4157958  35.4841065 107.1232033  23.3104801
  86.0461998  12.8828263  20.8591962  86.2914276  13.6085105  20.2851915
  86.7824554  12.2737241  20.8030868  96.2981033  13.1211376  36.5998912
  95.5814838  13.5433769  36.1261797  96.1463642  13.3495283  37.5169778
  94.6906853  31.0637021  19.2219234  94.7841454  30.3693724  19.8741555
  94.8105145  30.6208587  18.3818269  54.4469690   2.2866081  42.1414757
  55.2676201   2.5567165  41.7293978  54.6942472   2.0505311  43.0355406
  43.8301992  14.7164237   8.3726543  44.4569588  14.3597364   9.0020818
  43.0072117  14.7703385   8.8584679 111.4378643   6.1480761  10.9282553
 111.3688946   6.3127959  11.8686509 110.6008816   6.4449334  10.5710816
  79.1223526  15.2526712   0.3334048  78.7642336  16.0379016  -0.0805980
  78.4394646  14.9699581   0.9416565   6.6590989  21.4029050   4.5952052
   5.9522349  20.7599640   4.6517757   6.3973653  21.9844341   3.8813761
  75.1430035  60.4431534  30.5313635  74.7701836  59.5619726  30.5589128
  75.8116674  60.3990507  29.8478627 114.9218559  67.4691057  86.6972351
 115.6805420  67.9264975  87.0597649 114.8938751  67.7412939  85.7799816
  12.7327454  16.7332530  28.9087391  12.9380167  16.3565063  28.0530763
  11.8977106  16.3337028  29.1522694  23.4141397  13.7640476  84.1161156
  23.6703014  12.9195046  84.4867325  22.4874401  13.8522434  84.3390083
   0.1784549  42.0286036  33.0143785   0.1374465  42.5632143  32.2214460
  -0.2453591  42.5631618  33.6858392  96.4747047   0.5973804  43.3502817
  96.3122940   1.4544541  43.7443304  97.1831894   0.7514709  42.7253437
 102.0049381  56.0036469  16.6244626 101.4022350  56.0157156  15.8809388
 101.4531231  55.7892418  17.3766339  92.0131969  49.8146677  14.9660039
  92.6892853  50.4727411  14.8045278  91.3251495  50.2879524  15.4337859
  59.4124174  33.6457992  26.1639953  59.2711258  34.4677138  25.6941843
  59.1121578  33.8246179  27.0551181  40.3834724  92.5297642  64.3685961
  39.4375372  92.4014568  64.2980814  40.4986906  93.0196762  65.1828146
  35.4972625  88.7896061  16.7352962  35.4332995  87.8798676  16.4445782
  36.4344740  88.9340401  16.8657053  45.6068802  42.2094345   1.9725859
  46.3213348  42.3168945   2.6004684  45.0844145  41.4890862   2.3252392
 102.8551292  21.3603449  35.8933997 102.2319984  21.5849376  35.2023911
 102.5345421  20.5294514  36.2442160  68.1839132  96.5458202  51.7502213
  67.2433758  96.6651821  51.6183853  68.3206177  95.6027317  51.6600847
  33.2078099  73.3348179  83.6324024  32.6023746  72.7335930  84.0662289
  33.8793278  72.7670860  83.2542801  96.2844086  35.1597714  41.5527105
  96.6739845  36.0221386  41.4085197  96.7711735  34.5766401  40.9702587
  99.5505428  40.7015133  14.0787899 100.1658440  41.3957500  13.8428295
  99.8274136  40.4225302  14.9515676  69.4350386  94.0477753  19.6158099
  69.4533300  94.9975586  19.7333324  69.7204590  93.9127064  18.7121940
 113.0469513  24.1584682  37.7694631 113.4730339  23.4706402  38.2809067
 112.1272469  23.8955808  37.7338648 115.7015705   6.4707530  46.8439531
 115.9195518   7.3341209  47.1951103 115.4844093   6.6333938  45.9260082
  45.4991102  35.8163714  44.1606760  44.8985434  35.0777078  44.0610456
  45.3930616  36.0900807  45.0717592 105.1433372  14.4403255   5.3614980
 104.2786980  14.2496967   5.7252145 105.0784874  15.3431654   5.0501984
  17.6183760 103.7160206   6.0328120  17.6326096 102.9278088   6.5757233
  17.6121485 103.3875179   5.1337683 103.0798817   1.4055142  22.9757977
 103.9268780   1.8513520  22.9679990 102.9134178   1.1914786  22.0578051
  70.5717421  13.2648146  64.9969053  69.9539995  13.9319360  65.2961969
  70.4011297  13.1841779  64.0584898  80.4927731   7.1890426  44.1082001
  80.9863853   6.4077497  44.3575287  79.8993254   7.3421794  44.8434496
  64.7863150  93.2721138   9.1113210  65.6591558  92.9093647   8.9603359
  64.9121428  94.2204475   9.0787774  81.2506866  66.8986940  19.5111215
  81.2332058  65.9562588  19.6776628  82.0852757  67.1911955  19.8773718
 100.9598923  17.4537480  30.8625746 100.8423138  16.6247523  30.3987074
 100.0771141  17.7019191  31.1370659 108.3917809  57.6814556  -0.1585422
 109.1090012  58.0381060   0.3655056 108.2323170  56.8137360   0.2127632
  98.9522171  34.2526817  43.3775473  99.5220566  34.7152424  42.7630854
  98.9804173  33.3401704  43.0898666  38.0266833 102.4918270  82.4797153
  38.8637233 102.0438957  82.6019859  38.2558179 103.4202290  82.4372387
 109.1055965  47.0260572  37.9619670 109.5569229  46.4484072  38.5774803
 109.3811035  46.7181587  37.0985270  82.9850674  59.5971441  11.0619783
  82.6181507  59.9701452  10.2604330  82.6104546  58.7176132  11.1101913
  54.5478296  82.7000809  93.1540680  55.2031517  83.2160187  92.6844120
  53.7090731  83.0108070  92.8132343 102.0484161  25.8445692  11.0186958
 102.3055840  25.1702642  10.3898835 101.2400627  25.5122590  11.4090383
 100.0309277  35.2564931  34.5180678 100.5016804  35.6492543  33.7829733
  99.5880508  34.4966245  34.1403294 110.7924557  55.6545734  19.1122901
 111.0831642  55.6905651  20.0235677 111.3010120  56.3352966  18.6715913
 101.4374352   9.8406118  41.5443182 102.2727203  10.1895380  41.8554306
 101.5953255   9.6251929  40.6251335  98.1399441  20.4305291  14.8241925
  97.5919724  20.3600621  15.6058538  97.6983643  19.8862576  14.1722655
  82.2291660  28.6442304  22.7135658  81.4098167  29.1201615  22.8491950
  82.3286724  28.6048961  21.7623663  61.9606447  58.5086203   2.5064936
  61.1502409  58.9823675   2.6936859  61.7118788  57.8589201   1.8490449
  86.7994976  66.4470148  16.6476214  86.6984940  67.2531223  17.1538103
  86.7825508  66.7338371  15.7345617  24.2996812  45.8116198  13.0313241
  23.9383006  45.6484270  13.9025331  24.8098612  46.6154480  13.1303668
  96.1774158   4.8912877  11.3446867  96.0536385   4.6936601  10.4163241
  96.2259769   4.0339875  11.7676640  19.4484389   6.1361462   5.9758002
  19.3824744   5.7541311   5.1006174  20.0421381   6.8792927   5.8686274
  29.7298932  45.4446125  34.2106771  28.9970756  44.8389816  34.3221402
  30.2773237  45.3029060  34.9829912 110.7702637  37.3731351  31.5387750
 110.2861500  36.5574265  31.4103508 111.3921738  37.3995781  30.8116198
  53.7508535  30.1443791  22.6953387  54.6399689  30.0438333  22.3553419
  53.1855726  29.9720502  21.9423509  12.0781207  32.7351356  20.3984928
  11.5558481  32.5048423  19.6300995  12.9747343  32.5026464  20.1571131
   1.9941875  22.1591377   5.6535089   1.1323474  22.5017548   5.4167038
   1.8256469  21.2593699   5.9332317   0.3675759  35.9253979   3.1861582
   0.2006610  35.0537372   2.8275767   0.8227827  35.7614803   4.0120816
   6.5608168  20.2076912  36.3275170   5.8981335  20.5160928  35.7094789
   6.6758287  19.2819118  36.1131811  73.2947016   8.7814367  43.2013130
  72.4454212   8.3404845  43.1786346  73.6648846   8.6331433  42.3311377
  49.1641808 100.5373192  62.1382046  48.5556889 101.2656116  62.0134926
  48.6984682  99.7746754  61.7951107  42.9826689  80.1533031  70.3011465
  42.2364712  79.5974731  70.5257940  43.6657858  79.8995256  70.9217787
 111.5655708  20.0878954   0.2004948 110.6656647  19.8802996  -0.0511234
 111.6853142  19.6510911   1.0437600  86.0703182   1.2462962  90.8420658
  85.2597809   1.7374773  90.9762192  85.8657360   0.6352663  90.1342392
 101.4663696  48.8774347   4.2708492 101.8498993  48.2735348   3.6348912
 101.7330170  48.5300684   5.1220071  95.8257198  52.2087526  38.3305669
  94.9872684  52.0632505  37.8923202  96.2496758  51.3505602  38.3275223
  27.1643472  98.2345295  87.1078396  27.9236150  98.1830215  86.5272522
  27.4880099  97.9241848  87.9535103  94.6159935  92.3533249  37.7913499
  94.0164280  91.6525459  38.0475974  94.8593426  92.1426487  36.8898916
   2.2242592  34.0877461  75.7143354   1.7781359  33.4764409  75.1282406
   3.1193945  34.1318440  75.3781509  58.4051418  48.3537483   8.8120288
  57.4985790  48.1172943   8.6158925  58.6621904  48.9329100   8.0945837
   2.7312794   8.8911277  13.3498776   2.5054893   7.9667920  13.2456970
   3.6839047   8.8959342  13.4432244  15.3581595  50.4529524  37.0158553
  14.7491133  49.7251892  37.1409750  16.0895371  50.2565527  37.6013017
 114.3414211  32.7624536  10.2154016 113.9556980  32.7459502   9.3395144
 113.5903168  32.7401257  10.8083391  92.2000885  36.7959476  60.4646969
  92.6751232  36.1647606  59.9241638  92.3332977  36.4908695  61.3621473
  89.9027634  15.1582932  18.6334300  89.4200420  14.4106495  18.9859140
  90.6507397  14.7685981  18.1807721 107.5590992  88.5324764  87.7580166
 108.4913254  88.6012745  87.9640579 107.1334362  89.1317272  88.3711529
  20.3351641  81.2518024  94.3522835  21.0822105  81.3344669  93.7595654
  19.5917046  81.5825081  93.8481712  10.1936781  27.5817466  30.0641274
   9.6364665  26.9650507  29.5893312  10.8488250  27.8557062  29.4222856
 112.7059937  49.8418140  75.7329369 112.1297359  49.8161077  74.9690676
 112.5254154  49.0242243  76.1968040  63.1095600  76.8655729  87.1832943
  62.8900003  76.3936234  87.9865932  62.9649782  76.2282276  86.4839268
 108.7813377   0.5351590   3.9743912 108.2369900  -0.1828456   4.2974687
 108.5707378   0.5948391   3.0425569 108.2779694  25.9169269  21.3299370
 107.9066849  25.0784016  21.6042638 108.6211109  25.7511401  20.4518700
  65.7864094  34.3413424  14.8279989  65.3502989  34.8495960  14.1440988
  65.3281307  33.5009837  14.8309290  43.8522339  80.5059338  88.2715130
  43.5343981  79.6238422  88.4642124  43.5048676  80.7008648  87.4011326
  83.8246346  16.4250886  28.7291956  84.5373821  16.7917717  28.2059669
  83.0542755  16.9324386  28.4735179 111.8891335  31.7746449  57.2240210
 111.6009998  32.0128036  58.1052017 112.8007317  32.0637798  57.1837854
  95.8870316  53.2020187  17.6620448  96.4721298  53.2075739  18.4195757
  95.0168419  53.0547094  18.0326021   5.7181478  56.5522814   2.7180529
   4.9555761  56.2951994   3.2363439   5.5397910  56.2084246   1.8427342
   2.1815754  16.2399733   7.3725724   1.9098052  15.9797275   8.2527113
   1.6903181  17.0426786   7.1977490  14.0781404  91.3624474  94.2783223
  14.2148591  90.7568475  95.0068769  13.1351949  91.5270110  94.2773767
  99.7839832  10.3431618   6.1219597 100.6411839  10.6756985   5.8557606
  99.7619152  10.4699075   7.0704746  82.4359989  62.4336672   7.9914767
  82.3092842  62.1008730   7.1029818  82.1758842  61.7076969   8.5585243
  24.6072626  85.6741333  92.5532341  24.3632936  86.0060024  91.6891861
  25.4988647  85.3447056  92.4402905  91.0391140  54.3235493   9.6824205
  90.9247017  53.9904833  10.5724812  91.8511868  53.9186716   9.3777251
  39.0788293  94.2422485  58.4232569  39.9511886  94.5112610  58.7110853
  38.5352850  94.3130112  59.2079735  99.9079227  46.3876009  14.8353672
  99.9633503  45.5313683  14.4110787 100.7988071  46.7349052  14.7912192
  91.7225170  13.4694755  50.0974131  91.3391590  13.4705579  50.9744930
  92.2001266  14.2972648  50.0437546  95.7541084  11.5157080  12.2450352
  96.6665745  11.7676449  12.1029985  95.4430199  11.2453687  11.3811088
  19.8890114  17.5106585  16.6658688  20.7364941  17.9182994  16.8442905
  19.2494917  18.1081402  17.0535052  90.0834084  48.3826542  16.9934690
  90.5379677  48.7242031  16.2234378  89.8579788  47.4824524  16.7588341
 110.3643036  30.2565312  34.7120714 109.9244881  30.5260277  33.9057422
 110.2125835  29.3128467  34.7637510   7.7013606  16.4627540  30.0691676
   7.8982627  17.3959482  29.9878573   6.8127877  16.3745248  29.7243690
 100.0812721  33.0797482  37.2384191 100.8239460  33.6833215  37.2190356
  99.3211842  33.6401796  37.3946500 104.2953777  38.8071227  33.5638857
 104.6316624  38.7286234  32.6711464 104.9192047  39.3837690  34.0049696
  17.7792239  13.3604729  42.8485870  17.9810739  14.2961478  42.8480196
  18.1325328  13.0387318  42.0191956  68.8852835  66.0387325  25.0434422
  68.9634323  66.9890308  24.9594712  69.7056484  65.6984711  24.6864390
 106.3192463  63.2929420  25.3832197 106.6777325  63.6279678  24.5613480
 105.3912449  63.5255241  25.3522038 107.7298260  22.1480346  59.9199486
 107.5603580  23.0351734  60.2369595 107.7011490  22.2249150  58.9662743
 106.1473751  19.0902972  49.6189117 105.2367687  19.3503249  49.7582960
 106.5639877  19.8673296  49.2462397  92.9567719  33.0995393  20.0796962
  93.5406876  32.3812270  19.8361564  92.9532909  33.0913520  21.0368538
  66.6252995  47.0046949  38.7907887  67.2928858  47.6712704  38.6288142
  66.2555647  46.8211937  37.9271579  15.5348325  23.3608937  13.5788238
  16.3860071  23.5288286  13.9832151  15.3733885  22.4309158  13.7379098
 110.5211258  25.0223851   9.1695726 110.8710003  24.8099518  10.0348425
 110.9479523  25.8462071   8.9342797  31.3802075  98.4557629  92.6126957
  31.4978051  97.5931454  92.2148228  32.0433116  98.4940338  93.3019352
  17.1814811  25.4714894  27.5125957  16.4415324  24.8919964  27.3312235
  16.9563913  25.8953118  28.3408093  73.9748001  51.0203743  16.2184274
  74.6154976  50.9735823  16.9280410  73.6131573  51.9044733  16.2801671
  70.4870033  63.5988235  26.3293028  70.6672668  64.1109896  25.5409980
  70.7526350  64.1686440  27.0510888  52.3326921  45.4406404  29.6187401
  52.7661467  45.9651995  28.9455509  52.8444433  44.6327400  29.6592760
   7.7429122  48.1981850  50.3547001   7.0953500  47.9239798  51.0040903
   7.2384042  48.6884356  49.7055817 106.9369411   7.1986377  50.0788784
 107.5360966   7.7244562  49.5490122 106.8668270   6.3681531  49.6081257
 108.0684471  56.8677616  45.3623819 108.5215282  57.3143959  44.6472120
 107.4075794  56.3287735  44.9276638 104.3163681  20.6554008  32.0706296
 103.7358475  21.4061427  32.1956038 103.8813972  20.1247883  31.4031839
   0.8655096  54.4829655  22.9156876   0.1502369  53.9094067  23.1907225
   1.5424535  53.8858032  22.5972915   6.0140979  49.2983627  35.3264403
   6.2737697  49.2401457  34.4069767   5.0981194  49.0206099  35.3346801
  87.0859146  41.1610603  31.4940906  87.4718571  41.8573475  32.0255613
  87.4088097  40.3512192  31.8892217  89.9919701  28.0514097  24.8861146
  89.2047215  28.5958982  24.8850775  90.3877163  28.2009125  24.0274739
  51.6320705  15.5408025  25.1184702  52.0723581  14.6932840  25.0545025
  51.5593672  15.8419025  24.2127752  79.9645376  55.1723242   2.7311948
  80.1600456  54.3773270   2.2352251  79.2106628  55.5552101   2.2825316
 103.8562489   9.4108480  37.0085406 104.7495079   9.3012738  36.6825032
 103.4567738  10.0385177  36.4063048  76.8736362  71.3446426  35.5035043
  77.1112823  72.2702360  35.5585980  75.9224892  71.3475561  35.3960681
 107.3568344  42.0119715  61.8311787 107.2065067  42.7037573  62.4754381
 107.2446442  42.4445248  60.9846878  76.6440248  37.8070140   4.9740428
  76.1894417  36.9724607   5.0885367  76.4602089  38.0576468   4.0687108
  49.3208075   1.8127353  64.2415237  48.9485502   2.3621556  63.5517454
  48.5631847   1.5125361  64.7436428 104.6409416  52.1153069  22.8602839
 104.0115070  51.5242338  23.2734060 105.0323200  52.5961351  23.5895753
  82.8133965  32.3735523  21.5523076  82.0306206  32.4886084  22.0910597
  82.5421619  31.7686272  20.8618546  90.6315231  38.1362844   8.7547618
  90.5701828  38.0830503   7.8010136  90.8881187  39.0420151   8.9280850
  92.0246696  71.9282579  72.9551220  92.5629807  71.3737440  73.5198975
  92.0617867  72.7933311  73.3631611  58.0957365  13.5599673  93.4928036
  57.8726816  12.8785443  94.1269493  58.1513643  14.3618608  94.0125179
  36.1507797  67.8645658  87.7110386  36.5495372  68.2912540  88.4694386
  35.2287602  67.7664804  87.9487133  77.8259373  43.0766439  19.1894519
  77.1973467  42.7254915  19.8201597  77.3008728  43.2783604  18.4149528
  92.5955009  26.2265110   2.0205900  91.7825985  26.4163637   1.5522048
  93.0630302  27.0616007   2.0371388  97.5135899  69.5318031  26.3023210
  97.9241276  70.3437328  26.0048866  96.9969749  69.2360592  25.5527377
  94.8157215  48.4558249  15.5366087  94.8055744  48.7086916  16.4597476
  94.3057060  49.1357803  15.0964022 105.2445316   1.0186582   4.3382627
 105.4042149   0.3260032   3.6972004 105.3904057   0.5987179   5.1859653
  12.9505432  54.3321562  76.7414236  12.4283803  53.8637543  76.0901356
  13.6360669  54.7649717  76.2325478 108.0917549  49.9560022   0.8409190
 108.2202244  49.3789911   1.5937695 107.1900177  49.7922039   0.5647363
 109.4596577  50.4160738  30.3660202 109.9317169  51.2043190  30.0975895
 108.5972786  50.7330847  30.6344414  77.5151587   3.1182992  50.5826330
  76.8075991   3.7401733  50.4127455  78.3101082   3.5824338  50.3202152
 101.4754295  35.7886672  32.0249534 101.1255455  35.1082373  31.4497781
 102.3565578  35.4863882  32.2451377 113.3521271  36.9277143  38.0252647
 112.4770451  37.1695757  37.7220082 113.8568974  36.7991948  37.2221947
  93.9519119  18.3594441  16.3545179  93.0096626  18.2668018  16.2137246
  94.2298508  17.5051546  16.6849303 115.8155155  35.9112906   8.0896693
 116.2071609  35.8501625   8.9609379 115.2007771  35.1785779   8.0514574
 115.3845692  40.8387852  21.2665057 115.6700039  39.9456286  21.0740829
 114.9918556  41.1460018  20.4494214 102.9136467  41.3161945  20.6943083
 102.5292683  42.0101118  21.2299919 103.2863998  41.7739582  19.9408233
  94.8888588  29.4084883   5.2688271  95.8158112  29.4605589   5.0358391
  94.5023346  28.8539720   4.5910829  82.9335022  59.6323681  24.1641831
  83.5458660  59.2213440  24.7743511  82.0984650  59.6405554  24.6320152
  94.4667721  74.3715096  18.0652237  95.0644779  75.1189232  18.0463660
  93.8408184  74.5476198  17.3628008   2.7608377  29.3183088  36.7539549
   2.5321507  28.4735155  36.3663220   3.7018868  29.2593026  36.9188070
  92.8616524  42.9243374  10.5254662  92.3646069  43.4189463  11.1770260
  93.7114620  42.7708721  10.9383905  82.7045727  43.1133890  53.0151844
  83.2409954  43.6205626  53.6244965  83.2763767  42.4014473  52.7281141
  92.2637177  48.5374069  10.5050039  92.3917866  47.5916386  10.5782151
  91.5403843  48.7280941  11.1022079  87.7287865  37.5574684  31.4998794
  87.1485233  37.9733086  30.8622289  87.2245216  36.8159699  31.8347383
 112.3966599  31.6177464  43.7557030 112.3814678  31.9969058  42.8769302
 112.7335167  32.3190284  44.3133450  14.3396914  39.4177914  23.7602091
  13.5432041  39.8980665  23.5339856  14.0876079  38.8738775  24.5064282
  28.1289721 106.0309315  82.6636505  28.9487672 106.3396263  83.0494976
  28.3840942 105.2791786  82.1288490 110.8758545  41.0018492  19.5415151
 110.8028889  41.3728142  18.6621451 111.2028313  41.7230129  20.0793219
   0.4034723  77.0603466  10.6529856   0.0249163  77.7399397  11.2107325
  -0.2989785  76.4188480  10.5468082  27.1945858  88.3151531  74.8926640
  27.0846272  87.4014950  74.6292543  27.2466183  88.7976742  74.0676260
  13.0981576  59.6064901  25.8058691  14.0104961  59.8726273  25.9200668
  12.5911570  60.3866911  26.0305190   9.3446529  96.3790894  85.8922672
   8.8090652  95.8252335  86.4602661  10.1967525  95.9437180  85.8675861
 115.0489521  85.7867241   5.2554375 114.9850941  85.9042740   4.3076310
 115.3182030  86.6439247   5.5854952  86.3217545  25.8313489  58.9909697
  86.4302921  26.0444260  59.9178171  85.4701042  26.2011957  58.7583208
  97.2950363  71.9112539   8.4078395  98.1376266  71.9534016   8.8600492
  96.9235134  72.7873087   8.5114592   0.5271573  34.9674821  15.2308881
   1.0974066  35.7137775  15.0462556   0.8699256  34.5999122  16.0455263
 103.1383038  73.1456280  12.9119110 103.2968712  72.3333788  13.3928883
 104.0118122  73.5001802  12.7460420  14.5487463  74.8041534  91.8828869
  14.7744608  74.6444988  90.9664822  14.8339379  74.0135908  92.3410416
  40.0676394   5.3057748  91.9674778  39.7558546   4.4025329  92.0238304
  40.5125141   5.3532374  91.1212730  83.9256001  42.0759583  90.8230495
  83.2383728  41.6249800  90.3325748  83.5971355  42.9686642  90.9298992
   4.0420422  38.8419867  48.1722212   4.0030491  38.4930587  47.2817326
   4.8337585  39.3798256  48.1842613  29.9051642  45.3026628  46.9381189
  29.8079062  44.8369217  47.7686930  30.8483744  45.3073072  46.7751408
 101.2413788  52.1748638  24.8963761 101.7166328  51.7799664  25.6274128
 100.9544277  53.0253983  25.2287650  21.8107438  62.9974747  43.3234072
  20.9463406  63.0555725  42.9163837  21.6691661  62.4748516  44.1127443
  53.3634996  15.8219302  90.8039093  53.4800386  16.2711132  89.9667168
  53.8207150  16.3744640  91.4378548 107.1577072  23.0422115  13.7418580
 107.4267387  22.3927522  13.0921996 107.1224213  23.8663387  13.2562625
 111.3027287  83.1332493   6.8011236 111.2443924  82.6726532   7.6381856
 110.3968811  83.1948853   6.4980167  94.2146969   8.6902839  35.7576132
  93.3118629   8.6134028  36.0661721  94.5042419   7.7860016  35.6364989
   7.0316833  33.7259197  32.6462483   6.9609123  34.6703839  32.5076342
   6.5270960  33.5623097  33.4430265 105.9768581  50.9338236   6.3477612
 106.2699795  51.5172386   7.0477194 105.6251621  50.1696444   6.8044508
  92.7272701  59.1155100  18.1830478  93.2192230  59.8906279  18.4540069
  91.8473816  59.4432306  17.9969609 100.9871960  36.1798906  10.4646242
 101.4108086  37.0174789  10.2769220 101.0461044  36.0895276  11.4157271
  16.1504316  37.3120713  45.2042007  16.5352380  38.1361747  45.5025530
  16.8243957  36.6555095  45.3800631  87.5628185  22.9255366   2.6259840
  88.2619858  22.2717857   2.6267204  88.0086994  23.7528825   2.4445599
  61.5561962 107.9981613  75.5763197  62.1661711 108.0458832  74.8401880
  61.7513847 107.1598721  75.9951496  39.7224998  30.7026267  27.7830458
  40.6615734  30.7413435  27.6017261  39.3153071  30.6194162  26.9207811
  64.9139071  78.3437204  85.9343719  64.4231892  77.9586887  86.6604424
  64.3341541  78.2521677  85.1782417  79.4328022  26.3102841   6.6781950
  80.2491379  26.0504937   7.1052063  78.8655806  26.5908456   7.3963708
  10.3132927  19.0392089  39.5901275  10.2055395  19.1664803  38.6475658
  10.1066840  18.1154406  39.7322464  62.3647881  28.0764580  75.8163738
  62.8965044  28.8651729  75.9233379  62.0730877  28.1060052  74.9051857
  29.8547530 101.1404896  89.5443916  30.2464247 101.9445515  89.2033482
  28.9994097 101.0909843  89.1175747 111.4383793  15.0645733  75.9550190
 111.7083263  15.1375949  75.0395823 110.7616806  14.3875921  75.9519100
   9.9614888  37.1488261  11.6246855   9.4604707  37.7199912  12.2069085
  10.2975333  36.4589572  12.1968615  14.2091739  42.9784679  36.0440826
  14.7989011  43.3826447  35.4076123  14.7862387  42.6680231  36.7418313
  60.7801104   0.9959296  90.1811123  60.4121447   0.2669067  89.6817493
  61.7094469   0.9983714  89.9518490  73.1791735  49.5281887   2.0886903
  73.3019829  49.9850368   1.2565602  72.4338293  48.9475060   1.9353992
  19.8180199  60.2144861  27.1991348  20.2011800  60.2247095  26.3220286
  19.8462331  59.2945528  27.4621177  59.8072004  93.6142349  94.7465897
  59.7052526  94.3353081  94.1253948  60.0572920  92.8653908  94.2053699
  94.9438000  62.8033924  43.9510250  94.7510624  63.4625053  44.6178484
  95.3924370  63.2878590  43.2580233   8.0782592   1.7652509   4.7090247
   8.9200532   1.4678332   4.3638328   7.4416345   1.1434769   4.3564096
  94.7446823  61.7831278  56.2305021  94.9314499  60.8852625  55.9562969
  94.2053413  61.6865730  57.0153713  33.1531858 107.5805473  68.6829758
  32.8127575 108.2797050  69.2410994  33.4222960 106.8953037  69.2947435
 100.9472466  79.9739361  84.9427986 101.7411995  80.4033566  84.6242619
 100.6891060  79.3889475  84.2304897   9.8256749  84.0708733  12.5392294
   9.4326234  84.9225140  12.3483384  10.7376373  84.2700481  12.7510870
 105.3729343  44.9134541  10.3643680 106.1472797  45.4098749  10.6292975
 105.6734371  44.3727016   9.6339476   0.9187495  44.2692232  68.2382870
   0.7392329  45.1797628  68.0039263   0.0992888  43.9540052  68.6195374
  82.7398968  59.2739487  41.6257524  82.9100800  58.5138083  42.1820402
  82.0249844  59.7359228  42.0636082  53.0493927  19.8022580  89.1105270
  53.7810898  19.1858089  89.0815544  53.3466244  20.5512452  88.5939026
  93.3866215  27.6318049  31.7649817  92.4511528  27.4316669  31.7978549
  93.8100147  26.8601203  32.1411109 108.6507511  67.4441862  39.7857618
 109.0948963  67.0903015  40.5563021 109.3511200  67.5827646  39.1481781
  26.9343209 107.9404640  89.6822929  26.8898010 108.2871342  88.7911892
  26.5122914 107.0831013  89.6271133  98.7395668  28.3192778  16.2111807
  98.2776356  27.4985838  16.3823831  98.1804180  28.9937758  16.5967131
  16.2137580  64.6965361   7.4830544  15.8049130  65.4438925   7.0465487
  16.5359724  65.0502539   8.3120865  78.4642935  68.5938835  10.8290780
  78.0784607  69.0169382  11.5961432  79.1883421  68.0755663  11.1802590
 104.3544197  40.9906197  17.5999725 103.7550449  40.3902721  17.1566141
 104.7598267  40.4608202  18.2864034  94.5805454  20.1492238  14.4133413
  94.2586613  19.4675779  15.0032401  94.9414253  20.8184099  14.9948800
  96.1106777  32.7421308  11.0095763  96.0117245  33.6900020  10.9202564
  97.0476723  32.6118326  11.1555350   3.2114056  45.8260202  34.0404582
   3.9945576  45.8740282  34.5887280   2.6731876  45.1488876  34.4503856
  96.5841579  41.1151505  18.0747461  96.1697960  41.3799953  18.8959610
  97.4738312  41.4636087  18.1320965  11.8084705  90.1392174  76.6331434
  11.3728714  90.0464344  75.7858658  11.2073302  90.6712055  77.1545315
 108.6602497  35.1619411  20.0783420 108.2930756  34.3992972  20.5253148
 108.3975220  35.9063339  20.6197143  38.5452580  80.4410076  90.3362274
  37.8208470  79.8622274  90.0985718  38.8423991  80.8072281  89.5032692
  89.0568924  41.1174774  40.7053280  89.0726662  41.5286970  41.5695524
  89.6925449  41.6155767  40.1914454 109.3308544  88.4197617   0.1539707
 109.3741798  87.8989983   0.9559460 108.4108353  88.3810139  -0.1073531
 113.4816170  66.9360781  38.9962721 114.0136719  67.5539446  38.4948754
 113.9516258  66.1050034  38.9281273  11.6368473  44.8534441  42.7700233
  12.2632694  44.3626261  42.2381163  10.8050799  44.3972492  42.6424313
  32.5711846  74.2029810   2.5464353  31.8639898  73.6062527   2.7914262
  33.3428192  73.6416531   2.4708045  20.8599210 107.7396679  78.2802248
  21.3567567 108.4729195  78.6431742  20.3810573 108.1167889  77.5421906
 111.6820717  19.7681773  21.9630694 111.5424347  19.5505726  22.8846884
 111.5153313  18.9496017  21.4957738  38.6788750 108.4128284  92.9290771
  38.0625463 109.0899372  93.2081795  38.2619166 107.5897217  93.1837845
  67.9189873  61.9066334  22.7432537  68.6265326  61.5441847  23.2763982
  68.2584286  62.7463627  22.4336386 103.2886696  49.6701002  41.4524412
 103.9220333  50.2783155  41.8334293 103.6158848  48.8028383  41.6912127
  85.3055859  77.7561808  15.4000449  85.8504963  78.0218935  14.6593010
  85.8294964  77.9706812  16.1718881   9.6344900  45.9424591  24.4419765
  10.0042582  46.3110924  23.6397243   9.5696074  46.6870499  25.0399804
  19.2156041  61.1948442  23.0121112  19.0753675  61.7458725  22.2420883
  19.6002662  61.7838097  23.6612535   6.1847824  79.4791174  23.2562709
   6.6816127  80.2590370  23.0090404   5.4341030  79.4751072  22.6623869
  71.4422083  46.2084627  27.2379518  72.2801971  46.0201025  26.8154287
  71.1830425  45.3778315  27.6368475  28.8368082 108.6395836  58.7137651
  28.5859394 109.5602131  58.7894344  28.8036990 108.3077908  59.6110106
  14.8165071  49.4134998  19.3801200  14.2907238  49.3941975  18.5804880
  15.7002437  49.1859293  19.0912354  66.7894650  94.0879822  92.3793697
  66.0672951  94.6162701  92.7193928  67.2923565  93.8417816  93.1557178
  57.2096252   4.3377551  81.1323357  57.4372816   3.4110323  81.2070942
  57.9000902   4.7935927  81.6136932   5.2565283  83.9285088  33.1209993
   4.3019906  83.9094639  33.0522513   5.4275060  84.3416119  33.9673758
  70.3111887  11.9639575  21.6899657  69.8552608  12.7779591  21.9038844
  69.6765709  11.2750375  21.8871450  80.1635265   3.1181225  88.1329155
  80.4053974   3.4011158  89.0147591  80.0087643   2.1772951  88.2173061
  73.0685425  16.5592539  93.7802315  73.5496616  16.9941247  94.4842529
  72.1565247  16.8136513  93.9207077 108.7530994  48.0785799  14.7435713
 109.3505287  48.3013439  15.4574931 107.8984070  48.3912992  15.0401008
   2.3864800  80.4160118   5.0160289   2.8961724  80.9378719   4.3962625
   1.4745380  80.5967522   4.7881526  11.3678825 101.2921047   3.2654774
  11.7479324 100.4667759   2.9644462  12.0056319 101.6352654   3.8913745
 115.1058769  41.3981724  88.9831829 114.3753147  40.8219862  88.7584305
 114.8071957  42.2724342  88.7328148  80.9573174   1.4741157  27.6968789
  80.3957844   2.1279188  28.1133556  81.3526154   0.9978445  28.4270430
  16.6530216  60.1199341  87.6488590  15.7537639  59.8043776  87.7382374
  16.8934417  59.9059820  86.7473793 108.7906742  55.1962376  74.9751568
 108.4590530  56.0333681  75.2999163 109.5036507  55.4346752  74.3826628
 109.6206188  69.5292521  27.9125714 110.4988575  69.2910862  27.6155782
 109.2852497  68.7354851  28.3293366  20.4253483  84.7982693  86.1451912
  19.7790325  85.4970360  86.0440731  19.9038935  84.0091228  86.2920380
  78.3495140  10.0991166  27.3217702  78.4212351  10.9345603  27.7834201
  77.4320316  10.0519717  27.0530105 108.7782192  28.4030199  73.7808800
 108.0571365  28.4880280  73.1571388 109.5595646  28.3213329  73.2340240
 110.6742382  38.1185865  84.5637035 110.3074360  37.8890347  85.4175186
 110.4098129  37.4005961  83.9885521 112.7116299  58.6772680  90.1537228
 112.1537590  59.3837690  89.8283386 112.1904850  57.8840399  90.0294781
 113.3440113   2.9871884   5.9386611 113.9568996   2.2763008   6.1263949
 112.9932594   2.7786341   5.0728023  60.4898214   4.6764028  13.1199634
  59.7613955   4.1413283  12.8048062  60.1618767   5.5747873  13.0801225
  62.9214764 101.0061264  28.5418200  62.6520538 100.3586960  27.8903031
  62.3830557 100.8121777  29.3090987  89.9253273   2.8047004   6.8393040
  89.0459061   2.7091381   7.2049707  89.7825432   3.1583655   5.9613717
  38.9967227  88.9438152  27.5493717  38.5100865  89.3767929  28.2507586
  39.7020197  89.5543861  27.3349333  27.8051209 106.5100670  38.3373380
  27.8960824 106.9773388  37.5069070  28.6994576 106.4379501  38.6707950
  22.5175667  91.7252922  18.3257174  22.1153021  92.2822285  18.9922297
  22.3152280  90.8325672  18.6055899  54.2616272  33.5456824   2.9395184
  54.3376350  33.0686069   2.1131682  54.1248608  34.4564176   2.6785842
   0.5656090  67.2890854  72.7933407  -0.1401740  67.7635193  72.3540068
   1.2018549  67.1109915  72.1007299  69.6117973  13.8706684  62.3635054
  69.4380093  13.7087893  61.4362383  69.2900181  14.7591805  62.5159454
   3.2502669  48.3099842  35.6510735   3.1548941  47.4347544  35.2754235
   2.3628023  48.6686420  35.6510472 107.4343586  24.6885777  16.4333522
 106.6789818  24.1105771  16.3258791 108.1859779  24.0967941  16.4664483
  95.0995827  89.5863438  59.6049118  94.4731998  89.8285007  60.2869940
  95.3163433  88.6730003  59.7921133  97.2941303  38.0869889  79.9170971
  98.0250168  38.0918431  79.2990208  97.2898579  38.9685988  80.2898979
  25.4078913 102.3185349  24.8601842  24.5935369 101.8178177  24.9085712
  25.3030515 102.8721333  24.0863848  12.3184919  44.6013260  79.8514080
  11.8864501  44.9432278  79.0686703  11.9177890  45.0822496  80.5755520
  78.2240391   7.2144824  18.1132209  77.7650118   7.3549628  17.2850966
  77.9611444   6.3356620  18.3867061 109.4737911  75.5224180  49.7712612
 109.8817348  76.3841963  49.8558283 109.5649147  75.3042698  48.8437176
 108.4293747  74.7102261  80.0839806 108.1453991  73.9225388  80.5478096
 107.7828503  75.3746605  80.3222370 113.3834648  27.4477291  79.0980101
 113.7144756  28.1606483  78.5517359 113.2086754  27.8567505  79.9455833
  73.4325504   4.6836787   0.0450071  73.7472820   4.6224350   0.9469075
  72.8993893   3.8980511  -0.0764835 109.9719620  30.6990552  20.8435011
 109.4368744  31.2485814  20.2708435 110.1591301  29.9193525  20.3207517
  99.0601921   9.6768278  15.4659891  99.9492931   9.3634564  15.6318986
  99.1099834  10.6227279  15.6039178   0.7126968  87.7510834  77.2690201
   0.4531612  86.9385910  77.7034426   0.8288699  88.3779144  77.9830360
  27.5479007  61.5467930  86.7250729  27.3676538  60.7015800  86.3135338
  28.4921575  61.5403509  86.8818188  33.9764190  77.3668909  69.4926023
  34.3715072  77.5921583  68.6503506  34.7188711  77.2850370  70.0911808
 104.3122578  85.4184914  69.5206499 103.5848045  84.8984623  69.1791677
 104.0168095  85.7051945  70.3847933 110.5908012  87.0443630  84.2011356
 110.0515747  87.4758339  84.8639202 110.4857445  87.5846767  83.4180260
   6.9953865  62.9460859  90.4848862   7.1115220  62.0228291  90.2605247
   6.7364311  62.9378986  91.4063644 104.2966175  72.8624010  88.6748123
 103.9370441  73.7065744  88.9474201 104.1763592  72.2939539  89.4355011
 115.0879574  19.0488684  19.0500641 114.5838928  18.3325851  18.6639476
 114.6399021  19.8422909  18.7568760  38.7014842  93.9918804  14.9784720
  37.9587889  94.3746567  15.4454994  39.3946290  93.9353561  15.6361866
  79.2150784  10.8727443   2.6155567  78.2756901  10.8511615   2.4330238
  79.5468998  11.5924561   2.0787677 111.5337181  63.5117912  78.8475418
 111.4547157  64.3653250  78.4215450 110.6586075  63.1295252  78.7821102
  32.8537226  97.9428673   5.1123673  33.7272072  97.7239704   4.7878027
  32.3430753  98.1229115   4.3230283 115.1450920  81.1165333  68.4314299
 115.4848385  80.2579117  68.1793118 114.4508553  80.9237957  69.0616035
  31.4890242  48.2918739  92.3666763  32.0377970  47.8563833  91.7144299
  30.7098889  47.7396107  92.4313736  52.5731993 107.4303436  13.3383286
  53.2971668 107.0107269  13.8031161  51.9946671 106.7079544  13.0940235
   9.3736506   8.1060266  62.6411819   9.8036522   7.2742599  62.8399181
   9.4283563   8.6047137  63.4563828  68.5501432  18.5323870  13.8654542
  68.7936640  18.1254339  13.0339980  69.3484640  18.9702964  14.1606712
  96.8075848  60.3164196  94.1627693  97.2391605  59.8811293  94.8979568
  96.4673424  59.6001863  93.6265945  98.0560017  45.7104731  67.6512957
  97.9489136  45.8211851  66.7065668  97.1625805  45.7071924  67.9948473
   4.6843013  77.9756975  77.3850346   3.8439846  77.9488993  76.9274521
   5.2925140  78.3492374  76.7472410  18.9140189  60.0845385  94.0800190
  18.3502126  60.2171850  94.8421001  19.8017645  60.2154970  94.4131660
 105.7413006  57.4785900   0.8216207 105.7114220  56.5521097   1.0603221
 106.6613388  57.6431513   0.6150400  69.8631525   8.4118807  13.4657657
  70.7857418   8.3284360  13.2247329  69.5000124   7.5367147  13.3299422
  85.3737736   5.1063406  53.3415985  86.2264156   5.1067507  53.7766075
  85.5596924   5.4004854  52.4498892  34.7802019  84.3063736  18.3687067
  34.9910259  83.8101673  19.1596365  34.7586370  85.2188492  18.6570525
  47.6431417  92.6489353   8.8959461  48.0930233  92.1692467   8.2004303
  47.6555443  92.0527935   9.6447426  18.3497560  22.4629378   9.5948178
  18.1833577  23.2345247  10.1362932  19.3005931  22.3550773   9.6173143
   8.6351568  51.1940718  82.5929165   7.7589011  51.1074734  82.2175407
   8.8090521  52.1352625  82.5806046   8.2709265  85.1901627  64.2648458
   9.1904336  85.4342365  64.1591835   8.2951802  84.3797684  64.7736788
 108.2675743  31.6984248  74.2281008 107.6646996  31.7892432  73.4901857
 107.7539825  31.2560558  74.9039459 111.4692116  66.2589169  78.3756208
 111.6160202  66.1143303  77.4408627 110.6114197  66.6812849  78.4208250
  42.2154999  82.5734425   2.9008061  41.5018606  83.1966019   3.0372563
  42.8993273  83.0836678   2.4668910  95.8675098  87.5002766  89.6193123
  95.7399082  88.3080292  90.1167870  96.8057251  87.3230171  89.6869278
 114.6267891  62.1898985  63.4209538 114.8403835  61.2689447  63.2710743
 114.2166615  62.4765158  62.6049423  99.8960400  22.4282384  13.6142278
  99.1717529  22.1315312  14.1652298  99.9553776  21.7700791  12.9217422
  35.0411391 107.0104504  14.4094622  34.3994355 106.4209175  14.8055661
  34.5175242 107.6192188  13.8884509  19.8245871  74.5542622  74.2213058
  20.3772831  75.0975037  74.7831297  19.0130937  74.4451141  74.7170830
 105.0711060  37.7293468   5.5689287 104.6345329  38.3685708   5.0058734
 104.5664692  36.9242263   5.4533350  96.8821049   2.0556168   9.5659620
  96.2050819   2.7322370   9.5590931  97.5522995   2.3812772   8.9651066
  50.8353472  98.4487438   1.6133066  49.9279499  98.5745716   1.8908550
  50.9838533  99.1343021   0.9620085  75.7786608  39.6175981  23.1763601
  75.3501749  40.4553652  23.0009270  75.1430321  39.1281915  23.6985540
   4.7091058  72.3271513  75.7655478   3.7995359  72.5667238  75.5880165
   4.6709642  71.8316031  76.5836000  10.0044787  46.0758495  78.7139893
  10.3309989  46.3649321  79.5660734   9.4753772  45.3026390  78.9100075
  95.9786510   8.0445385  88.7430096  96.9148254   8.1583589  88.5791111
  95.6785965   7.4764824  88.0334282  23.1545377  84.8863602   4.3421930
  22.7766657  85.1575851   5.1787823  22.3983169  84.7416306   3.7735003
 103.1064701  58.9201021  90.6971550 104.0075397  59.1173601  90.9528637
 103.1932259  58.2991409  89.9738884  36.9281030 107.8618431   8.4658068
  36.6857648 107.4769402   9.3080360  36.0964775 108.1375885   8.0803275
  96.0060978  45.6288338  81.2801170  96.7220497  45.4572153  80.6684113
  95.2426624  45.2149582  80.8774853  88.3903503  49.8663425  27.3640680
  89.2130184  49.8793221  26.8749070  88.3169460  50.7466793  27.7326512
  17.5273776  59.4134235  72.4610472  17.8106320  59.5824099  71.5624714
  18.3013690  59.0508413  72.8919792 114.4034863  79.9527740  64.1517973
 113.7273979  79.2782068  64.2158794 114.0790558  80.5541134  63.4814501
 115.3451729  95.0040245  74.9514914 115.3877354  94.7061062  75.8601522
 115.6805992  94.2665863  74.4416904 103.9184856  80.1195335  48.4452915
 103.0508232  80.4990005  48.3060551 103.7954330  79.4969320  49.1618538
 111.5461159  70.3179884  34.2166185 111.6323090  70.7971334  33.3924675
 110.9655762  69.5859480  34.0084910   8.9147872  68.2813835  85.2387524
   9.0266222  67.3620701  85.4808044   8.2834089  68.2645845  84.5195103
  93.8121319  38.6576486  44.1709852  93.5529613  37.8974867  43.6502028
  93.8947201  39.3674183  43.5340881 109.6630764  17.7006221  20.8243680
 110.5182457  17.3119676  21.0084367 109.1094208  17.4167836  21.5517807
  11.4637661 102.2574139   9.1297692  11.1273897 101.4034748   8.8579613
  11.7408562 102.6761341   8.3148313  11.2511718  87.1483803  80.3774738
  11.7470968  86.5956116  80.9814072  10.5169761  86.6007328  80.0994968
  11.1513209  72.8996944  82.1163845  11.0363269  73.2551479  81.2350941
  10.3683400  72.3694754  82.2648335  23.7111211  59.1660166  65.3006792
  23.2651114  58.4654045  65.7765484  24.6426868  58.9794779  65.4173803
  51.5404749 102.1010113   8.3210474  51.7130518 101.1768532   8.1411016
  50.8276939 102.3319626   7.7253681  72.7017450  23.7633348  93.1578350
  72.5181150  23.1300235  92.4639797  71.8701792  24.2174816  93.2938004
  96.5670204  77.0647764  88.4479046  95.8494949  77.2795773  87.8518772
  96.2301445  77.2832632  89.3168259  52.6272631   9.5021361  46.6626787
  52.8664351  10.3541207  46.2977839  52.4177170   9.6842128  47.5787401
  22.0843673  63.2309294  88.4959412  22.1085024  63.5566664  87.5961971
  21.4952826  63.8316298  88.9524174  21.6252995  64.1431761  60.3236961
  22.3601341  63.5349512  60.2442265  21.8984318  64.7615576  61.0013676
  90.3856087  27.0330620   9.0773875  91.3280964  27.1940470   9.0322876
  90.2805710  26.1354923   8.7618494 103.6640358   7.6821601  12.2413874
 103.3598518   7.1977955  13.0089092 102.9693317   7.5649786  11.5934014
 109.5551109  37.6130509  23.9593172 108.9163303  38.2946515  24.1681576
 109.9092293  37.8694677  23.1077981  98.0492687  20.0188828   7.9447418
  98.9584255  20.0624251   7.6484877  97.6301193  20.7805562   7.5442439
  15.0195634  44.2610359  79.4230366  14.2008710  44.6316862  79.7525787
  15.0379276  44.5056725  78.4978104  13.8087702  72.7261400  70.9654665
  14.0273118  72.4403048  70.0784683  14.6028459  72.5594521  71.4732981
 114.7993565  82.3566437  87.8005981 114.3713760  81.8271160  88.4734058
 115.7340717  82.2745419  87.9898167  29.1613150  73.5149479  75.1733160
  29.2794085  73.5113049  74.2234325  28.3743572  74.0411663  75.3148174
 100.6936359  84.9154854  83.1916237 100.5040073  84.3353748  83.9290142
 101.6355801  84.8219776  83.0493832 106.6895294  47.1780682  92.8135967
 106.2908745  46.3097239  92.7562714 107.2974491  47.1143627  93.5502148
  89.4367981  93.2977962  80.0416946  90.3296947  93.4196472  79.7190094
  89.0405560  92.6834869  79.4237518  99.6914482  39.2435527  34.3662405
  99.6547794  40.1989794  34.4114757 100.6202793  39.0345478  34.4654036
 109.8292637  82.4350071  80.7316971 110.5561829  82.4002171  81.3534832
 109.2389297  81.7364216  81.0140514  88.2364178 105.9571648  63.5159731
  87.3918152 105.7369614  63.9088964  88.0150032 106.3091946  62.6538372
  69.8777676   2.5692376  11.3046670  69.9436045   1.6143444  11.3134086
  70.2659512   2.8284419  10.4689896  10.7027197  63.9051676  88.2956123
  11.1785078  64.7345066  88.3409214   9.9010378  64.0613794  88.7947559
 102.8510761  73.3042192  91.5865898 102.1120644  73.7776947  91.9685650
 102.5632000  72.3917055  91.5605259  20.8087826  99.5657158  61.3623428
  20.8992600 100.4089546  60.9185076  21.5505767  99.0488052  61.0480452
  99.7541046  95.0550365  69.4185114  99.9677944  95.4591560  70.2594948
  99.9053001  94.1200256  69.5567846  32.7472782 103.8274097  77.7942371
  32.1969151 103.1875229  77.3427057  33.1921625 104.2996597  77.0904684
   2.0697765  14.9465895   4.8032045   2.2899191  15.2087688   5.6970894
   2.8650820  15.1206791   4.2998022  97.7753925  39.5191407  23.1975150
  98.1322765  39.0427232  22.4479222  97.1665573  38.9031100  23.6050296
  99.8601246   1.3352120   4.1552314  99.5489597   0.9811405   4.9883220
  99.2246151   1.0242628   3.5105109  66.9869041  27.8205109  44.6875668
  66.6649771  28.5023427  45.2772284  66.2056732  27.5129628  44.2278671
  16.6354907  63.2471085  89.3732262  17.4045599  62.9960775  88.8616180
  16.4248776  62.4675703  89.8872375  96.2117481  75.7104445  72.5533962
  95.6096745  76.1546993  73.1503630  97.0777225  75.8561182  72.9343271
  86.5166569  30.5669928   2.2153208  86.3229465  30.9157515   1.3452205
  85.7668877  30.8276749   2.7502209  81.4177227   2.4097379   1.8104677
  81.2858295   3.2790536   1.4321475  81.7602158   1.8835354   1.0879399
  92.3138523  61.8458176  70.7953835  92.1966743  62.3387671  71.6074800
  92.7066612  62.4734735  70.1887655   8.2842475  66.8711281  63.1446648
   7.4218160  66.6477633  62.7945900   8.8353497  66.1213493  62.9202700
  34.0597367  15.2467477  79.2612982  34.8871040  15.7003999  79.1003752
  33.6411691  15.1998544  78.4017420  41.0294104  58.2169437  85.0049877
  40.2500153  58.7496233  85.1631927  41.5373564  58.2897711  85.8130169
  14.3527150  29.7129107  73.6078548  14.3101907  29.5494747  74.5500374
  13.8529968  28.9958310  73.2175827  85.6827450  14.4174778  23.1533718
  86.3170052  15.0849223  23.4150124  86.1459923  13.8882840  22.5040793
  68.8801670  33.5082126  13.4335899  68.9585209  33.2559323  14.3536162
  69.6642447  33.1483150  13.0189407   6.0202301  89.3636417  69.1956234
   5.5331051  88.7797451  68.6142445   6.7175722  88.8157845  69.5559025
  31.6061091  98.9154053  14.7080576  32.5219393  98.7119198  14.8980010
  31.3303280  98.2313538  14.0979385  86.4241505  45.0017214   7.0793533
  87.2385311  44.7636652   7.5224495  86.6559315  45.0298595   6.1510658
  75.6466913  23.0157018   6.2080914  76.2323809  23.7619138   6.0801697
  75.6279755  22.5773239   5.3573823  14.8535407  87.5062370  86.4389896
  14.4116199  88.1999207  86.9286346  15.5012691  87.1565056  87.0508480
  33.0491185 109.2197418   0.7380637  32.1842456 109.6094036   0.6100579
  32.8965330 108.4898949   1.3382921   7.1684241  22.1358991  28.6835289
   7.3738980  22.4113965  29.5769000   7.9005492  21.5728402  28.4321547
  92.2919559  59.3690634  85.7587242  92.4164200  58.6339188  85.1584625
  91.4917278  59.1541386  86.2379551  66.1315680   1.8941753  71.1751366
  66.8057823   2.4341090  70.7626534  65.3940344   1.9249924  70.5657721
  57.6959610  89.0028858  12.1839178  56.8334723  88.7338543  11.8677354
  57.5506878  89.8663902  12.5705576  45.9595919  67.2105074  86.7354298
  46.4092875  67.6143312  85.9931755  45.2937937  67.8498602  86.9887638
  93.6989594  13.3334029  13.8743174  92.9535103  13.8015628  13.4983373
  94.0321827  12.7967358  13.1551647  73.7646151  22.4083042  48.6147738
  73.5081291  23.2704043  48.2873154  74.6852207  22.3222160  48.3671761
  65.6824017 107.8941059   8.8963622  65.9694767 107.1651649   9.4463223
  65.4002190 108.5658455   9.5171475  92.3469448  58.4472513   0.4268022
  92.3475075  57.4931240   0.5034573  92.2487640  58.7597370   1.3262156
   1.4676672  63.3900547  44.0663767   1.1512959  64.2293024  44.4007444
   0.7097474  63.0071974  43.6245489 107.2331333  13.3129537   4.0144092
 107.8708267  13.9666724   3.7276536 106.6552258  13.7879515   4.6115980
  25.5523014  84.2358589  85.9251881  25.3068662  84.1335487  85.0056648
  26.2952757  83.6437798  86.0420799  34.0646982  84.8859501  66.2248087
  33.2328224  84.6242046  65.8302116  34.5169902  84.0606785  66.3997173
  84.6401119  11.6161525  22.7848434  85.3134537  11.6724634  23.4628367
  84.9562645  12.1878386  22.0852327  36.3547611  62.3228025  91.4591503
  36.7921352  62.7065992  92.2191715  35.6166196  62.9074097  91.2870693
  82.0116520   8.1843382  12.1311891  82.6283836   7.7839661  12.7440238
  82.3189545   7.9085243  11.2676358   1.6901004  60.0771332  90.0367737
   1.0387949  59.4673443  89.6900845   1.1803748  60.7097721  90.5429077
   7.2112811  60.3673553  78.2831907   6.7471051  61.2036324  78.2455540
   8.1068456  60.6012726  78.5270739  93.9014339  59.1957664   5.2509505
  93.5698128  60.0421143   5.5508757  94.4262886  58.8712263   5.9826851
  58.2796860  14.9273455   5.2563977  57.8188753  15.6459427   4.8233834
  57.7636194  14.1495740   5.0443161  90.2980328  14.2060566   8.0578458
  89.5047951  13.7585187   8.3523220  90.3195286  15.0157988   8.5678327
  66.0913038  28.4748602   3.3748582  65.2694082  28.7668085   3.7691820
  66.1022234  28.8870716   2.5110322  74.3166828  14.0296972  32.3764658
  73.8241196  14.2017734  33.1789637  74.0095901  14.6942544  31.7597914
  43.3662224  99.2284107  11.7637658  43.5065651  99.0216637  10.8397591
  44.1244173  98.8525963  12.2111320  90.6720066  69.0729141  75.7671833
  90.1847363  68.9865828  76.5865421  91.1136246  69.9190950  75.8391619
  45.7986212   9.6243984  78.3186865  45.0604868   9.8292571  78.8926363
  46.5075922   9.3861824  78.9160538   5.5152029  95.1902103  75.7919407
   4.9986571  94.4088840  75.5945730   5.2701652  95.8174706  75.1116943
  72.4570799  40.9998941  25.5139995  72.9855537  41.3194942  26.2453032
  72.5252104  40.0466394  25.5678678 114.9530411  37.4273300  76.7323828
 115.6126976  37.7673721  77.3369074 115.4466629  37.1923900  75.9466505
  76.5721035   2.6816246   2.0069699  76.6298866   1.9883174   1.3495368
  76.4827204   2.2162299   2.8386247  90.8211803  30.9733987  14.9005175
  91.0252762  31.3826847  14.0596497  89.8839951  31.1268497  15.0203741
  67.6624250  31.7730021   6.2205660  67.6899004  31.7012286   7.1746761
  66.8373346  32.2225261   6.0378563  95.8406258  16.6696525  27.6571512
  96.0213757  15.7814646  27.9648638  95.2423191  16.5504789  26.9195485
  41.7351198  97.2042942   5.5850053  40.9737349  96.8825722   5.1022822
  42.2406340  96.4170456   5.7872969  73.0535316  36.5612340  30.4290938
  73.8241482  36.6809082  30.9841204  72.6534271  35.7515216  30.7461357
  18.7151933  51.6131496  77.1993923  18.9679825  50.9012508  77.7872133
  17.7663004  51.6840744  77.3033381 110.6772518  29.0226150  89.6250725
 111.2459183  28.8134766  88.8840485 109.9460983  28.4098721  89.5462990
  66.9292784  91.1938190  45.5754089  67.7451658  90.9938145  45.1165485
  66.9880772  92.1287441  45.7720757   0.8426909  27.1642256  15.4828334
   1.6878816  26.7186189  15.5404484   0.7050412  27.5305796  16.3563704
  38.0237603   7.2364652  78.3208370  37.8167439   6.3331687  78.5604858
  38.0684304   7.7016598  79.1561985  57.2998095  97.1961308   8.1973648
  56.6966534  96.4532852   8.2221478  58.1703234  96.7981339   8.2029933
  29.0059114  59.1626978  92.1098518  29.7555470  59.7006035  92.3646641
  29.2674708  58.2683086  92.3286915 101.9517326  75.8067656  77.1163702
 102.7837753  75.4906702  76.7641878 101.4895058  75.0135469  77.3872519
  39.5139933  67.8802443  88.5851192  38.5894489  67.7342558  88.3847809
  39.5283699  68.0731344  89.5225716  68.3682728  97.6341629   2.3026687
  68.2028484  97.5384903   1.3647386  67.8882837  98.4241581   2.5511727
  95.4860306  21.9794536  21.8313169  95.6025791  22.9217911  21.9523454
  94.8011589  21.9062448  21.1666155  20.7005763  38.9869237  84.4484520
  19.9348211  39.3337584  83.9906788  21.0330248  38.2989526  83.8718987
  34.8961711  38.4802556  69.5361757  34.3488264  39.1880465  69.8762894
  34.5640349  37.6925611  69.9668217 115.5252743  43.4322262  71.7305803
 115.2453041  43.4841299  70.8167124 116.0041332  42.6053953  71.7877865
  39.6642232  63.1893969  91.7561817  39.4497585  62.8120899  92.6093388
  40.5617952  63.5073376  91.8536949  24.8268437 105.6776428  56.5307474
  25.3048158 105.2408981  55.8257484  25.3242707 106.4783287  56.6971588
 108.9739132  62.1745968  78.9083433 109.0783691  61.7350578  79.7522211
 108.1103230  61.8996668  78.6003590   5.5392796  39.7933817  93.7628937
   6.0612804  39.2318153  94.3359470   5.6342560  39.4032407  92.8939819
  96.7319679  59.2987347  22.4744701  96.0798740  59.6928740  21.8951058
  96.7921257  59.9035645  23.2139254  43.5329008  68.5266256  69.6149874
  43.0439043  67.8630495  69.1283894  42.8649712  69.0020132  70.1090670
 101.6356182   3.4173444   2.8128237 101.2507915   2.6730707   3.2756341
 102.5706387   3.3651173   3.0109423   4.4305214  74.5149803  81.5391827
   4.2259037  75.0870514  82.2788429   4.7553864  75.1072550  80.8610153
  87.8106403  11.7504442  18.3351147  88.3757687  12.0348012  19.0534496
  87.5223732  12.5637519  17.9207969 103.9798164  30.6003833  13.4856319
 104.3317986  31.3449478  12.9978180 104.7344589  30.0290084  13.6280179
  91.0142612  30.3752089  19.4411206  91.6583061  30.8912086  18.9561725
  91.1216259  29.4841552  19.1083598  75.3747749  16.8693197  14.7499776
  75.0291157  15.9904444  14.9059665  76.1807299  16.7251885  14.2541003
  99.8979092  74.9257755  80.6175995 100.4922199  75.6721640  80.5405712
 100.0465870  74.4179106  79.8199797  80.5690765  47.8539181  90.1067734
  81.4286995  48.2715511  90.1603031  80.1941586  48.1814337  89.2892170
  24.0233660  53.3386040  85.4123878  24.5760131  53.7798595  86.0574436
  23.6790323  54.0464640  84.8677731   7.1513951  59.4020605  63.0700874
   6.7986560  58.5444021  62.8329563   6.4031541  59.9953651  63.0040646
  24.7591496  99.1547585  86.3676262  25.4111457  98.6742306  86.8777561
  23.9207911  98.9107037  86.7598343  92.8822422  47.1760273   3.6085540
  93.4610081  47.6017380   2.9760659  92.4872017  47.8988695   4.0960684
  98.8788605  56.9094849  87.4011898  98.4622288  56.6891003  86.5680790
  99.7675991  57.1727419  87.1622849 107.5920010   7.5981385  16.9032037
 106.9736481   8.1785399  16.4593506 107.0678902   6.8381631  17.1561265
  22.2527766  56.7145920  78.3614254  21.3175750  56.9021177  78.4418249
  22.6294947  57.5213718  78.0101061 102.8453827  80.5085278  57.0775843
 103.4704208  81.1962223  57.3070145 102.0092106  80.8193588  57.4246120
 100.5123615  43.7905884  26.2804556 100.4378986  43.9040756  25.3329277
 100.6608868  44.6744347  26.6165972   8.1021512  81.3966465  85.2920818
   8.6072409  81.4252472  84.4794941   8.6526412  80.9017944  85.8989716
  22.7847600  67.7055311  62.1436644  22.6940727  68.4181976  61.5111160
  22.0416045  67.1296692  61.9638491  80.9450626  30.8407521  14.7841561
  81.7639637  30.5476189  15.1837969  80.3770638  30.0707102  14.8095453
 100.0026321  36.3798165  15.7025206 100.4300690  36.2319946  16.5461290
  99.1148949  36.0421371  15.8213854  18.8262117  74.7231817  59.7773647
  18.3865952  74.0835714  60.3376055  19.7536612  74.4930696  59.8331928
  15.5852544  56.8920898  91.8450928  16.3404727  57.3475218  92.2171974
  15.9315491  56.4458275  91.0723305  43.4069014  99.9960804  94.2718220
  44.1235495  99.4817638  93.9001751  43.1367302  99.5047855  95.0476265
   6.9781238  37.0093179   0.4173404   6.0690403  37.3061204   0.4586787
   7.4747062  37.6958585   0.8626488  99.8585987  20.0857115   1.2240424
 100.0545025  20.9475994   1.5914682 100.6957150  19.7773385   0.8771034
  52.5380325  76.2458229  70.7325554  52.0099926  75.8270741  71.4123011
  51.9496918  76.3146830  69.9806643  29.3838382 108.3327961  74.5402336
  29.3698406 108.2087994  75.4892635  28.8023567 109.0776157  74.3874025
  98.5092926   2.9447609  14.9172223  98.4449387   2.1071656  14.4583929
  98.8113308   2.7140290  15.7957256 100.4474640  60.6586409   4.3233529
 100.3579044  59.7376776   4.5683783  99.5472240  60.9749985   4.2477253
  87.5831795  39.5615768  19.0722239  86.7248440  39.6941662  18.6698532
  87.9568672  38.8177109  18.5997248 111.6636848  66.9431496  27.2168899
 110.9292030  66.3686609  27.4330497 111.7578125  66.8646860  26.2675667
  18.7912738  81.9831276  87.8059864  19.6485817  81.8241692  87.4110317
  18.2129061  81.3453388  87.3877144   2.4300654  33.8290191  23.8266683
   2.8962573  33.0517101  23.5189533   2.3931994  34.4043446  23.0625510
  39.8437500  39.8550272  19.2250919  40.2479792  39.0595675  18.8785768
  40.0670624  40.5340481  18.5884619 109.9410248  98.6674213  91.5980339
 109.8748970  97.9944611  92.2755051 109.5584393  98.2622242  90.8197784
  76.4918900   6.9606721  88.5756111  77.4468994   7.0249671  88.5831547
  76.1930084   7.8541631  88.4065628  28.7203336  99.5302486  44.8464203
  28.6603832  98.5801601  44.9463177  29.4572735  99.6623421  44.2500162
  21.7256737  92.7559471  88.8290215  21.8020201  93.5120773  88.2470608
  21.9655824  92.0077515  88.2823181  85.9235573  18.2168591  18.5470653
  86.1338329  19.1362834  18.7103951  86.7680454  17.8080451  18.3574951
  25.0497437  96.9282627  90.5918789  24.5781755  96.8067932  91.4159584
  24.7220063  97.7595425  90.2486610  15.4359162  72.4856043  93.4135342
  16.0274649  72.9653168  93.9933395  16.0041416  72.1375704  92.7263451
  94.5651913  45.8597803  16.4525056  94.6265793  46.7751741  16.1795425
  94.6462440  45.8881712  17.4058449  91.4416027  78.0158663  41.8479156
  91.3371849  77.4454021  42.6094246  91.0724163  77.5146675  41.1207724
   5.0707638  28.2004952  11.3232493   5.7410562  27.8799939  10.7197440
   5.2601743  29.1339970  11.4177513  89.7136211  47.5065422  22.1967220
  90.6387234  47.7251720  22.3090363  89.6948910  46.5498447  22.1720290
 102.9675579 103.5351372  66.1259699 103.5334015 103.1224060  66.7784262
 102.1425724 103.0533409  66.1852884  76.9128990   2.8573990  89.6635914
  76.8448257   3.6130685  90.2471733  77.3723793   2.1959332  90.1808643
  54.1879845  77.5681067  75.4411840  53.5944176  77.3896551  76.1706161
  54.1058397  76.8023872  74.8727131  22.0702529  71.4295959  91.4183044
  22.6581264  72.0503521  90.9878445  21.8801808  71.8289375  92.2671986
  98.0480480   3.3028799  63.4839869  97.3356247   2.7315280  63.1971979
  97.9616261   4.0852714  62.9393482   2.7758440  50.3389311  11.8890548
   3.0301347  49.6328497  12.4832094   2.6020873  51.0845327  12.4636149
  21.1556482  98.5063744  93.2483673  20.6245375  99.0500450  93.8302422
  21.6239643  99.1327858  92.6965332 104.6398926  98.8060379  83.4065342
 105.5891037  98.7891388  83.2842636 104.3479633  97.9356575  83.1355000
  63.4997892   1.8374351   1.4390405  62.7876091   1.5515515   0.8669414
  64.0945959   1.0882767   1.4736894   8.4282053  58.6376429  73.9728880
   8.2792693  58.8047266  74.9035501   8.9770764  59.3665075  73.6835289
  80.5967426  15.3881752  17.0677722  80.9992504  16.2263322  16.8403792
  81.1431599  15.0439072  17.7742684  51.7114878   5.0792468  77.9993916
  52.5512028   5.3797823  78.3469391  51.7562008   4.1248301  78.0570221
  61.0829782  22.8233504  15.2815747  60.5009747  22.3142910  15.8458102
  60.4942799  23.3703876  14.7615588  98.9000130  64.5208406   2.7170816
  99.5915985  64.4834185   3.3777902  99.0386295  65.3570461   2.2723562
  52.3184347  74.7547436  62.5683355  51.5266514  74.9329615  63.0758286
  52.7886438  74.0972996  63.0810785  90.0742722  41.9412947   7.0210773
  89.5940971  41.8111515   6.2033206  90.4932022  42.7959251   6.9194257
  19.8719943  90.8925056  61.4991665  19.8467112  90.0826073  60.9895897
  19.8887181  91.5884304  60.8421803 105.4383755   6.1651224  25.5929995
 105.7518291   5.8550781  24.7433829 104.7445869   5.5502087  25.8312726
  30.9348679  92.4104118  63.1246901  31.5184808  91.6517258  63.1292915
  30.7769060  92.5966930  64.0502071  59.7478199   7.7148402  76.7521858
  60.0825644   8.5759383  76.5018129  60.4204893   7.3552555  77.3304987
  12.5009143  86.8008518  94.2405128  12.2465384  86.3459587  93.4376431
  13.3848739  86.4837265  94.4256687 101.0659122  41.3051844   0.3224655
 100.9200764  40.4328060   0.6884144 100.9592628  41.8979073   1.0664649
  50.5027580  27.8908730  11.7439210  49.7671270  28.1704879  12.2888041
  50.4687500  26.9345808  11.7679965  34.8697591  64.9536371  93.6263275
  34.6173143  65.7608271  94.0746021  34.3591762  64.2694807  94.0593052
  37.5396419   2.6628929  82.1055126  38.1797743   2.8587699  82.7896881
  36.9389582   2.0378494  82.5113869  83.1147671  16.3028479  32.6590705
  82.4552345  16.9940126  32.5995803  82.9827690  15.9198344  33.5263109
  79.8432064  30.9483075  22.0113134  79.8256254  30.2637744  21.3424802
  79.1885471  30.6729960  22.6530743  44.6282387  94.4042587  75.3511238
  45.3548145  94.6727085  75.9134817  43.9936209  94.0118504  75.9507084
 107.1538639  35.3118300  15.0205064 107.4525261  34.4114399  14.8927295
 106.3258076  35.3595853  14.5427132  74.7452354  95.4065514  11.9181299
  74.7176600  95.1473331  12.8391516  73.8266325  95.4401684  11.6511691
 111.1919212  56.5382624  28.1393981 110.6248665  57.3016357  28.2486486
 111.8986416  56.6725397  28.7708592  41.7675781  86.7028713  76.3841820
  42.1066046  87.5959396  76.3232946  42.5440550  86.1469460  76.3188982
  88.3607292  10.5425382  10.6281018  88.1653023  11.3749361  10.1978040
  88.7093544   9.9881047   9.9300361  32.7651787  22.0551181  87.6714897
  31.8407154  22.2267461  87.4921989  32.7584386  21.4902020  88.4441853
  34.1032839  42.7137852  25.5501318  33.2793403  42.6854753  26.0364938
  34.3548918  41.7955208  25.4515600 112.2564888   2.4567288  21.4791083
 111.4543915   1.9685037  21.2933326 112.0770836   3.3417979  21.1617780
  90.0433064  54.7294903   6.8092388  90.4456425  54.3572617   7.5939721
  90.2655697  55.6598616   6.8444425  63.0880165 102.5149250  88.9133549
  63.3230686 103.4193230  89.1208267  63.3076191 102.0228672  89.7044849
  98.8636780  34.4831538   0.4545598  98.5403633  33.9280772   1.1641999
  99.5441055  33.9592695   0.0317131  46.8465185  57.5463915  89.7951317
  47.3649359  56.7873478  90.0622082  46.3129234  57.2278309  89.0671062
   5.3994381   0.4072594   0.9185717   6.2419927   0.3971014   1.3726979
   5.4676247  -0.2948130   0.2715193  13.8520741  65.9773636  90.0961304
  14.2039359  66.7244482  90.5801678  14.5821798  65.6774807  89.5546055
  25.6332207  43.6286259   5.9504300  25.7256961  44.2051077   6.7089462
  24.9613595  42.9979420   6.2094206  91.9030380  97.3853779  78.6653328
  91.5132904  98.1344700  79.1160917  92.5384235  97.7723503  78.0630255
  74.4207335  65.8634520   6.5796322  73.7147331  65.2243567   6.6763330
  74.0237379  66.6983080   6.8279105 101.2114429  64.1059971   4.3011156
 101.4082718  63.4879923   3.5971561 102.0336723  64.1886044   4.7841707
  15.0448906  93.1312084  84.2301083  14.2021263  93.2489395  83.7917995
  15.3949559  94.0177345  84.3181992  15.7717013  81.4913940  53.3988333
  16.7161858  81.4357948  53.5440588  15.3934145  80.9087372  54.0573502
   2.3323676  37.9459381  40.1054573   2.0485866  37.0481420  40.2776861
   2.3265472  38.0200720  39.1511512 113.2987404   8.4071410  27.2812223
 113.5904694   7.6242054  27.7482748 112.4298859   8.1790221  26.9506478
  90.9235477  57.4081039   6.4718521  90.5091858  57.9281902   5.7833427
  90.8490181  57.9488468   7.2581571  13.8905740  65.5377769  70.1035452
  14.6687162  66.0427046  70.3397131  13.9772546  64.7205734  70.5943632
  39.5802593  82.3742390  92.0363140  39.2997980  83.1052303  91.4856625
  39.2180419  81.5987778  91.6077232  82.1642303  23.7449765  78.8487434
  81.8909550  23.0050421  79.3910027  83.0197906  23.4872651  78.5054731
  20.5018663  66.2273455  92.5678921  21.1457133  65.8333635  91.9792747
  20.2927923  67.0699406  92.1647167 106.7461967 108.1158543  90.3885460
 107.1538162 107.5305939  89.7501469 105.8056831 107.9965591  90.2565002
  16.6407156  89.1244888  79.9321461  16.3182497  89.6707439  79.2153120
  16.9524884  88.3271217  79.5040941  42.4846077  99.8724556  76.5973997
  42.0894766  99.5484447  75.7880068  41.8341351  99.6836758  77.2737694
 106.0672760  70.4549646   5.6457251 105.9972095  70.8468723   4.7752458
 105.8702850  69.5284605   5.5078256  96.2465286  70.8683586  35.7110238
  96.5006828  71.7788744  35.5606890  95.2900410  70.8776426  35.6752086
  50.4684830  97.1503353  73.6311007  51.3243866  97.3802567  73.9927578
  49.9666739  96.8373585  74.3837404 110.1893616  46.3424778   6.3184929
 111.0745335  46.4712906   5.9777594 109.7420979  45.8382797   5.6388056
  78.5441160  11.1127818  87.9532909  79.2743301  11.2761509  87.3563576
  78.6533165  11.7616129  88.6485100  11.4009655  65.2265978  50.2990532
  11.9877636  65.9828377  50.2981663  10.6151021  65.5337524  50.7510519
  30.7937741 106.3066578  83.2358360  31.1476612 106.6397762  84.0604687
  30.7734799 107.0697212  82.6582909   5.9201777  18.5908759  21.1094022
   5.4973841  17.9680932  20.5181146   5.8183199  19.4387245  20.6769562
   3.2601148  10.0291967   5.9656823   2.8225151  10.8130372   6.2978441
   4.0169033   9.9155593   6.5406513  18.3081210  49.9992657  29.2448759
  18.3582008  50.3732777  28.3651972  17.3936546  50.1153231  29.5027781
 100.2581406  75.8777714  51.6662359  99.8098278  75.0969315  51.3413668
 100.1244640  76.5330505  50.9814215  16.5508056  80.1942635  11.6467988
  16.7727745  79.2732286  11.5101933  17.3777044  80.6606197  11.5243900
 109.4873810  50.9861517   9.4241053 110.4205322  51.0827160   9.6142060
 109.4539833  50.3621197   8.6990535  90.7064056  35.2019668  33.0743194
  89.8455048  34.8511696  32.8462410  91.2917328  34.8576450  32.3997307
  38.4751868  97.2326088  94.4958782  38.9196301  97.8727722  93.9400959
  38.5405684  96.4091778  94.0122318 106.1200428  57.2209024   4.8181957
 105.6126022  57.8576612   4.3149292 105.4636765  56.7229176   5.3054672
  91.9183540  14.4256353  32.0814085  91.4635372  14.7623587  32.8534150
  92.2088909  13.5502625  32.3374152  89.6741772  15.8215702  93.1241035
  89.4166565  14.9060702  93.0155945  89.5862007  16.2004030  92.2494698
  43.3648443  90.8972168  91.8962479  44.0498209  91.1682606  91.2850380
  43.5843849  89.9917889  92.1158600  97.8024673  62.8313065  75.4209089
  98.0653667  61.9575691  75.1316023  96.8807411  62.8988600  75.1717520
   4.4635662  16.2977707   4.1580722   5.3492796  16.2200689   3.8035217
   4.1792947  17.1752512   3.9022443 115.0000000  57.0273399  67.4190378
 114.6814537  57.7859020  67.9082680 115.8941078  56.8968487  67.7349234
   3.6897048 101.8673992  93.7272930   3.7806734 102.7586651  93.3902454
   2.8071338 101.6023254  93.4683800   9.1284800 106.8489647  73.5688162
   8.1992507 107.0786476  73.5656500   9.5081431 107.3771095  72.8665733
  19.4886863  39.0560246   6.7150193  19.2204893  39.3267155   7.5931013
  20.4295754  38.8970017   6.7903304  99.1283894  17.2280765  13.4206641
  98.4825039  17.8475690  13.0811119  99.9736691  17.6345253  13.2295275
  26.1414933 101.2028027  32.4635911  26.3697338 100.7660198  31.6430044
  25.8810019 100.4917049  33.0490184 111.3183975  72.5339413  62.6703835
 110.9839249  71.6374063  62.6946878 111.7071152  72.6210451  61.8000174
  10.9885216  82.5387383  79.5413589  10.6462359  81.6806316  79.7918129
  11.4014161  82.8735447  80.3373814 109.2790699 105.2899551  66.5610695
 109.3376350 104.5884991  67.2097301 108.4869194 105.7713699  66.7997503
  19.4949937  84.3445206  72.2147274  19.2770326  85.2408409  71.9591427
  19.0204263  83.7953854  71.5906525   7.2929269  75.2462959   0.3360006
   7.6008040  75.0024796   1.2089238   6.9360769  74.4357443  -0.0271742
  17.6471865   0.5077081  78.8984060  17.4011886  -0.4169989  78.8732195
  17.2857904   0.8737646  78.0911732  86.6054726  20.9687662  71.1760378
  85.7649803  21.4266396  71.1879492  87.2359657  21.6326880  70.8969021
  15.0444818  13.6009717  22.1513510  14.1520369  13.5341382  21.8117833
  15.5613744  13.0332196  21.5797663  22.3500347  75.6218386  71.1868048
  21.8185163  74.8482323  70.9990644  23.0652642  75.2944231  71.7322206
  73.5978079  97.1603775   2.3784125  72.7267218  97.4600697   2.6384687
  73.4821081  96.8331814   1.4863448  39.8337102  75.0623417  75.9438467
  40.0195169  75.3144407  75.0393295  40.4625130  75.5610800  76.4654827
  83.2145977  36.7639589   5.4669029  83.2633972  37.5988746   5.0013173
  83.0537415  37.0071769   6.3786066  22.3032117 105.7004356  90.4776001
  22.5075936 105.4480648  89.5771694  23.1542325 105.8919430  90.8717060
 111.2549210   3.1062669  90.2173233 111.9073391   3.7917274  90.3612995
 111.1704540   3.0521452  89.2653942 113.8358688  34.4560099   4.9126217
 114.0693474  35.3670931   4.7347164 114.4673347  33.9439034   4.4074157
   5.1754946  53.3722353  82.9630089   4.2985439  53.4572506  83.3371258
   5.2209944  54.0613794  82.3002529  98.6425686  11.4818013  78.9030504
  98.0682659  11.7014766  78.1694603  98.0496120  11.3687801  79.6459246
  79.3998671  19.6726859   6.9730443  78.9874268  19.0691066   7.5909585
  80.2958298  19.3480754   6.8829685 109.6992779  36.1418223  29.0615058
 108.9332104  36.6647840  29.2979074 109.4465542  35.6995773  28.2510829
  15.8649457  42.9198265  81.5303612  15.7351005  43.6295414  82.1593952
  15.5282319  43.2672310  80.7044315   2.8910041  98.3022785  52.9094315
   3.1228790  97.3746395  52.9535866   2.4709788  98.4037781  52.0553160
  89.1568279  11.7069054   3.4642553  89.7395229  11.0664439   3.0561972
  88.8065434  12.2131646   2.7312955  42.2763491  76.9840574  75.1350260
  42.2677994  77.8837109  75.4618025  43.0315256  76.9496727  74.5478630
 112.1133709  71.3559008  14.9425542 111.2696171  71.6486835  14.5981753
 111.9122791  71.0213995  15.8165717  86.6355419  16.1768687  11.2196422
  85.9364510  16.2448740  10.5693483  86.2037659  15.8292699  12.0000136
  22.4763870  69.8146152  83.5651875  22.8750467  70.6676102  83.7375164
  21.6150260  69.8646784  83.9796543  75.3218603   6.8321401  79.1466379
  74.8880529   6.1851299  79.7028971  75.7286501   7.4424821  79.7616482
  80.9656811  44.0985823  23.0002809  81.6917992  44.7222757  23.0010176
  80.1803112  44.6453142  23.0227804   7.2083455 107.4099827  70.5359411
   6.9312221 107.2122955  71.4305687   7.2754282 108.3645153  70.5113840
  25.9472346  66.6629314  94.1772079  26.4934731  66.3155508  93.4720993
  25.1452351  66.9491482  93.7400436 114.0449524  59.1457796   0.3105327
 113.4500313  59.4541121   0.9940730 114.9154854  59.2118263   0.7030150
 116.0864162 106.1597919  83.7460232 115.2246475 106.1544228  83.3294201
 116.3454723 107.0812607  83.7485886  80.8142471  11.6265893  86.4870262
  81.0564899  12.3769045  85.9442711  81.5866470  11.4631522  87.0282364
   0.3030422  59.8190260  66.1773396  -0.0174937  60.6612015  66.5001822
  -0.2850463  59.6000481  65.4545450 112.1512604  44.9346542  11.3929355
 111.8490982  45.5840969  12.0278788 111.7483997  45.2019024  10.5667913
  46.0831547 102.4314022  92.5452805  46.2361288 103.2196140  93.0663872
  45.3745031 102.6725006  91.9486904  30.7254839  80.4369736  63.2358313
  29.7819066  80.3655910  63.0916119  31.0183525  81.0806561  62.5907564
  51.9026995  70.7362556  65.4631948  50.9505224  70.8029461  65.3914785
  52.0711040  70.7160568  66.4052486  16.9984150  48.7611341   0.6822918
  17.1114075  47.8908062   1.0643805  17.1918535  48.6414766  -0.2474906
  87.1216011  17.4636519  81.1250687  87.1125603  17.8386962  80.2444458
  87.4459743  16.5715182  81.0021305   3.6378786  49.9939203  18.3752406
   3.6219263  49.7375059  19.2973185   4.1064590  49.2834711  17.9371488
  29.0784669  84.2092514  80.1371479  28.3477736  83.8479042  79.6354008
  28.7944603  84.1513062  81.0494041   6.0752833  27.5063920  20.6359267
   6.9924259  27.4908566  20.3623581   5.6891066  26.7339087  20.2231693
  25.9903121  36.2729454  12.9562163  25.2457166  35.7048988  12.7583992
  25.6007099  37.0430994  13.3701074   9.4668359 102.0321083  77.2892857
   8.8575363 102.3538113  77.9537344   9.9329025 102.8139496  76.9930887
   1.6684017  43.0478621   6.7966843   1.0267317  42.3400307   6.8555862
   1.2814847  43.7643719   7.2998106  25.1941776  26.9487214  13.4158015
  24.9284291  27.7673292  12.9968870  25.7108641  27.2239399  14.1731119
 108.0235100  61.4408588   5.3616804 108.9479446  61.6693449   5.2644914
 108.0164814  60.4847050   5.4058665  84.9717808  59.8592472   6.3926077
  84.1050053  60.2535391   6.4898950  85.0433350  59.6657276   5.4579085
  17.9114187  17.9085326   2.9840231  18.3551800  18.7030590   2.6873147
  17.8154278  18.0265117   3.9290622   4.7623885  58.3391094   7.9645711
   3.8255048  58.4647751   8.1151968   4.8719433  57.3894262   7.9162812
  89.0956020  31.1340570  10.1116323  89.2895603  30.7055807  10.9453094
  89.1591358  32.0698214  10.3027940  28.1209517  72.3411560  67.2262907
  27.9176307  71.4454889  66.9567108  28.0585241  72.3238516  68.1813002
  98.0000782  61.8693256  64.8777628  98.9414787  61.9498491  64.7243881
  97.9306889  61.5408611  65.7741594 104.9152279  59.3853998   2.7653924
 104.9739170  60.2728939   2.4116382 105.2336025  58.8241959   2.0583454
   2.0152010  25.3829598  45.8372688   1.3346118  25.0068307  45.2790976
   2.8294277  25.2312756  45.3574181 111.2901115  97.2989941  57.8475523
 112.0506287  97.7761555  57.5156450 111.6498470  96.7007542  58.5024881
 112.6605892  37.3040652   8.2564443 113.1080818  37.8124261   8.9328665
 112.4545670  36.4707923   8.6800522  64.0208340  91.2725258  94.2821026
  64.1273165  91.8845272  93.5538578  64.9151897  91.0530567  94.5432472
  19.3785715  84.5707607  50.7704878  19.3677247  84.2642975  51.6772366
  18.5027206  84.3713856  50.4397821  84.1459179  45.8424234  11.6369236
  84.6692753  45.3983974  10.9697127  83.3513832  46.1133623  11.1769927
  75.8577251  78.9263153   7.8012383  76.5808296  79.5330906   7.9599226
  76.1666822  78.3665991   7.0888501  66.9131851  13.0518234  93.6666203
  67.6092339  12.5091016  94.0370274  66.4947271  12.4915040  93.0130482
   4.8699352  66.5572405  77.1845961   4.1685379  67.2065973  77.2356653
   4.8087746  66.0733461  78.0082130  49.5673609  42.1182871   2.9825741
  50.3946114  41.9879293   3.4461492  48.9158392  41.6751432   3.5260576
 110.8651638  38.3865571   5.8504272 111.7209435  38.4410262   6.2757629
 110.3568554  37.7988482   6.4093989  40.0850725  91.8446827  82.4697113
  39.8812485  90.9133053  82.5547600  40.0517082  92.1799564  83.3656502
  14.3424726  29.2808723  31.9792652  13.5730314  28.7115002  31.9766593
  14.1385627  29.9561286  32.6263213  58.8104391 104.1608238  93.5287571
  59.2760086 103.4739971  94.0059662  58.0698967 103.7104321  93.1225777
  55.0311899  11.6128600  84.5318604  55.3049564  10.6967139  84.5761204
  55.4209185  12.0170236  85.3070927  22.7229190  69.5279121  88.1288719
  22.9575777  69.4462252  89.0532589  22.0632625  68.8487005  87.9882908
 101.7138004  78.4436274  16.7806017 101.7061615  79.3955183  16.6802168
 101.5314198  78.1087255  15.9026444  11.0698950 100.9540462  66.1534786
  11.7554474 101.1354065  66.7964125  11.5257037 100.9508133  65.3117800
  16.4723289  91.0528469  55.7095242  15.6918705  91.3317108  56.1884356
  16.2056422  91.0630131  54.7902822 111.9321728  23.6998057   5.4541034
 110.9932995  23.5922766   5.3018016 112.2132397  22.8607750   5.8191532
  47.1189547  80.4780579  90.5185413  46.2915134  80.5377960  90.9960461
  47.6690722  81.1585331  90.9065533  49.0195131  99.2711639  71.0237980
  49.3353271  99.5538807  71.8820286  48.6285543  98.4121609  71.1835003
 102.1618938  57.4131155  22.1405172 101.5132904  57.9921818  22.5407958
 101.9041252  56.5348577  22.4206138  86.5003300  48.0190563   4.5491880
  86.8203545  48.1750250   5.4377192  85.5468655  48.0413675   4.6306628
  27.1352839  73.0873871  82.7049255  27.0451570  73.8476419  83.2794857
  26.9612932  72.3363829  83.2723331 109.2166996  64.3720722  10.6020737
 108.9547157  64.7744989   9.7740352 108.7375832  64.8634338  11.2693369
  84.8236656  43.7659121   9.4483149  85.3884220  43.8968468   8.6866456
  83.9345741  43.7930536   9.0947455  31.3542366  77.0133591  94.4151402
  31.4577699  77.3746681  95.2954578  31.2646985  77.7808809  93.8502216
  83.0045986  86.8968678  16.2655187  83.3816910  86.1803246  15.7550335
  82.8788948  87.6025867  15.6311786  47.5923920 104.8814964  93.4017944
  48.2823992 105.5242538  93.2375526  47.4947119 104.8729897  94.3539619
   4.1009313  49.7758532   6.9106472   4.2028561  50.3841686   7.6426274
   4.4637752  48.9506960   7.2326660  73.5128164  98.1832218   7.7314925
  74.1922665  98.6207962   8.2444358  73.2355976  98.8393402   7.0920455
 106.8989372  10.5208039  88.0695915 105.9468079  10.4724240  87.9839611
 107.1976948   9.6217507  87.9329300  90.2259350  42.3308420  22.5925398
  90.0002766  41.6008759  23.1691337  89.6967411  42.1885824  21.8077159
  18.6968458  44.4503927  14.7308278  19.3481255  44.7954893  15.3415442
  18.7069297  45.0652122  13.9972591 101.8651581  78.3980274  22.3300934
 102.6297665  78.7542439  21.8776464 101.7189693  77.5460529  21.9189930
 104.8316383   3.4186226  94.7794628 104.8135567   4.0947473  94.1021442
 103.9389896   3.0735341  94.7972965  32.8337169  21.0971546  25.9850526
  32.7676487  21.5457678  25.1420736  33.3496308  21.6896391  26.5318894
  58.8941669   1.8115057  73.0796576  57.9682016   1.5797177  73.1510067
  58.8918161   2.7016172  72.7276230  76.6154909  27.7822399   6.0943669
  76.4212894  27.1525455   6.7886317  76.8524408  28.5850883   6.5586066
 109.9163246  73.6416531  16.7655885 110.2137566  72.7789974  17.0547056
 109.0821075  73.7710047  17.2167826  27.3439980  48.1932545  15.5357015
  26.5464830  48.3238411  15.0227225  27.8574109  48.9872265  15.3865457
  71.4713001  90.8992958  81.0083294  71.0695887  90.0313473  80.9691525
  70.8459473  91.4728642  80.5654144  16.4087081 106.5755653  91.0375023
  16.6422951 106.3231945  91.9307995  15.7181668 107.2294617  91.1461639
  35.6975174  62.4601936  14.3460202  35.2742481  63.1044960  13.7786162
  36.0886812  61.8292236  13.7417865 109.6629524  94.2106915  53.2419443
 109.3327713  93.4346962  53.6947632 110.2154446  94.6487999  53.8892889
  48.4889793  92.5375557  73.4181643  49.1699839  92.1485424  73.9669228
  47.6681089  92.2912598  73.8444757  26.6305733  72.0960760  78.2479382
  26.6570044  71.1884880  78.5509396  26.8870115  72.0486736  77.3269463
  20.5847430  58.6890841  11.3034761  19.9906290  58.6477280  10.5541098
  21.4578032  58.7403011  10.9144092  20.0048542  92.8347588  93.7101364
  19.9719238  93.7902355  93.6631966  19.1509461  92.5826550  94.0615940
 109.7516918  16.2978852  25.5425119 109.3579102  16.3111150  24.6701622
 110.6728172  16.5107822  25.3927469  34.8654318  72.8968906  56.5516043
  35.5092239  72.1914577  56.6158009  34.3078256  72.7830458  57.3212433
   4.3027547  33.1149864  19.6559167   3.5158694  33.5602808  19.9701738
   4.8188499  32.9545856  20.4459476   8.2040864  58.1343842   1.6364753
   8.1554896  57.8597641   0.7208044   7.3250186  57.9766035   1.9808248
  31.8455696 103.8088036  82.4869728  31.7649484 104.6308422  82.9707050
  32.7891612 103.6746693  82.3982525  21.8023491  80.1320839   1.6248386
  22.5446630  80.6924725   1.3986349  21.7643619  80.1592159   2.5808999
  51.0253572  72.8861570  76.1615181  50.5844116  72.6990891  75.3327847
  51.9574118  72.8799486  75.9436417  48.1827927  18.5547757  81.2221527
  48.2951736  18.6031604  82.1715069  49.0735149  18.5899472  80.8734322
  29.3232179  59.0643406  86.1791134  29.8735499  59.7402573  85.7835197
  29.3687129  59.2383623  87.1192646  33.3839154  52.7035141  14.9412894
  33.1172991  52.0589924  15.5968356  33.0670166  52.3464680  14.1116357
   5.3207004  93.1863976   9.6431911   5.2202094  92.9447746   8.7224567
   5.0084406  92.4217319  10.1269376  81.7077923  21.6339064  80.7151699
  80.7615948  21.5388083  80.8242893  82.0846081  21.0344362  81.3592815
  22.2741461  82.1283722   9.3482435  21.9795871  81.2751389   9.0297049
  22.8329301  81.9242001  10.0981164  22.3544216  36.1059093  83.6837482
  22.2279501  36.5688419  84.5119572  23.2473803  35.7648253  83.7339401
  19.3455172  11.4068723  67.5889063  19.3451941  10.5170894  67.9417753
  19.6192884  11.9558358  68.3236980  47.5651741  90.0438881  54.3051147
  48.2279062  90.4153061  54.8874140  47.2851658  89.2400074  54.7428322
   8.0061936  21.8096948  67.7037764   8.2916087  20.9618163  67.3633718
   7.3240542  21.5950203  68.3400393  44.6713686 103.4252930  14.0461648
  43.8816977 103.9658165  14.0683103  45.3919220 104.0506744  14.1232157
  26.4993715  91.4576817   2.7678403  26.9206381  91.7536163   3.5748047
  25.6054878  91.2384415   3.0307776  91.1068916  19.6681857  68.8553858
  90.2450371  19.2981923  68.6642122  91.2073612  19.5648539  69.8016739
  14.2075372  30.4964375  80.2375412  14.4906795  30.9386182  81.0378742
  15.0113940  30.3798032  79.7311354  13.5160851  51.7815781  83.7155056
  14.2058814  52.2119617  83.2103443  13.1887889  51.0934734  83.1361771
  99.9232578  66.0951471  94.0291214  99.9181080  65.2042532  94.3791485
 100.4941082  66.5825510  94.6230984 103.5347843  36.2887406  72.0532942
 103.9111805  36.7047048  71.2777090 104.2924881  36.0303545  72.5780296
 105.5314350  16.0531628  86.2572384 105.2211857  15.2753413  85.7935810
 106.3783360  15.7937777  86.6201496  25.9506512  40.6600714  83.1381893
  25.5582619  39.9285674  83.6148071  25.5919933  41.4408064  83.5601521
  97.7631092  67.6770687  66.9333363  98.4017754  67.0396948  66.6138077
  98.2551575  68.4952068  67.0023632  56.8522120 105.4371166  81.2654877
  56.5377665 106.2110519  81.7328072  56.7380095 104.7187710  81.8877029
   4.5330217  35.4756069  81.2134838   5.0175923  36.2177086  80.8519459
   3.6185291  35.7580900  81.2017441  19.0178823  58.2243967  90.7356262
  18.9528739  58.2181549  91.6905975  19.9356496  58.4314537  90.5593872
 109.0042782  38.7849998  46.4732122 108.2728195  39.2629337  46.8640804
 109.3887711  38.2977843  47.2019243  98.3828259  54.7043037  88.8721657
  98.1795025  55.6390905  88.8395309  98.5831261  54.4709682  87.9657078
  94.5946503  72.5495195  81.0559177  93.6624813  72.7153063  80.9151554
  94.8513031  73.1806231  81.7282677  31.6089892  34.9582076  65.5639458
  31.7683887  35.8931732  65.4348564  32.0002818  34.7638774  66.4156246
 116.1829853  56.3009119  59.0242100 116.0237122  57.1275043  58.5685682
 115.4683304  56.2349796  59.6575785  88.6109829  57.6546192  85.1347733
  88.9841270  57.9754162  85.9558010  88.7839794  58.3533955  84.5038795
  60.1469040  92.4990082  30.7894182  60.7121229  91.8519306  31.2113810
  59.3449688  92.4936104  31.3120127 102.9659081  39.8889995  78.8823366
 103.3463287  39.7984648  79.7560167 102.0792961  40.2136755  79.0396214
   1.1290608  29.1361904  91.9833565   1.0945638  29.9852562  92.4239540
   1.2692040  28.5054111  92.6895428   4.8352349  32.7286458  55.5582619
   4.7637209  31.9520617  56.1132717   4.0140700  32.7482414  55.0667953
  14.1016412  70.1745844  86.7657661  13.5353041  70.0625181  87.5292683
  14.5104647  69.3178320  86.6429901  55.1855803 105.8900452  11.2205541
  55.6830025 105.3387451  10.6165075  54.4536161 106.2179184  10.6980968
 105.6136990  54.1793060  57.2836924 105.2612114  53.5231209  57.8848600
 104.8406315  54.5768833  56.8830252  18.4840906  46.2257051  89.2226219
  18.8048542  46.9207096  89.7973442  19.1431010  46.1634445  88.5312080
  21.6459179  61.2169456  67.5532866  21.7548704  61.0960722  66.6100216
  21.0204840  60.5396652  67.8108883 110.3587818  76.6459608  66.6864967
 109.8251629  77.0296669  67.3823786 109.8710918  76.8273115  65.8830690
  60.0620174   4.6109852   1.3541158  60.9680080   4.5888096   1.6622001
  59.6863413   3.7836617   1.6551739 102.0203304  24.0287328  58.3671236
 101.8922806  23.3859444  57.6695108 102.9043484  23.8571239  58.6916161
  61.9671726  78.5365486   1.3792288  62.5153017  77.9010153   1.8395391
  61.2977695  78.0065489   0.9465282  22.5174928  90.0644970   2.3503643
  22.7128935  89.7805214   3.2433420  21.7269802  89.5799828   2.1125272
  30.5315733  87.3940659   0.7554096  30.9356356  87.4534798  -0.1102896
  30.2741098  86.4757633   0.8370414   3.9942181  89.6288013  65.4212904
   4.2782211  90.5397129  65.4975414   3.2554469  89.5568657  66.0256672
   9.3121868  42.2050858  94.4296074   8.8550073  42.1359968  95.2677250
   8.6620331  42.5741482  93.8318348   9.4921684  34.8902512  68.2868814
   8.7698603  34.9797726  67.6652002   9.9064577  35.7530737  68.2985544
 107.4685001  69.9402189  73.0594873 106.9488621  69.2785978  73.5160685
 106.9609070  70.7468462  73.1485319  74.5146894  14.7780800  16.0051787
  74.0856552  14.0243578  16.4102280  73.8241100  15.4370630  15.9339476
   1.3498050  50.3800821  72.3912287   1.9948973  50.8451891  71.8585300
   0.8670771  51.0729313  72.8419638   9.7675210  51.5224266  88.2208538
   9.1995507  51.9204426  87.5611305   9.2519987  51.5469551  89.0269947
  16.8677175  20.2490187  91.5671635  16.3106048  20.7006979  92.2010803
  17.4905097  19.7577381  92.1028900  31.2099171  18.7849772  48.7825108
  30.9819007  17.9685545  49.2271376  30.6715322  18.7851322  47.9910755
  52.6637077   8.5235667  85.4471588  52.4210501   9.3272150  85.9070492
  51.8508959   8.0203044  85.3992176   2.6810285  73.5873413  87.7781200
   2.7802673  74.3103981  88.3974457   3.4826344  73.0739975  87.8788090
  90.1592445  47.0491886  86.5465927  90.8984089  46.7509890  87.0766258
  90.4194641  47.9177618  86.2398243  98.8442707  29.5256901  52.4211884
  99.3067646  28.9184380  51.8436289  97.9823303  29.6300507  52.0181990
  97.8293896  34.5177555  92.0352268  97.6500511  33.9379764  91.2950039
  98.6975861  34.2547202  92.3406315 107.7645397  49.2353725  88.5242653
 107.8595829  49.2267466  87.5718307 107.2462463  50.0192833  88.7061596
  17.2684443  95.0876141  14.8512530  17.3746550  95.3378391  15.7690430
  16.3360953  95.2136612  14.6749866  83.5275078  69.2366266  73.5245228
  82.8852749  68.8047791  72.9612589  83.9132977  69.9156666  72.9710674
   3.2274795  84.8977566  63.9106655   3.4258881  84.4239712  63.1029558
   3.9538294  85.5128670  64.0121222 101.4550781  62.3052025  53.7743044
 102.3547077  62.3972273  54.0880394 101.5438747  61.9242430  52.9006815
 110.6505489  67.4127388  62.3064518 110.9103012  66.7536688  62.9501772
 109.7273540  67.2280407  62.1337366  99.4890690  44.4410610  82.6597214
 100.4302788  44.6015882  82.5919342  99.2688179  43.9659405  81.8584824
  78.2214308  73.4435892  73.5284901  78.8458967  72.7432728  73.3392191
  78.6758327  74.0068245  74.1550016 102.4044609  55.5549479  34.9998641
 101.6115093  55.5306387  35.5354714 102.1492100  55.1414633  34.1751766
  30.8342409  42.6168251  41.1836147  30.6224060  42.7510834  40.2598572
  30.0282788  42.2700119  41.5662146  57.5349045  85.8947945  12.4352431
  58.1768417  85.7519436  13.1307578  57.4777031  86.8468189  12.3539472
 103.1169891  25.5821896  41.4014053 102.2366905  25.8637094  41.6505194
 102.9832458  25.0335455  40.6285286 100.7942295  42.4417973  56.1052942
  99.9687290  41.9696856  55.9962463 100.5777168  43.1720972  56.6849566
  28.8044834  20.5808711  80.1226234  28.7337279  20.1792789  79.2566299
  29.6444011  20.2717757  80.4620743  19.9031913  46.6371107  81.5214825
  20.4865384  46.4483643  80.7864285  19.0586495  46.2725592  81.2567520
  14.6227562  13.0162835  87.2212791  13.8199723  13.4349024  87.5319672
  14.4375896  12.0783603  87.2686672  13.8634253  91.1774063  14.4777417
  13.0077481  91.5716553  14.6469104  14.4674408  91.6674709  15.0356305
   8.6408055  44.7057104  67.1828699   8.0206180  44.9992466  67.8502798
   8.5289860  43.7555218  67.1533632  20.3472805  64.3872118  74.3774128
  20.5356479  65.2242565  74.8018074  19.9641776  64.6272993  73.5337210
  13.7239623  46.0233259  82.8889751  12.9825425  45.4317760  83.0178070
  13.8564110  46.4312410  83.7447166 104.5971680  50.3561020  78.5197878
 103.9326954  51.0243797  78.6874580 105.3000259  50.5568504  79.1377831
  54.8930264  92.3329449  54.8967886  54.0348101  92.3294544  54.4728947
  55.1115465  93.2604408  54.9875784 100.9108925  46.0613823  67.1926832
 100.2196217  45.8196211  67.8090620 100.5594540  46.8179798  66.7233467
   6.4300591  48.0143881  70.5595732   6.2167585  48.9445829  70.4855919
   6.4303768  47.8428936  71.5012884  17.3044765  43.1414795  74.7998714
  16.3803637  43.2588148  75.0200510  17.3010659  42.8976488  73.8742542
  28.7035775  53.0340195  55.1115608  27.9972363  52.3895359  55.1557636
  28.4963727  53.6641741  55.8016348  33.7176609  95.9055901   9.2775375
  34.3709898  95.3250122   8.8872582  33.0734038  96.0424042   8.5829532
 102.1504021  52.0608854  68.3646774 101.5284920  51.5507555  67.8458118
 102.0846176  51.6938257  69.2462540  24.1048741  44.4133949  48.7191105
  23.3088732  44.7549772  48.3117580  24.3318534  45.0637627  49.3837404
  31.5235591  47.5928259  71.9312477  31.0706711  48.3465862  71.5531301
  32.3921871  47.9245853  72.1585226 107.8186321  61.9515800  84.0898800
 108.6502266  61.8226433  83.6337376 108.0545139  61.9697618  85.0173759
  96.2113476  33.0361652  82.2957611  96.8551350  33.5096765  81.7689133
  95.4621029  32.9204774  81.7113972  33.2187271  20.8078957  63.3338404
  32.3406887  20.8305478  63.7143278  33.8017011  20.6890965  64.0836811
  53.3846188  15.9895635   5.0695235  53.0348063  16.5259075   5.7810003
  53.2193947  16.5031767   4.2788693 102.5103283  43.8145638  84.1970253
 102.2046375  44.5286703  84.7563457 102.9796886  43.2290268  84.7912312
 103.0767536  28.3549094  63.9032936 103.2961750  29.2745948  64.0525103
 102.7050877  28.3373880  63.0213690  81.2029648  94.5810986   2.7159488
  80.3129292  94.9089146   2.5871029  81.1194038  93.6297035   2.6519126
  29.3232465  35.7176208  49.5419168  30.1468849  36.1833739  49.3972540
  28.6596632  36.4069748  49.5680141  26.6732907  59.9477434  79.2978334
  27.3560095  60.6159449  79.2375660  27.0996737  59.2080307  79.7305632
   0.1619792  31.6201568  84.5251083  -0.0879539  31.9190645  83.6507988
   0.7268393  32.3149467  84.8633862 113.7766838  29.6656489  77.6737642
 114.7103500  29.4697690  77.5954771 113.6076260  30.3063202  76.9829750
 108.6945629  22.3437333  53.2908440 108.9235210  21.4211416  53.4032345
 107.7393150  22.3622656  53.3491182  32.9672742  37.4438405  65.6330585
  33.6711931  37.9601359  66.0257053  33.1428766  37.4755692  64.6926403
  18.3475137  86.6668129  65.0776720  18.8020539  86.1389923  64.4211483
  17.8852880  87.3340893  64.5703983  45.6447649  43.6658859  47.9796934
  45.5972290  44.5880842  48.2317305  45.3630400  43.6527491  47.0649862
  61.4740038  89.4021702   4.6576592  61.4796686  88.4498596   4.7541741
  60.7231569  89.6910095   5.1763445  58.5068703 106.3010979   8.9305580
  58.6559582 107.0761585   9.4721198  59.2657375 105.7422733   9.0980870
 112.7449799  69.3704748  58.1101227 112.6766586  68.6418533  58.7271118
 113.6583424  69.3572712  57.8240919  50.4043818  93.9697647  49.5240927
  50.1476145  94.0818405  48.6088085  49.7341919  94.4398785  50.0201464
  11.4175129  35.1027536  72.1375656  12.0569086  35.6977487  71.7459249
  11.3987565  35.3467155  73.0629635  12.1581066  48.8667154  85.5540752
  11.3262093  48.8298941  85.0820351  12.0717776  49.6242476  86.1328030
  93.6679459  69.2672682  71.6755533  94.0597153  68.7307644  72.3646879
  92.7313995  69.2647219  71.8733168  29.2389870  42.6593685  88.6322784
  30.1763558  42.5045729  88.7489414  29.1919589  43.3999157  88.0276203
  20.1206374  69.7001743  85.0134373  19.6696067  70.2796316  84.3994045
  19.4553959  69.4764185  85.6642914  13.8940668  68.3883905  63.9188528
  13.0140030  68.7393236  63.7825918  13.8065219  67.8096199  64.6762133
  17.9863822  10.4036474  45.3765249  17.5085711  10.2419996  46.1900330
  18.4855759  11.2024593  45.5466318  30.8245993  69.9658155  82.7989006
  30.7629871  70.5995512  82.0841885  31.6733027  69.5421124  82.6708126
  66.3064098 107.5826645   6.1419958  66.0645676 107.7298450   7.0563710
  65.5911684 107.9725361   5.6393385 105.7904434  39.7587132  62.0453453
 106.5434837  39.1713071  62.1095324 106.1736584  40.6339359  61.9873381
   4.3034145  61.5466595  60.4206991   4.2425981  60.5993652  60.5438757
   3.5186297  61.8941641  60.8444738  12.7546215  62.4481869  89.9188423
  12.5551319  61.5166378  89.8257923  12.1301782  62.8858185  89.3402481
 109.4620419  78.0009079  80.6342125 109.3515396  77.6662254  79.7442627
 109.9238300  77.3019791  81.0973263 103.2515430  21.1064148  19.6969986
 102.8001118  20.3412414  19.3407023 102.8667641  21.8494749  19.2321980
  99.2594433 101.5295029  75.0797987  99.7464180 102.0833588  75.6899834
  99.6312809 100.6557655  75.2004099 110.3190136  16.6792715  16.8771303
 109.8930836  17.2520423  17.5149047 110.8195114  17.2736228  16.3181305
  13.1598341  50.9591913  76.2629128  12.6490641  51.3749886  75.5683184
  13.9556670  50.6557417  75.8261061  42.7216721  40.8961344  49.4409275
  42.1096087  40.2935266  49.8633909  43.5872412  40.5712032  49.6887970
 108.7081146  71.1691093  59.5668173 108.1625938  71.4168596  60.3133154
 108.3363342  71.6510487  58.8280725  82.3370934  17.3935771  16.2035167
  82.8539467  17.7554524  15.4836941  82.9634285  17.2906911  16.9200075
  34.0823078  38.1492853  79.7681618  33.1410170  38.0717015  79.9236679
  34.4135499  37.2552299  79.8528528 115.6334877  94.9612141   4.9427509
 115.2314854  95.8083439   4.7504023 115.8277321  94.9954414   5.8794099
 115.3220940  77.6645327  66.8131924 115.7129097  77.9642582  67.6339626
 114.3793106  77.6769733  66.9782352   2.9838106  61.6329670  56.4582062
   2.6423508  61.0017252  55.8248281   3.8086843  61.2501621  56.7569971
  31.8332839  32.2977114  80.4428196  31.3725996  33.0786514  80.1359940
  31.3566494  31.5677142  80.0476456  83.7947655  14.4132602  30.8904004
  83.6876583  15.0437343  31.6026258  83.5294342  14.8917890  30.1050067
  34.1636610  37.0610738  55.6928539  33.6844587  37.4569225  54.9649143
  33.6486769  37.2843266  56.4682150   6.5057337  71.9569206  93.8552475
   6.5267742  71.0250854  93.6373615   7.3648965  72.1326447  94.2389011
  26.6068840  47.7104473  79.2871380  26.0412145  47.3282909  79.9581099
  26.0125279  47.9309130  78.5699463  11.2653470  24.5661020  79.4424486
  11.7620766  24.9609590  80.1590919  11.4566469  23.6303377  79.5055342
 113.4823132  42.9305696  75.8706474 113.4621811  43.4666014  75.0778675
 112.7946854  43.2981920  76.4258575  78.7494278  21.7433524   1.8435633
  79.5284939  21.8014073   1.2904601  79.0013981  21.1493731   2.5506225
  19.1350675  29.6481609  74.6580935  18.4702969  30.1235604  74.1597891
  19.1946518  28.7961841  74.2258692 113.5221100  52.8743696  74.1195202
 113.2875061  53.1897354  74.9922943 114.2656517  52.2900915  74.2678308
   1.0826739  27.1979928  21.5693760   0.5723137  27.7756715  22.1368718
   1.8630546  26.9870281  22.0819497  78.9287710  29.8087978  24.6618390
  78.3290243  29.0652323  24.6014571  79.6906042  29.4647741  25.1281929
  83.1812096  17.4351180  23.1969380  83.7954712  17.9321301  23.7372112
  82.9817009  18.0173373  22.4638295 109.4353580  26.5881014   0.4944360
 110.2624893  26.1101890   0.4337181 109.4950390  27.0660162   1.3216394
  76.6117096  16.8175793   2.7224714  76.6843081  16.7791390   3.6761397
  76.9563723  17.6799440   2.4905947  39.0998650  67.4569559  64.2963123
  39.2446899  66.5110111  64.2751360  39.7973132  67.7935028  64.8589230
  97.6411915  59.5500135  74.1394520  97.7559376  58.6139011  74.3030310
  96.9176674  59.8061800  74.7113943  70.0755024  16.8327749  11.5095460
  69.6834993  15.9720302  11.3622856  71.0149860  16.6605341  11.5722775
   7.4448299 104.3648815   3.1412610   6.8323302 103.8193417   2.6478395
   8.2378083 103.8331223   3.2094681 102.4926853  61.6193914  71.4901161
 102.3594284  62.5520420  71.6593361 101.6736984  61.2067842  71.7644501
  45.8631516  94.8332214   7.1819723  46.0446453  94.7487164   8.1180024
  46.4010668  94.1561031   6.7716169  47.9034853  32.7583241  88.3166218
  48.1305838  33.6706090  88.1366444  46.9532585  32.7219772  88.2071972
  13.9218295  71.8748474  62.9491329  14.1139388  71.6124916  63.8494110
  13.2907224  71.2250471  62.6397896  22.1431470  77.7690172  73.1720400
  22.3014569  77.4339771  72.2894764  21.3900685  78.3519220  73.0754423
  33.9874816  84.8639488  89.4132137  33.2886767  85.4749107  89.1794872
  34.7549963  85.1856518  88.9402771  23.2767844  52.2438288  80.3606606
  22.5438643  51.6312075  80.2993870  22.8803134  53.1053543  80.2309799
   2.8650349   1.2288435  94.6327782   2.9978687   0.2809197  94.6275425
   3.5515916   1.5700707  94.0596867 105.0811672  38.5376382  51.7064381
 105.1928997  39.3997979  52.1069765 105.9135532  38.3689618  51.2649441
  34.8799706  51.3190842  83.0420017  35.4829574  51.0207891  83.7229252
  34.2129302  50.6341267  82.9959393  98.1921482  48.5572338  84.4557953
  97.4925232  48.0235338  84.0790558  97.8106785  49.4316435  84.5340252
 114.1957188  48.2805967  82.6759720 113.4407997  47.7178192  82.8480721
 114.2705059  48.2958555  81.7218208  19.5743871  32.0634699  72.6046896
  18.8244486  32.1379972  73.1948328  20.2940083  32.4810934  73.0779409
 113.2128048  78.0183268  87.9268646 113.4572601  78.8251591  88.3801842
 113.2305813  77.3460770  88.6080360   7.4632704  62.6234007  66.8496656
   7.1172804  61.9890022  67.4774075   6.7749798  62.7071953  66.1897659
  12.6739323  30.5155826  54.0044403  12.9053175  29.6055365  53.8186741
  12.1113718  30.7735300  53.2742214   4.2921549  59.3663788  76.7514133
   4.0592572  59.7435808  77.5997686   5.1781142  59.6866894  76.5819740
   1.3626048  50.6811428  45.1831388   2.0967710  50.0858641  45.0318861
   1.5687799  51.4541006  44.6575356   1.0863954  48.5111713  89.2133141
   1.3437086  48.8346434  90.0766754   1.4686500  47.6351070  89.1620731
   4.3980777  36.8521166  87.0719337   4.6183279  36.0036063  86.6875458
   5.1700091  37.3950815  86.9121075  20.0743532  48.1620598  90.8026505
  20.8868933  48.5035610  91.1759949  19.3811667  48.6040449  91.2929249
  20.5278850  70.4143047  32.1535063  20.2455688  69.6478748  32.6526237
  20.5856395  71.1150932  32.8029585 105.4398251  57.2339630  87.7195454
 105.0284100  56.3944387  87.5142002 105.0174332  57.8583336  87.1296406
 106.7201042  60.6098270  81.9335938 107.5284100  60.7945919  81.4553356
 106.8524551  61.0120535  82.7920437  11.0543311  54.1641951  48.3569479
  10.5261755  53.4510231  47.9982424  11.3968384  54.6190214  47.5874996
  24.6856141  42.9921246  87.3668575  25.0498128  43.6782598  86.8075657
  25.0016403  43.2058430  88.2447529  30.3088784 107.4812412  19.5582736
  29.7969699 108.0917645  19.0277684  30.6838202 108.0232716  20.2524281
 107.3074722  47.8087664  85.5531597 106.6933060  47.2598600  86.0407448
 106.9658089  47.8144836  84.6590328  54.4602203  70.5159283  73.1625605
  54.5257711  71.0284376  72.3567915  55.0884581  70.9244967  73.7580633
  35.8250952  38.2397413  66.5598774  36.1531997  38.8262606  65.8782816
  35.6011724  38.8198209  67.2876120 113.0150318  41.9985723  65.4222679
 113.1659985  42.4660158  64.6007204 112.6580334  41.1519241  65.1539993
  53.4069777 104.8328876   9.2249846  52.9109669 105.0327301   8.4310883
  54.1579485 104.3255997   8.9168787   2.0606382  27.8833985  71.9934702
   1.5892890  27.2665119  72.5533915   2.6580137  27.3360157  71.4838171
   7.7128083  69.1313219  69.9422741   7.3608345  69.8062134  70.5226803
   7.0306736  68.4604216  69.9137259 107.5267220  19.1786146  52.2173929
 108.1735516  19.5999694  51.6514397 106.6922474  19.5713305  51.9611454
  77.2445107  25.7838821  22.5248814  78.0155754  26.1277103  22.0738053
  76.6023970  26.4920259  22.4752927  11.0694194  28.8483071  60.8082867
  11.8934178  29.3348527  60.8313274  10.8159518  28.8500714  59.8852587
 105.6221962  95.4941750  61.7907906 105.3937435  95.6463528  62.7077866
 106.5310764  95.1950169  61.8168545 101.4335346   7.9436445   6.1943942
 101.4568329   8.6276650   6.8635762 100.5600834   8.0148906   5.8093846
 102.0650673  58.4081650  57.3108339 102.0282078  59.1954756  56.7676735
 102.9909992  58.1656647  57.3185873 108.7574387  23.9708734  25.0257659
 108.9653301  24.8811150  25.2366519 108.1190777  23.7109232  25.6899595
 102.8043938  39.2501855  66.2736177 102.4364948  38.7420511  66.9965887
 103.4526062  38.6680317  65.8771944  88.1366348  64.8732758  92.0362568
  88.8780022  64.2713308  91.9709396  87.7587414  64.6952629  92.8975010
  87.4417496  30.4217172  77.3724699  88.1983280  30.7149816  77.8802299
  86.6847229  30.7132554  77.8805590  35.9471107  78.8687372  84.3144226
  36.6546249  79.4801140  84.1097832  36.2227845  78.4471655  85.1283741
  89.3634605  66.6340828  69.8073530  89.0745926  66.4316463  68.9175224
  90.0679874  67.2715807  69.6912527  81.1042213 101.7551136  20.4132128
  80.3437233 102.3084259  20.5913448  81.8144035 102.3728657  20.2392793
   5.9353501  23.3742738  26.6196489   6.2592000  24.2425036  26.8595076
   6.2327766  22.8035355  27.3281884   2.8883570  63.2987785  66.1026144
   2.5783315  63.1727457  66.9994020   2.1455938  63.6933899  65.6456470
  16.6169381  58.8475370  49.3172932  17.0036292  58.5098982  50.1251936
  16.7204666  58.1352520  48.6862898   6.7937481  67.2474766  82.4391270
   6.2919331  66.9034863  81.7001534   7.4349856  66.5635633  82.6322842
 110.0181007  69.8131990  63.6540413 110.5637932  69.0718937  63.3915091
 110.1943779  69.9212360  64.5886421  20.2510500  37.2616744  60.3479671
  19.4249046  37.3339462  59.8699570  20.3447723  38.1039548  60.7929516
  65.3495073  21.3719344  12.3971462  64.7449875  21.9629860  12.8459680
  65.7294846  20.8410954  13.0971909  29.1147161  56.6144657  85.0077248
  29.3880844  56.8738985  84.1278458  29.2698002  57.3910284  85.5454350
  22.0150542  80.1466179  61.8679047  21.9883943  80.3566837  60.9344244
  21.1032510  80.2063847  62.1529961   3.3741751  74.4421101  72.6888132
   3.0461702  74.9480915  71.9454241   2.6679468  74.4789267  73.3338833
  93.6990833  25.9787202  57.0616102  94.4073009  26.3627410  56.5447140
  93.1867218  25.4751778  56.4290285  14.5699561  63.1904078  82.4455261
  14.3163967  63.0276918  83.3540726  14.1368759  64.0136337  82.2197533
  99.6135235  73.4750938  89.8404980 100.3693771  73.9890575  89.5563221
  99.8522568  72.5692368  89.6438789  14.7999477  81.2645817  82.2056389
  14.8709071  80.4420853  81.7212009  15.0910795  81.0469055  83.0911255
  75.3202963  22.1508932   3.7777299  74.8250055  21.5015697   3.2784334
  75.7012463  22.7245951   3.1129175  32.5726914  21.6371584  92.1680927
  31.7322898  21.5831089  92.6231003  33.1928825  21.9139743  92.8426075
 109.2483330  59.8370457  66.2393475 109.9491501  59.1948223  66.3517714
 108.9991188  60.0782490  67.1315050 104.7236633  37.2627854   2.3130222
 104.3541527  37.2966790   1.4306688 105.4421806  37.8949904   2.2962391
   3.9491230  77.7394199  73.7075186   4.1764703  77.1092129  73.0238581
   4.7540042  77.8428745  74.2151546  92.5872231  36.1524630  87.0388317
  91.7255211  36.4634204  87.3163319  92.4031925  35.5435038  86.3236141
  11.2598372  69.7294855  76.9540071  11.2009263  69.5779037  77.8972912
  10.9611654  68.9095974  76.5605545 114.0948009  42.0429230  94.0788460
 113.7171268  42.7817059  94.5561218 113.6475563  41.2746668  94.4337845
 113.7820911  32.6386237   0.7770164 113.6764717  33.5501671   0.5046811
 114.5864487  32.6353335   1.2958844  28.8110638  48.0932522  93.3020496
  28.0192900  48.6017513  93.1266785  29.3830848  48.6966419  93.7763309
  94.8953247  31.0334969   9.0055358  95.5134583  31.0126472   8.2749850
  95.3272247  31.5709949   9.6694559  17.8281534  78.8662815  46.0223484
  18.4407318  79.5278120  46.3438368  18.3771586  78.2417536  45.5482244
  11.5799069  42.0274973  65.8684111  11.9329774  41.2980509  65.3590155
  11.2797439  41.6267920  66.6842365  58.5695362 103.7323093  19.8677206
  57.6885080 103.4023571  20.0442147  58.4541225 104.6760368  19.7569108
  21.7863989  90.7432079  70.7315731  21.1621380  91.3226986  70.2948570
  22.6308155  91.1831188  70.6332159 114.1852951  46.9643927  59.1117907
 113.7029171  47.2278023  58.3281040 114.3431854  47.7828979  59.5822620
 114.7196770  79.9197817  81.6998005 115.6488895  79.7600031  81.8649578
 114.4432259  80.4891396  82.4178696  12.1478033  50.7727575  87.9190063
  11.2454450  51.0828495  87.9953098  12.2768533  50.2194166  88.6893272
  58.1590986  76.5241337   9.7808272  57.5337839  76.7206717  10.4783821
  59.0035820  76.4608812  10.2270126  49.3463802  82.1486759  14.4697452
  48.8379478  82.9576778  14.5267022  50.2560806  82.4301720  14.5668888
  19.0083504  55.4729271   9.9402815  18.8713634  55.8283234  10.8184409
  19.2390490  54.5555210  10.0864756 108.2448483  69.9675894  79.4602871
 108.2394695  69.2121792  80.0481319 107.8177738  69.6538258  78.6631727
  37.2835708  36.8783402  79.1262150  36.5577912  36.3786936  79.5001554
  37.9578042  36.2231541  78.9462996   8.4615177  65.0095892  89.5453835
   7.9159391  64.5794678  90.2038479   8.1204873  64.6940279  88.7085152
  48.6922836  78.5580158  10.9701872  47.8403330  78.6863375  10.5531108
  48.5384607  78.7540388  11.8943870 105.4520035  43.1136036  50.3489399
 105.5592442  42.2208643  50.0206995 105.3340435  43.6455870  49.5619774
   3.5409552  20.4271555   1.0432760   4.1846216  21.1334038   1.0992735
   2.7249822  20.8653641   0.8016301   9.9630708  71.5129137  54.7963190
   9.1553551  71.9103098  54.4708872  10.5317521  71.4626837  54.0280008
  53.1753445  68.6185551  10.9343290  54.1296101  68.6808395  10.9759235
  53.0072689  67.9681444  10.2524555   2.9168457  46.5010405  64.1532612
   3.7870896  46.7265654  63.8245583   3.0848435  45.9927559  64.9467659
  31.6598606  31.9476056  84.0563869  31.6381884  31.9561911  85.0133038
  32.5912809  31.9765210  83.8376427 111.8106556  30.6344080  68.1161880
 112.6397514  31.0900998  67.9706717 111.9295216  29.7815466  67.6981831
  29.2961907  78.9221382  66.4765406  29.2323542  79.0791321  65.5344629
  29.6450424  78.0336571  66.5481997   3.9096195  83.5468483  61.7782736
   4.4280076  83.6734295  60.9836149   3.1566688  83.0291653  61.4931345
  29.5998740  17.9410136  74.3914938  29.5563626  17.3535776  75.1459885
  29.9676085  17.4032855  73.6901760  96.5579891  70.1387358  89.7404099
  97.1099663  69.7225094  89.0783596  96.2725353  70.9571123  89.3341923
  13.5334945  33.0053377  61.6704082  14.0451741  33.4988809  61.0294485
  13.9292002  33.2257056  62.5136662   1.6177896  79.2747498  82.0699501
   1.9165158  79.0793800  82.9581165   2.2953811  78.9065361  81.5029240
  13.6678612  93.9767170   4.2699990  13.7500453  93.1613636   3.7753463
  13.9668822  93.7532997   5.1514208 108.4328556  89.7975445  71.7843437
 107.9943562  88.9642334  71.6124725 108.8505459  89.6769810  72.6371241
   2.3505378  56.7248106  70.4480076   2.1879202  56.6193771  69.5106316
   1.9723019  55.9409237  70.8463717   3.3084062  87.5802326  75.0460243
   2.4082787  87.7960777  75.2897739   3.6112145  86.9959354  75.7411003
  70.5849266  18.3878517  37.1213841  70.2828455  17.5627518  37.5011063
  71.0877371  18.8038826  37.8216219  35.6122327  37.8886008  92.3031807
  36.1209035  37.3161912  91.7288685  34.7467136  37.9281998  91.8963146
  98.6762238  73.6239433  84.0022755  97.8668213  74.0674210  84.2560959
  99.3293762  74.3224859  83.9613533   1.2244420  84.6953106  85.5439949
   1.3447592  83.8151455  85.9004498   1.9008771  84.7759247  84.8715591
  33.5644984  85.5535984  92.9790878  33.2314181  84.8287678  92.4500275
  33.1387138  86.3303471  92.6163101 114.9320030  88.1012344  71.7537451
 115.5666065  87.4266148  71.9953918 114.9227715  88.0895615  70.7966566
  25.3037953  46.3051319  76.8136263  25.2493954  46.1679506  77.7593851
  24.4176340  46.1330509  76.4952898  99.4401836  26.2842107   4.3251440
  98.6346054  26.0473704   4.7846934 100.1048183  25.7001615   4.6903473
  47.6267767  92.4981976  27.2934961  47.1175241  92.2007561  28.0474353
  48.4516287  92.0166683  27.3565960  11.3641644  94.9225616  65.1735353
  12.0836222  94.9929142  64.5461082  10.6299925  95.3640747  64.7465801
 108.8586426  65.6629992  82.1511078 109.6263981  65.7337046  81.5838432
 109.1777229  65.2078629  82.9303837 115.0925064 106.5723419   7.2865736
 115.5828571 106.7871857   6.4930844 114.1881466 106.4719486   6.9894457
  14.2159462  71.2170029  58.1898880  14.3854344  72.0845652  58.5570860
  13.7250924  71.3887691  57.3862743  56.0446644 108.4925270   0.0597783
  56.0707951 107.7627468  -0.5590686  55.7505465 108.0993652   0.8814567
  84.2558575  16.3449073   2.8959650  83.4168530  15.8987415   2.7808797
  84.0218449  17.2620773   3.0383447 105.2903271  45.0743818  70.9900808
 104.5967293  45.5488300  71.4483976 106.0856342  45.2785826  71.4820433
 111.6332722  69.6310902  85.2649117 112.1896362  69.1042376  84.6912289
 111.7467880  69.2419147  86.1320305  14.0749311  44.8585701  91.8916225
  13.8499546  43.9420891  91.7313576  15.0066686  44.8417616  92.1102810
  16.7886758  39.6410608  69.3875217  15.9285641  39.3042183  69.1365719
  17.3137808  39.5750594  68.5899401  33.0057597  92.4596405  22.3051763
  33.0838776  92.7962589  23.1978202  33.7793517  92.7968979  21.8534613
   9.3047315  60.7847595  84.0207958  10.0722718  61.2907124  83.7541008
   9.3070340  60.8320761  84.9768257   5.7592499  31.1289239  79.2141962
   5.3967959  32.0051551  79.0835142   6.6148293  31.1573195  78.7859344
  37.6323390  31.7965388  54.2453766  36.8375754  31.2659979  54.3011379
  37.6945162  32.2252321  55.0989532 105.6153584  63.3372259  59.4011497
 105.7423878  62.6209164  58.7790585 104.7000599  63.2609129  59.6706486
  26.8085408  67.5234318  71.6696167  26.5619326  67.7866793  72.5562477
  27.7181840  67.8075123  71.5797043  15.9641945  91.3418293   5.6883788
  16.7952633  90.9909248   6.0084075  15.9771764  91.1676121   4.7472569
  22.0048094  79.8664904  91.6123104  22.0787263  80.8192444  91.6674042
  22.2199750  79.5582628  92.4926090  45.9771252  21.8395686  53.7103224
  46.7553282  21.3360023  53.9491796  45.2771664  21.1886978  53.6587954
  11.4796710  44.6354580  66.7453718  10.5241644  44.6203375  66.8002319
  11.7039037  43.8451624  66.2540627  49.0043592  71.7034769  90.1096153
  49.4778967  70.8757067  90.1920223  48.1483412  71.5297174  90.5011177
  92.3864269  64.4123983  75.8667326  92.0666981  65.2136803  76.2813950
  93.2975578  64.3423939  76.1516476   1.9064367  44.0309286  52.8980494
   1.1474781  43.4951591  53.1286192   2.0218804  44.6171379  53.6458874
 110.0695992  28.9170241  62.9274607 110.3068638  28.9239264  63.8547611
 109.2881107  28.3659863  62.8842878   5.5781311  26.8065047  76.5597630
   4.7553205  26.5867996  76.9967318   5.5571938  27.7597094  76.4749432
  45.0573730 103.4508419   4.9612257  44.9113131 103.3205891   4.0242451
  45.1900864 104.3942356   5.0540721 115.2106762  32.4539852  81.9371605
 115.5627441  33.1186676  81.3451481 114.3636131  32.2198629  81.5578079
  32.4147749  25.0808358  81.5504360  32.6210833  24.1898894  81.2678051
  31.7879486  25.3990960  80.9007931 115.6285572  95.9336662  87.8692532
 115.7890606  95.3121090  88.5792732 115.7799530  96.7924690  88.2639313
  41.1603165  47.8600454  88.1711006  42.0607138  47.5393534  88.1194401
  40.7755566  47.3768568  88.9023495  78.9047718  42.2013044  87.7149391
  78.8385963  42.0360661  88.6554432  78.0247068  42.4759769  87.4575043
  93.5454369  39.1346407  56.4891100  93.3510590  38.9679432  57.4114227
  94.3942261  39.5770097  56.4993715  82.1716022  40.3191233  23.4454513
  82.9038906  40.7496357  23.0042577  81.6999435  39.8699975  22.7439833
 113.1195641 108.9155102  30.6370783 113.0349922 108.3818436  29.8469615
 113.4547710 108.3112812  31.2994742 106.3914967  70.9102821  94.1681862
 106.6095066  70.4409933  93.3629036 106.8453503  71.7491198  94.0868950
   7.1172929  32.7588844  70.8049917   7.6546836  33.5041642  71.0733223
   6.3169950  33.1531906  70.4581833   5.5472147  38.9167380  91.1446667
   4.8665240  39.5740151  91.2891483   6.2225354  39.3768811  90.6462288
  27.4997187  53.9134979   3.0695769  28.1622291  53.7783480   3.7471047
  28.0019999  54.1181993   2.2808807  98.2949257   5.9411812   4.4322813
  98.9677143   5.3273594   4.7269046  98.6145878   6.7991114   4.7115642
 110.8544159  43.3505106  66.7654943 110.2178192  42.8110027  67.2344494
 111.4928246  42.7247381  66.4233303   1.2364682  62.6809263  54.1396904
   1.6241783  61.8720388  53.8056040   1.9835655  63.1981802  54.4405699
   9.8560172  92.3657894  30.9359884   9.0546221  92.2566223  31.4479256
  10.5347478  92.5405502  31.5879202 107.8152275  57.3079681  76.0256338
 107.7689838  58.1654692  75.6028080 106.9331646  57.1615362  76.3673401
  38.4371829  46.8741083  81.5528965  38.7072349  47.3443365  80.7641125
  39.1291857  47.0558071  82.1887875  98.9743519  74.6492195  48.7386179
  98.4737492  75.0119114  48.0078125  99.5535755  74.0029383  48.3348131
  70.0821543 104.6901417  23.3022237  69.7831202 104.4206238  24.1706538
  70.7917500 105.3090000  23.4746337 110.3691387  63.3360577  85.7262039
 110.4031944  64.2442036  85.4256344 110.9729767  63.3065891  86.4683342
   9.2002028  59.8653936  37.3474073   8.6429650  60.3325701  37.9698730
   9.8350734  59.4029570  37.8945088  28.3634448  56.3039637  60.5908394
  28.7005067  56.5791512  61.4434195  28.0822349  55.3989267  60.7252359
  45.9827757  33.3245826  84.5853996  46.1519194  32.4227738  84.8581028
  45.5521774  33.2407808  83.7346363   2.1480280  68.4655809  84.7766209
   1.8560354  69.0136337  85.5050468   2.2250287  69.0697527  84.0381908
  51.6820621  61.8394423  61.5644312  51.9944048  62.5914383  62.0675993
  52.4468327  61.5497637  61.0669947  17.4357808  47.3366404  86.1892796
  17.0656013  47.7382469  85.4032040  16.7970073  47.5235271  86.8772221
  32.7292299  68.8897133  66.8034887  33.0539656  67.9899311  66.8376732
  33.2835865  69.3198442  66.1524057  19.5343328  81.1737919  90.2678967
  20.1698089  80.4731369  90.1213074  19.1627622  81.3450336  89.4025421
  33.6168504  69.1924620  73.1023741  34.3382478  69.7714138  73.3486080
  33.9707780  68.6576939  72.3917532   9.9192160  79.7675753  59.5626783
   9.9821675  79.2230701  60.3473902  10.3042376  79.2327023  58.8684845
  34.4659114  83.7967491  85.2639198  33.9089632  83.8133526  84.4856071
  33.9536667  83.3169746  85.9148026  41.9988489   0.2827431  73.7090158
  42.0958567   0.2673661  74.6611643  42.0220280   1.2120698  73.4808826
  38.7886810  57.6828766  83.5896683  38.2723761  56.9656801  83.9574909
  39.6848989  57.5030327  83.8737106  67.6826715 100.6535053  10.0561512
  68.6220407 100.5866051   9.8848617  67.5302219 101.5884686  10.1933682
  17.3488450  97.4671936  88.1644154  17.8847933  97.6829052  88.9276028
  16.4473176  97.5844097  88.4639835 107.9704285  18.6691153   2.2203773
 108.5397911  19.3630111   2.5529024 107.1049023  18.8815546   2.5696015
 100.2906132  21.8630123   7.1619749 100.6772041  21.6021752   6.3260674
  99.4685650  22.2909570   6.9225216   9.7234064  80.4506111  65.0070858
   9.6880853  80.1099777  65.9009266  10.3297281  79.8663187  64.5518875
  14.7916818  90.5677032  87.2204208  14.5030534  91.3346863  87.7150536
  14.5404172  90.7572174  86.3164425  77.0020342 108.5238552  22.7685213
  77.9393053 108.5512352  22.5761461  76.6684866 109.3644333  22.4548268
   2.1832189  23.7335086  81.5449238   3.1186703  23.9143777  81.4529991
   1.8967116  24.3084431  82.2545719  21.6267133  64.7024298  79.4879532
  22.0957947  64.3791294  78.7187481  22.2192311  65.3457212  79.8769569
  14.5616841  29.7175241   3.8356641  14.0923011  29.1783571   4.4722244
  13.9167881  29.8960924   3.1512266  93.2573891  15.8100677   5.4687893
  93.0036259  14.8879814   5.4288608  94.1351795  15.8336258   5.0877833
 113.4828758  56.9568682  62.1720219 113.6598873  56.1714983  61.6542482
 112.7186012  57.3526812  61.7531443  96.4083767   4.9727345   6.1345339
  95.9723854   4.5981303   5.3691518  97.2482681   5.2884269   5.8011222
  78.7038803   1.1956901  65.1665163  78.2007027   1.5464035  64.4316339
  79.3502188   0.6181999  64.7603321  31.5913105 108.0855846  16.4484763
  31.0601735 107.7327347  17.1623516  32.4296069 108.3007336  16.8573797
  96.2124825  15.0539458   2.2345467  96.8531704  15.0692534   1.5235540
  96.2661648  14.1653192   2.5862458  44.6326780  57.6176023  85.3192139
  44.2037439  57.2403240  84.5511532  43.9738226  58.1978035  85.7006645
   7.4697649  25.6248760  87.5410366   8.3218390  25.5690122  87.9735661
   7.0700979  24.7675443  87.6875973  54.1576147  93.4864807   8.6319596
  54.7928810  93.8105297   7.9934704  53.4007883  93.2271671   8.1064147
  38.9906192  59.8044682  86.9291878  38.6552858  59.9109697  87.8193760
  39.8445868  60.2366877  86.9416237  43.2280684  68.5079432  73.7103605
  42.8054142  68.9594889  72.9798126  43.3182621  67.6027441  73.4125090
  27.3193693  59.6520662  69.7073412  26.9627428  60.5388498  69.7590208
  26.6252875  59.1384840  69.2941666  62.8524065  84.5054054   6.8304038
  63.6758280  84.3162537   7.2803319  62.4458504  85.1952267   7.3548967
   6.6203457  51.6044760  92.7869606   5.7308340  51.9580317  92.7876949
   6.7463034  51.2710857  93.6753368  11.6941440  70.7665253  62.1426296
  11.4498305  70.1379108  62.8218842  11.0560477  70.6238461  61.4435530
  17.8981781  78.2962942  54.8236609  18.0632854  77.9342222  53.9530993
  16.9856632  78.0727673  55.0069141 115.0561428  52.3497486  61.0198641
 115.1863861  52.2793913  61.9655514 114.6520138  53.2087088  60.8969975
  65.0348616 101.1535931  12.3163211  64.4627762 100.3863430  12.3327351
  65.0879812 101.4323521  13.2304907 101.2658119  54.8202991  13.7986529
 102.1685600  54.9135399  13.4943676 101.0022640  53.9488220  13.5031724
  11.2342322  97.2868061  90.0027561  11.9234347  97.8778648  89.6996307
  11.0690188  97.5551224  90.9066105  99.0982723  67.6372480  74.6613693
  98.6772060  68.1071901  73.9415789  99.2658234  68.3101463  75.3211927
  18.3932006  62.8736305  68.8098049  19.1682208  62.7900410  69.3653107
  17.7177072  62.3697233  69.2637014  86.6418171  47.2103882  22.5332499
  87.2596836  47.8831959  22.2472453  86.5626335  47.3438644  23.4777856
   9.1126561  75.6955528  61.8750048   9.2574561  75.0126791  61.2200642
   9.8424929  75.5992651  62.4868059  53.8211584  58.8347721  92.6039696
  53.1380033  58.5543728  93.2129955  54.3288898  58.0417681  92.4319553
  37.3917007  74.7064686  61.4714527  37.2995853  74.2874718  60.6157732
  38.1643343  75.2645302  61.3829422 108.5832787  67.1281528  78.1642103
 108.4491253  67.1743965  77.2175884 107.7028275  67.1919632  78.5342979
  93.1719017   8.5632163   1.6276789  94.0182209   8.3752495   2.0334479
  93.0818939   7.9001379   0.9432389  97.0483589  43.2133245  13.9398181
  97.2915077  42.5021362  14.5325458  96.1018944  43.1210899  13.8306224
   3.9189669  55.8442736  66.3256741   4.5708951  55.2033567  66.0420370
   3.7639967  56.3865995  65.5523062 100.1199722  66.6809702  85.5897236
  99.3579197  66.7713404  86.1618519 100.8067417  67.1870947  86.0238075
  18.8758826  64.3453741  72.0766926  19.2368352  64.3131924  71.1907434
  18.0322134  63.8984585  72.0079708  23.4369731  74.0668392  68.3610678
  22.5549340  74.1929531  68.0113029  23.6381388  73.1490326  68.1783104
  17.3327160  72.8439808  91.5091705  17.7281976  73.4681606  90.9007072
  17.3641860  72.0062923  91.0470867  52.7866983 102.0694447  25.4747987
  53.3051825 102.0258236  26.2782335  51.9109154 102.3206806  25.7682562
  46.5776491  71.0782242  66.1200762  46.5055323  70.5394745  66.9079733
  46.9214392  71.9150448  66.4327717  98.0448055  65.7892179  83.4891129
  98.5429668  66.1914825  84.2006302  97.7693558  64.9418354  83.8388348
 102.2959900  53.7069607  76.8746281 101.9320774  54.5415068  77.1701431
 101.5491295  53.2386351  76.5016747   5.1240253  62.4979591  68.9413452
   4.3366921  62.9641819  69.2223692   5.1918763  61.7574787  69.5441008
  83.8769150  37.0341110  40.0714064  83.8494682  37.9406118  40.3775692
  84.8101330  36.8340492  39.9985862  96.2260388  10.4090956   0.3867357
  96.0237228  10.1393298  -0.5091079  96.6081558  11.2817553   0.2935712
  76.4025211   9.9685860  65.1588488  76.4768171  10.0768161  66.1070061
  76.2515736   9.0313977  65.0358629  46.1307478  59.2171192  70.2459097
  46.0502481  58.9916086  71.1726761  46.2457132  58.3759403  69.8038340
 104.6458530  64.6952629  84.9631119 104.9463463  64.8359442  85.8609676
 104.7779655  63.7596464  84.8101521  39.2881322  78.8462114  13.9887190
  38.6459303  78.6159992  13.3172953  40.1359987  78.6924267  13.5719395
 105.5551910  34.8754215  65.9999323 104.9014282  34.1952324  66.1616850
 105.9420681  34.6400785  65.1566219  28.7027359  52.6259899  94.4663715
  29.5514464  52.6588011  94.0249634  28.1091452  53.0941391  93.8792419
  36.0930920  90.0530434  90.2067757  36.0615945  89.2197227  90.6766796
  35.1755810  90.2685261  90.0395298  20.1163554  89.0763569  41.9563484
  20.9672093  89.4469166  41.7219162  20.1935339  88.1461811  41.7440891
  52.3046255  74.8895502  67.0268536  52.4195623  74.6597242  66.1047888
  51.9868326  75.7923126  67.0108604   9.3437892 105.3493690  70.1622009
   9.0400940 106.1802101  69.7965384   8.6375421 104.7317696  69.9724436
 107.4942112  76.3170719  94.0724850 106.7034054  76.6575956  93.6542702
 108.0097485  77.0963287  94.2803383  30.0981665  98.3786964  58.1999683
  29.5542860  98.3640099  58.9874983  30.9252620  98.7654877  58.4872675
  13.6493003  47.7838278  77.7899170  12.8490579  47.6050758  77.2960615
  13.4148610  48.5061693  78.3725786  28.0599308  59.8479891  73.2955980
  27.6021862  60.1666880  72.5176907  28.9805079  59.8156452  73.0353594
  51.8079090  81.2719631  60.9252596  51.7543602  81.4685917  61.8605137
  50.8962679  81.1906433  60.6450272  66.5639734  96.7906380  10.8123004
  66.4610052  97.4467945  10.1230335  66.8827105  97.2847080  11.5676367
  64.4962645  15.1548493  10.0341272  64.5904732  16.0649705  10.3152585
  64.3679714  15.2087593   9.0870970  19.6212626  42.2570324  89.8845482
  20.5362582  41.9912004  89.9759197  19.4287896  42.7343655  90.6916046
   5.1787144  49.2493248  91.6378117   5.9830362  49.3517256  91.1290741
   5.0341481  50.1090956  92.0329475 108.5833073  23.3522987  38.8755631
 109.1345692  24.0420556  39.2451334 108.3081627  23.6953545  38.0253625
  43.6596632  38.2446742  64.8045397  44.5562267  38.1666732  65.1306105
  43.7401199  38.7638330  64.0043974  11.5515471  95.2549076  87.1980667
  11.6345239  95.5487537  88.1052589  12.4083114  95.4318905  86.8096542
  15.9755409  48.8734674  60.4387569  16.8091762  49.3313313  60.5466652
  15.8504009  48.8239431  59.4910622  20.8935952  92.2082806  64.7053385
  20.3650594  91.6079330  64.1795397  20.2830768  92.8967476  64.9689865
  38.5573435  66.7352581  80.5942345  38.4036922  67.6333952  80.3010273
  39.5066571  66.6777563  80.7025242  26.8538117  29.2730808  57.6011181
  26.1468911  28.7761259  58.0128574  26.4600182  29.6380234  56.8086720
  38.7983990  59.2484236  63.5806513  39.6867347  59.1037607  63.9064789
  38.3539176  58.4117842  63.7173986  39.5651627  76.0906887  63.8721657
  40.0983047  76.3783169  64.6132898  39.3049598  75.1973248  64.0967178
  60.9112597  22.9684448  10.1184165  61.2994623  23.1106615  10.9817255
  60.7258654  22.0297766  10.0908518  44.1729116  66.9053555  84.3891144
  44.2329359  67.5484991  83.6827183  44.0558720  66.0676527  83.9410210
  49.3798542 106.6824436  15.1887846  50.0727224 106.3790703  14.6021640
  49.1769409 105.9218216  15.7333040  23.6234570  29.7139430  81.9048691
  22.7843451  30.1538920  81.7686081  23.6318994  29.4977283  82.8372955
  52.2296381  92.0544624  28.2302547  52.9640627  91.5465164  28.5749841
  52.2741938  92.8880787  28.6985970 112.5396919   9.8913717  10.5206072
 112.2680092   9.1593075   9.9669820 113.0142498   9.4814968  11.2438154
  66.0438204  93.9157867  14.9419737  65.7296133  94.3875790  14.1706657
  66.4569855  93.1278324  14.5889199  37.7504420  73.3121538  69.0223789
  37.5992084  74.2559958  69.0725899  36.9014335  72.9464245  68.7740564
  47.7253008  72.6155663  69.2295313  48.0376959  71.7457390  69.4786024
  48.3039236  72.8824139  68.5152340  26.8830395  76.7671204  68.9296198
  27.2171950  76.4391136  69.7644758  27.3941612  76.3016558  68.2675552
 100.9770298  26.8685651   8.2042855 101.2757015  26.8315601   7.2956276
 101.6298676  26.3660479   8.6916399  44.7512245 100.7296848  63.5868979
  45.0537682 100.2630615  64.3659782  45.3277206 101.4912891  63.5249138
   7.3369050  33.2135272  92.5690269   6.4052993  33.2798409  92.7786636
   7.4558598  32.3052454  92.2913551 109.3100357  37.4176383  17.8874063
 109.4809341  36.9393158  18.6987233 109.9036598  37.0242095  17.2478342
  23.4942603  65.5233765  67.6763058  22.5731421  65.4176474  67.4384117
  23.9719677  65.3595018  66.8631792  15.0526905  59.9063587  81.3085842
  15.0125635  59.5689774  82.2034550  14.1527355  60.1644611  81.1093426
  36.5419102  45.1543140  73.1063318  35.8209157  45.6413221  73.5053682
  36.1717200  44.2926931  72.9144907  13.4379184  43.3726692  72.9624271
  13.5754633  44.2884636  73.2045555  14.3200839  43.0230522  72.8367805
  86.6160202  18.0347574  14.0154195  85.6908035  17.7924287  14.0537834
  87.0023823  17.6285219  14.7912621  66.8722105  33.0791473  11.4140558
  67.3821640  33.2646441  12.2025800  66.6231441  32.1590042  11.5008450
  51.6808653  31.4517307  32.3868728  50.8588696  31.6522694  32.8344655
  52.1527338  32.2843289  32.3682117  94.0642929  11.8341160   1.6549797
  94.7750187  12.4169135   1.9222772  94.4897079  11.1716187   1.1105981
  24.0357089  43.5662317  64.6102190  23.1071186  43.5376787  64.8407316
  24.4924188  43.4001255  65.4348755 110.2042484   3.3159325   2.1307537
 109.5974064   3.6391911   1.4648083 110.4427052   2.4384454   1.8317798
 110.7777596  76.2200546  82.1417046 110.3065586  76.4244652  82.9494286
 110.8123302  75.2637243  82.1200466  18.0232120  57.5783253  87.3827362
  17.4968338  58.3422422  87.1469688  18.7076867  57.9262543  87.9542923
  13.0378342  60.7626915  70.1521158  12.3746729  60.4277420  70.7556534
  13.3645403  59.9850178  69.6996498  42.7290392  64.2160273  73.6299849
  42.1570158  64.0826702  74.3857861  42.2191620  63.8984680  72.8847218
  24.9012589  72.2094679  65.4173040  25.8031154  72.3984528  65.6764793
  24.8268104  72.5657415  64.5320034  98.5706043   7.9737347  13.4365356
  98.4447289   7.1792585  13.9553750  98.5456467   8.6845773  14.0770912
   8.1330371  43.1795216  72.6412153   7.7060938  42.6456881  73.3112717
   8.7619251  42.5877237  72.2282934  95.1796436  21.6680765   7.3025423
  95.2939510  21.7501354   8.2493436  94.2937756  21.9918323   7.1392876
 100.5164146  43.6559105  10.2758086  99.7214699  43.9002085  10.7497489
 101.2302876  44.0042400  10.8099186  19.3955052  33.6109996  82.0586586
  18.8427031  32.9199076  82.4234009  19.1842186  33.6190414  81.1251068
   6.8038356  24.8653865  13.9138436   7.6831079  24.8296022  14.2904496
   6.8936771  24.4505167  13.0559146  58.2587385  42.5801468   6.5575218
  58.9635849  41.9334888   6.5929198  57.6284361  42.2835970   7.2140336
  52.3148441  67.9407930  94.0507889  52.6833630  68.7875414  93.7989044
  51.5300846  67.8507614  93.5101604 114.4037342  72.3468494  92.9170418
 113.5555363  71.9042110  92.9463863 114.9958420  71.7614841  93.3892536
   2.0979613  15.0539899  41.9419193   2.5388780  14.2639744  42.2544861
   2.6789892  15.4005527  41.2647676 103.0147266  72.6231813  79.6690464
 103.4017086  71.9361401  80.2116871 102.6289272  73.2348585  80.2961349
  47.2955608  91.5416908   5.5364281  47.3133802  90.7107735   5.0615633
  46.3707352  91.6815281   5.7398313  93.4870529  19.1025472  12.1050310
  94.1110516  18.3956003  11.9404674  93.9604378  19.7131491  12.6701021
  98.2943726  78.3928537  74.9655962  98.6690712  77.7987480  75.6158829
  97.4727345  77.9761553  74.7057819  33.7281728  30.7450891  65.9658146
  34.6429658  30.4648042  65.9945726  33.6731052  31.4495683  66.6114950
  13.7795651  69.4727993  48.9360619  13.4969866  70.2035570  49.4859457
  14.3288755  68.9392996  49.5104074  12.0346582  74.4253874  86.9398212
  12.4868894  75.1570797  86.5198803  12.3977125  73.6461067  86.5189362
  38.1186080  54.5312929  91.4321518  38.0920339  53.6185408  91.7192268
  39.0465713  54.7643518  91.4604568 109.8347187  63.6428499  62.2784328
 109.3039989  63.7579679  61.4902020 109.2408085  63.2369661  62.9099035
  50.3554535  67.8913641  64.6553183  50.9291935  68.6504650  64.5512533
  50.3708696  67.4605322  63.8006973  14.8477626  44.0107059  65.8128452
  14.9159992  43.0671740  65.9588814  15.6166303  44.2276859  65.2855921
  35.3018379  71.2146235  73.6248398  35.0583553  72.1154308  73.8381481
  35.9885287  70.9965038  74.2550039  30.3545165  62.1031570  67.0309877
  29.4954443  62.5253201  67.0319891  30.1667690  61.1776781  67.1874094
  32.2088408  96.9208717  19.8714709  32.6726770  96.8706703  19.0356684
  31.3335276  97.2324467  19.6412933  19.6400607  43.5402727  92.5223160
  18.8703895  43.6718130  93.0759716  20.3704214  43.4793568  93.1380272
  83.3406448  15.6380343   9.9144572  84.0394115  15.4571116   9.2857838
  83.0966282  14.7775936  10.2555239  23.4013224  61.1849308  92.2827911
  24.1521883  60.7091236  92.6378155  23.7882066  61.8895245  91.7630768
  19.2281032  68.3228493  33.4092331  19.3971682  67.4559736  33.0402112
  18.9198458  68.1486273  34.2985344  40.3429222  68.0697727  76.4007330
  40.1231623  68.8899517  76.8425989  40.1921606  68.2497883  75.4727793
  75.3109550  26.8610168  15.4737794  74.8467112  26.4921379  16.2252045
  75.3313541  26.1506367  14.8325515  32.1987796 100.4008865  49.5352888
  32.0292330  99.6091366  49.0247726  32.8845310 100.8576965  49.0481567
  23.1130362  48.0837822  47.5047016  23.6997604  47.3326683  47.4163103
  23.3414888  48.6538649  46.7705059   7.1107727  44.2661476  63.1568193
   8.0173415  44.5152855  63.3365250   6.6040105  44.6905851  63.8491201
  14.5619047  64.0052414  67.9175806  13.7382078  63.5289049  67.8133774
  14.4315350  64.5407820  68.7001610   1.2473165  24.4258165  12.8618097
   1.5137303  24.4749284  13.7798750   1.8383114  25.0269818  12.4084282
 103.0720329  53.3400297  48.6865711 103.0195808  53.9224482  47.9287672
 103.8869858  52.8543282  48.5593987  26.9967675  76.0088778  84.6618557
  27.6093078  75.3407860  84.9695587  27.3930120  76.8382978  84.9288464
  31.1046028 106.9127083  77.3341942  31.2656951 107.8489780  77.4511576
  31.2689495 106.5318012  78.1968212  97.7995586  93.6859703  86.5100670
  98.2300758  93.8528633  87.3485470  98.3539009  93.0335999  86.0818768
  30.5381942  65.5770063  77.3228073  29.8863149  66.0656309  76.8202829
  31.0779285  65.1462030  76.6599894  41.3660002  89.3525887  85.1159954
  41.8137884  88.7694454  85.7289028  41.7679262  90.2088070  85.2629185
 115.6650925  75.0933981  80.9676552 116.2318420  75.8366442  81.1740780
 114.7764397  75.4357719  81.0641575  97.4899769  14.0492940  15.4037786
  96.9992447  13.2633245  15.1636374  98.3280182  13.7188649  15.7273960
  23.9517379  30.3791761  15.3027797  24.4208479  30.8433032  15.9961438
  23.7968683  31.0440707  14.6318388  78.0674553  39.8527288   7.7670759
  78.8672113  39.5116663   8.1674516  77.7426767  40.4991579   8.3938754
  36.9897723  80.6664944  74.1096830  36.7973948  81.5565872  73.8147879
  37.0684338  80.1584244  73.3022785   6.2045133   3.9586136  23.0379629
   5.5507594   4.0399224  22.3435378   6.4426887   4.8612362  23.2495689
  32.9048061  56.7305040  91.9191360  32.8961921  57.2412825  91.1096573
  33.4729171  57.2260427  92.5089931  50.8788061 106.7312622  22.2991920
  51.0635614 107.4943829  21.7516971  51.6195297 106.6852093  22.9037118
  20.6323028  76.1161709  63.6218929  21.4552879  75.6759453  63.8343334
  20.4619312  76.6818810  64.3750048   4.3253660  75.1269865  66.7161512
   5.0391871  75.4227781  67.2811270   3.9842650  74.3452406  67.1506071
  13.4101331  40.1696920  83.3289719  12.9722214  40.6699562  82.6403427
  13.8688064  40.8292627  83.8493729  16.9719279  55.0123358  77.4508238
  16.6528213  55.9037161  77.5916767  16.2570941  54.4516134  77.7522087
   1.6833399  37.7636623  84.3816280   1.2598290  37.3677230  83.6199856
   1.6084351  38.7064672  84.2341709  27.7164149  42.3064995  86.1058903
  27.5995183  41.4314270  85.7360077  27.6821876  42.1727037  87.0530701
  33.0605173  49.4112444  82.5649834  32.9957962  49.1363049  81.6504097
  32.3068571  49.0035009  82.9915619  28.0914474  65.6518126  63.8047600
  27.3980594  66.1732769  64.2091370  27.6438594  64.8724747  63.4753227
  24.4821000  48.6935759  63.7170076  24.6502995  47.8368759  63.3245659
  24.1928649  49.2393637  62.9857779  23.7496018  55.6866884  45.9849024
  23.1430888  55.1479769  45.4768038  24.6183157  55.3984022  45.7047987
 113.5286713  35.3028917   0.7843041 112.9791546  35.8196497   0.1950454
 113.3318424  35.6445312   1.6565274   2.5424236  34.6255302  92.5784016
   2.8116071  35.3170466  91.9737720   1.6683194  34.8872089  92.8677082
  49.8073673  83.1767464  68.4834337  49.6834040  84.1256618  68.4627771
  48.9194679  82.8191566  68.4838438  21.2737751  29.3731928  54.8427200
  21.4929104  28.7534666  55.5385303  20.3284168  29.2782879  54.7264290
  19.4836545  92.0653915  69.9894524  19.0376222  92.8538513  70.2986765
  19.4677770  92.1398544  69.0352869  32.5994420  55.2886534  86.2589073
  32.2180557  54.7743034  85.5474186  32.6363635  56.1815119  85.9158802
  17.6655889  64.1279030  77.0588303  18.0419683  64.8523903  77.5585222
  17.1677804  63.6253166  77.7036762   1.0649136  27.7742815  38.7436008
   0.2581315  27.2807240  38.5961723   1.0310900  28.4852505  38.1035924
  84.9369907  26.6487932   1.7647719  85.1460075  26.3867879   2.6613769
  83.9925766  26.8043852   1.7746936  19.3001330  74.9171114  78.1305122
  19.8680794  75.6830835  78.0471134  19.9028003  74.1853905  78.2632208
  53.2604647  83.6127186  78.5636806  52.5157881  83.0617237  78.8047075
  54.0173054  83.1776810  78.9563131   1.8882205  42.5250816  62.9675293
   2.4465285  41.8027020  62.6799679   1.9982807  42.5491238  63.9180756
  23.4471893  40.6241894  65.6159115  23.3461189  40.5399084  64.6678019
  24.3916488  40.5700350  65.7618523 106.4541626  78.7799740  77.4174023
 106.0913563  79.6457672  77.2303104 107.1607018  78.6736012  76.7804337
  19.6605897  83.2337379  68.0808306  19.7189367  84.1429710  67.7873707
  20.5702209  82.9643154  68.2081747  90.7353973  45.4519558  24.1629338
  91.0899353  46.3136768  24.3819642  91.3757706  45.0759554  23.5589623
  10.0276268  35.0244284   6.0394877  10.8400357  34.5204258   5.9925127
  10.2973509  35.8839130   6.3631624   2.7331710  37.4940157  76.8898344
   2.2059220  38.0135703  77.4967098   3.2834858  38.1357050  76.4408112
  97.2232056  29.2767262  13.2060325  96.2856483  29.2780590  13.0131102
  97.2956562  29.7310042  14.0454459 113.1831360 108.7432671  54.1400480
 113.1979275 109.4051933  54.8313284 113.2338524 107.9088402  54.6063042
 102.9264927  14.1346812  10.0256193 102.3990250  13.8594842   9.2757690
 102.7987480  15.0821090  10.0735140   7.7027833  53.8452435  70.5400896
   7.2757065  54.6786308  70.7383394   7.2490829  53.2067585  71.0902929
  39.7615170  49.3324184  86.1028194  40.2483177  48.6812687  86.6080570
  40.0291491  49.1812229  85.1963139 115.8709049  19.6658635   0.1762851
 115.6656361  19.2021656   0.9881237 115.0245476  19.7764838  -0.2569228
  78.5860062  87.8529739   7.5032347  79.3740749  88.2138824   7.0971334
  77.9204702  87.8985691   6.8167830  51.6402435   6.2941253  69.0290689
  52.1960640   5.5557454  68.7798882  50.9391737   6.2968123  68.3773613
  47.7687454  85.9583187  77.1908951  47.4267340  85.7522774  78.0608416
  47.4291801  85.2618313  76.6289043  63.7639236   1.5814447  26.2155390
  63.5155106   0.6839319  26.4368844  64.6978903   1.6287434  26.4197445
  23.1538391  81.8383408  93.2024288  22.9563832  82.7196884  93.5194206
  23.9510751  81.5887642  93.6697102  45.8350515  65.1868820  69.4626617
  46.3892603  65.0660419  70.2336884  45.0773191  65.6740427  69.7863150
  54.8959160  80.8869553  58.2214403  54.6371317  81.6267586  58.7709427
  54.0686226  80.5121613  57.9192066  37.7273726  56.3065243  64.6118927
  37.5612330  55.4032230  64.3423176  36.8989778  56.7596054  64.4546938
  23.8307595  95.3385830  62.2048759  22.9482794  94.9730206  62.1430302
  23.8908625  95.6689930  63.1012297  21.9855595  72.9623461  93.5877037
  21.6578388  72.2622156  94.1521931  22.2227335  73.6658907  94.1918564
  45.4017305 104.5413780  77.8723097  46.1457825 105.0869083  78.1272888
  45.7676840 103.9128876  77.2499704  94.3762493  40.1504993  75.2473593
  95.0031185  40.3192616  74.5439529  93.6094284  39.7887468  74.8031139
 111.4868927  80.8460045  68.9164925 111.0806751  80.2400112  68.2968187
 112.1895313  80.3382683  69.3223810 101.0032082  51.3597155  14.4769895
 100.8471966  51.9202662  13.7169421 100.5194187  50.5562973  14.2853963
  15.3590667  42.7897215  51.0772610  15.2762198  42.2129965  51.8367052
  14.6439314  43.4184456  51.1748219  28.2394075  63.0616093  73.1752777
  28.3204722  62.4040222  72.4844551  27.8243899  63.8098574  72.7461910
 105.8269501  75.7883120   9.5362598 105.6774616  75.0695181  10.1504374
 104.9978352  76.2663889   9.5206887  40.8942366  78.5031414  71.3073826
  40.3445625  79.2812347  71.2143326  40.4386950  77.9640055  71.9539452
 111.7765331  21.9436622  87.5682735 111.6257095  22.6831889  86.9795513
 112.4446392  21.4188671  87.1273041  50.2381992  11.5756190  47.9723644
  49.7207546  11.7879081  48.7491655  50.9734058  11.0622549  48.3072662
  38.5144973  73.4742308  73.4380627  38.4145308  73.0820656  74.3054962
  38.9341140  72.7921343  72.9137516  16.0926151  40.7220745  11.5665329
  15.6350899  39.8987484  11.7369270  15.7613516  41.0084629  10.7153702
  31.2363124  80.5116463  85.3001022  31.9127750  80.4776382  84.6237373
  30.4322672  80.7201481  84.8244286  28.9218545  28.7216043  21.2548184
  29.5611382  29.1999316  20.7268524  29.3893695  27.9386783  21.5458274
  12.9041135  72.0476437  76.8002748  12.5226891  71.1743402  76.8901873
  12.1645546  72.6447821  76.9130135   5.0333667 103.7350941  91.8835545
   5.5417836 104.0746784  91.1470509   5.0451148 102.7853298  91.7650318
  46.6530323  69.5401144  71.2422323  47.5798512  69.7787237  71.2596560
  46.5434790  69.0649700  70.4185390  71.1650229   5.9560513  82.5544548
  70.4209375   5.8548623  83.1480312  71.7579365   5.2424043  82.7898121
  31.6402936  78.3069563  75.4028606  31.9044495  78.8900661  76.1145020
  32.4649549  77.9972649  75.0283527  65.5785561  87.0155334  80.5471611
  65.8496952  87.1127129  79.6343279  65.1064491  86.1831570  80.5694771
  13.6711907  22.8989053  18.0717921  12.9971552  23.2397819  18.6597633
  14.0190494  23.6741996  17.6311731  65.0580931  96.8882751  45.1372910
  64.6019888  97.7109623  44.9601316  65.7975769  96.8886948  44.5295143
  37.9958248  80.5106068  83.3712673  38.2740831  81.4101982  83.1993771
  38.7072802  80.1347542  83.8897228  18.4658349  97.4670696  73.0643368
  18.6588442  98.4029961  73.1192923  17.6903391  97.3498249  73.6130571
  41.6373062  28.5089493  79.7661972  40.8928490  28.9981890  79.4159651
  41.9914770  29.0720057  80.4545021  72.2405958  86.6233921  84.9343872
  72.7471876  87.0946693  84.2729568  71.7080069  86.0058975  84.4331074
  70.3389072   3.0791399  49.2345858  70.2516699   2.4581000  48.5114431
  71.2640810   3.0367300  49.4764280  28.2897639  98.4615993  92.3507690
  28.9991879  98.9708424  92.7427006  27.4967957  98.9554214  92.5594997
  11.7496300 109.3154907  57.8713369  11.0119534 108.8452625  58.2598686
  12.4815297 108.7011433  57.9273605  89.5317554  87.2848892  13.0279112
  90.3786659  87.7167988  13.1393778  89.6863079  86.3805771  13.3009970
   6.5576017   0.1752934  15.1188457   6.9606924   0.7485549  14.4668329
   6.4523673  -0.6627928  14.6685469  58.4693193  83.8080120  80.2897072
  57.9320383  83.5870075  79.5289755  58.9139462  82.9906940  80.5144978
   1.0286053  32.4445033  91.8179417   1.2798195  31.8873382  91.0812664
   1.7224425  33.1019711  91.8684959 115.7620049  45.6211853  19.5736325
 115.1519871  45.9775543  18.9277947 116.3979435  45.1277113  19.0556514
 114.5542431  12.9890871  25.6097198 113.6031914  12.8812337  25.5992079
 114.7001648  13.7769306  26.1333990  14.5682037 106.1561203  86.0514545
  15.1544130 106.9128227  86.0506439  15.0114572 105.5103493  86.6016674
  18.6816633  62.3660803  87.7826786  18.4884322  61.4440060  87.9520035
  19.2281353  62.3558998  86.9968700 109.5185852  71.9231367  93.5344315
 108.8269615  72.5043583  93.8507652 109.0525055  71.2216616  93.0795193
  59.1769695   2.4937558  88.6000347  58.4649467   1.9976534  89.0039349
  59.9732971   2.1209420  88.9783192  16.3821018  84.6356583  90.4183006
  16.4692318  85.5881119  90.4567146  15.4434359  84.4853401  90.3063107
 103.4719753   0.0005946  90.4928303 103.7296486   0.4482000  89.6869183
 104.2262173   0.1001106  91.0737324  56.8667126  99.7487640  14.0928626
  56.9430828 100.1631451  13.2333922  56.1835051  99.0878773  13.9802623
  61.6327763   6.7691916  78.5898829  60.8345222   7.0727229  79.0221930
  62.3412418   7.2128206  79.0562582  71.6857433  41.2467623   3.3257106
  71.6087961  41.6573191   4.1869628  70.8152819  41.3381433   2.9381853
  43.7848949  73.1278038  94.3272400  44.6566391  73.5225534  94.3487930
  43.2640839  73.6645555  94.9246502  89.6031475  19.9063945  78.1398058
  89.9881554  19.0626609  78.3766890  90.0685215  20.5428553  78.6825466
  20.0080562 103.2186127  93.9508629  20.7146883 103.3940887  93.3294868
  19.5641232 104.0604973  94.0527248  94.5843983  21.5639424   0.0046212
  94.9016953  22.0079565   0.7910112  93.6331367  21.6642022   0.0402918
  29.3347764  73.3499908  79.2401361  29.3599558  74.3034649  79.3206692
  28.4328222  73.1548357  78.9859200  93.5775375 109.0952110  31.3524795
  93.6824703 109.1479778  32.3024440  93.0901718 108.2837868  31.2100482
  19.4708443 105.1601505  85.3458977  19.3766594 104.4381905  85.9672832
  18.5831261 105.3161335  85.0236225  65.9861612   6.8426424  13.6375868
  65.4455233   6.0914409  13.3933687  65.4533577   7.6049167  13.4111071
  15.9820855  83.8144112  60.2086782  16.1815882  84.7201443  60.4455137
  16.3174677  83.7205601  59.3170834  26.6849661  90.3816605  65.0116682
  25.9582663  90.7746220  64.5282173  27.4699569  90.7347298  64.5929050
  37.6665545  64.4633436  77.7145147  37.1087337  64.7614765  76.9960546
  37.7173805  63.5143375  77.6003551  87.9710102  36.1071348   3.3572853
  88.7816715  36.4013386   3.7726212  88.1590652  35.2131557   3.0715072
   7.7435696  31.6519904  11.0737920   8.1998694  32.4921060  11.1209977
   7.7638340  31.4202642  10.1452851  35.3951359  93.1822777  66.7012882
  34.6427035  93.5644245  67.1530008  35.3867555  92.2606087  66.9595146
  15.8653879  65.0056458  64.1218662  16.0934401  65.8918524  63.8410568
  16.5333712  64.7802114  64.7693300  13.7890041  38.4049487  26.2885070
  14.1470420  37.9990649  27.0779991  13.4067512  37.6775861  25.7975292
  80.1811790  19.3088627   2.0453489  80.5058861  18.4619176   2.3511027
  80.6724548  19.4776535   1.2413647  21.7249775  88.0851555  79.9799538
  21.1860681  88.3789635  79.2454576  21.8349147  88.8653374  80.5235100
  97.4299717   2.0582354  79.6914721  96.8044472   1.3863283  79.9625826
  97.9993916   2.1761164  80.4517937  49.7468042 104.9718285  86.5094280
  50.2129126 104.6066761  85.7573414  49.4814539 104.2074871  87.0209026
  49.7903538 102.5439644  84.2653942  48.8940477 102.2325993  84.3915462
  49.9518824 102.4355698  83.3281708   3.4364393  33.7335801  89.4250011
   3.1594533  34.6476865  89.3623829   4.2494980  33.6946440  88.9213657
  51.8835163  64.4394875  88.2166386  52.7313089  64.1907072  87.8484154
  52.0054054  65.3425074  88.5097790  91.8565559  35.4837537  24.3393874
  91.0727310  35.0186872  24.0468669  91.5212631  36.2202263  24.8506761
  99.6779823  48.1348658   1.3207600  99.8508453  48.9718103   1.7518936
  98.7232208  48.0757284   1.2865999 103.0794334  50.2212143  15.5750275
 102.4647808  50.7746887  15.0932574 103.3694077  50.7659388  16.3067484
  16.9801486  59.3146420  85.1705456  17.6802945  59.6291685  84.5986176
  16.2412965  59.1601324  84.5819378  82.4070740  11.2938511  29.1181326
  82.9276371  12.0861173  29.2506576  82.7681541  10.9000885  28.3238983
  79.4016647  29.0255761  86.8893051  79.1291904  29.9407101  86.9565487
  79.9239779  28.9894485  86.0879803  36.3669729 103.3811665  67.2637653
  36.4609241 104.2555809  67.6416636  35.4224753 103.2651711  67.1603012
  31.3773870  85.4333878  59.2781973  32.0888472  85.2506256  58.6644745
  31.7396450  85.2147865  60.1368046 106.2491322  27.4245143   4.3269137
 106.2444782  28.0238223   3.5805616 107.1700191  27.3661518   4.5814767
  37.2248173  77.7175903  92.8503227  37.5629258  78.3509874  92.2172928
  36.4940190  78.1684494  93.2732868  61.3500309   2.1902704  47.6171923
  61.4180470   1.4857017  46.9728422  60.8297729   1.8154809  48.3278942
  21.3438988  93.8434696  84.7685814  20.4680586  93.6575508  84.4301033
  21.7323613  92.9808998  84.9145222   8.0866075  67.9755831  90.1502132
   8.4694004  67.9677105  91.0274982   7.9938245  67.0508575  89.9210644
   6.7618561  58.2143068  88.1190586   7.5156242  58.7581968  88.3476448
   6.1656821  58.8098431  87.6650238  14.9025285  20.6466579  14.4866800
  14.9035549  20.6433392  15.4438734  15.5331838  19.9686611  14.2441392
  41.7286158 100.3137684  60.5761099  41.1438084 101.0543537  60.4156113
  42.5996590 100.7056427  60.6389618 114.8572922  50.1995659  74.2138863
 114.1226196  50.1268768  74.8231506 115.5543900  49.6816063  74.6163845
  57.7752399 109.3893147  85.4541016  56.9226551 108.9637756  85.3633308
  58.1796455 108.9573574  86.2064934  11.1605299  82.3361874  37.7223563
  11.8154883  82.5369072  37.0537972  11.6251111  81.7899513  38.3564091
  34.3245745  98.0761433  77.4839067  34.7121668  98.3884811  78.3014965
  34.0431833  98.8721085  77.0328140  35.2343154 102.1369648  78.1385756
  35.8403993 102.8303909  78.3994579  34.3786383 102.5650215  78.1099415
  39.4387603  78.8910246  67.4912357  40.2234888  78.3917999  67.7175236
  38.7200308  78.2673454  67.5945902  74.7769213   8.5883194  93.1158924
  74.3736267   8.6763245  93.9795113  74.1176796   8.9238381  92.5083828
  14.9038732  62.2443151  30.2164221  15.7999742  62.1238041  30.5306053
  14.7275269  63.1760168  30.3470635  36.4853668  30.5197239   2.4350725
  36.3830018  29.5681334   2.4198733  36.0377169  30.7960296   3.2347584
 100.5689907   3.2002795  75.3441763 100.4336452   2.8631026  74.4586134
  99.9729824   2.6869449  75.8896065  54.9887943  26.5471172  11.4926016
  54.3503952  27.0547867  10.9916580  55.7542467  26.4934444  10.9203780
  91.8829250  39.0250683   5.2484387  92.6761627  39.1935515   4.7398856
  91.3967800  38.3848262   4.7288445  63.4971094   3.6988318  43.5463190
  64.0266132   3.2160735  42.9116488  62.6657438   3.2252473  43.5741663
   4.1190660  92.3640060  75.5794239   4.4889098  91.4827538  75.6325960
   4.0696278  92.5467968  74.6411419  37.9759884 108.8850021  76.3485003
  37.7323675 108.0653954  76.7787600  37.6430440 108.7949562  75.4555988
  99.0226364  37.1392488   0.9261372  99.0798092  36.1925125   0.7970836
  98.3842754  37.4315429   0.2755257  22.1612477  98.6476421  87.3468113
  21.8160653  98.5944843  88.2380199  22.3953962  97.7460575  87.1264744
  23.9113903  45.2090168  70.2621698  23.8007426  46.0539770  70.6980944
  24.3831396  45.4157162  69.4553471  12.7980530  10.1662207   1.7776237
  12.1653533  10.6805265   1.2762138  13.2811582   9.6703327   1.1166120
  58.5506535   1.9346888  69.3416786  58.9703751   2.2961490  68.5610294
  57.6614761   1.7214966  69.0585709 108.9988995  85.6276417  70.2753115
 109.4192600  84.7917461  70.0733089 109.7253799  86.2216091  70.4641342
   1.6495439 104.9135303  81.6126347   2.1053535 104.2371845  82.1136570
   1.1531921 105.4035854  82.2681522  21.9744635  58.0303335  80.9661007
  21.7367315  57.4348068  80.2554226  21.1547518  58.1806087  81.4369774
  27.8414917  83.9125538  82.7226639  28.2054853  84.7772598  82.9124832
  26.9185901  83.9823151  82.9668236  32.3452139  57.8816891  85.3843880
  33.2754922  58.0135918  85.2015877  31.8955207  58.4555006  84.7641087
  17.6108551  78.8158131  85.1003361  18.3934402  78.4303761  84.7063351
  17.3026633  78.1530714  85.7184124  60.8923531   4.4731671  76.7535734
  60.5737352   3.7466216  77.2891569  60.9553003   5.2095318  77.3618793
  26.8208790  46.4337921  58.7955141  27.5427818  45.9612179  59.2099524
  27.2105622  47.2577047  58.5030270  38.9370608  86.2197113  80.6882000
  39.5086193  86.0470963  81.4363670  38.1082249  85.7996655  80.9180450
  74.9562359  48.7508774  23.2101631  74.1718721  48.2274961  23.0455947
  74.9408913  48.9154530  24.1529822  74.0079212   5.0735295  74.5892954
  74.4799995   4.9644145  75.4148054  74.6482992   4.8458534  73.9152718
  63.1663036  50.2829599  12.9426146  62.9991150  50.8150387  13.7205458
  62.5546694  49.5504761  13.0174518  10.6408370  54.1789293  16.8544400
  10.3830528  54.4835663  17.7244842  10.2223504  54.7936106  16.2517214
  39.6407223  81.5651608  67.1280479  38.8064289  82.0179653  67.0049143
  39.3970966  80.6533527  67.2876501  20.5684829  78.1354237  49.9831867
  20.6494212  77.7129269  49.1280985  21.4687991  78.2103586  50.2994919
  75.0523281  57.3350763  20.8996391  74.5825243  57.2234583  21.7261124
  75.5042696  56.5018368  20.7666159  37.7810025  95.2889729  90.0784397
  38.5787082  95.6370735  90.4768372  37.0891309  95.8831406  90.3691483
  43.6133718  43.2906437  28.7462759  43.3069038  43.6880398  29.5613766
  44.0088940  42.4622774  29.0175819  36.0291791  88.4682655  80.9935856
  36.7051482  89.0098667  81.4009762  36.3651204  87.5745296  81.0615730
   8.8084292  50.0638771   1.4531231   9.7087413  50.1064110   1.7753968
   8.3611053  50.7848358   1.8962395  37.2851086  50.3919363  81.3695717
  36.3559127  50.4973888  81.5738010  37.7018332  50.2453136  82.2187328
 103.3385849  68.6838198   0.2270112 102.7210903  67.9764462   0.4128931
 104.1467857  68.2364845  -0.0238616  41.5149927 101.1916161  92.6912022
  40.8230972 100.7038879  93.1380081  42.3283958 100.8070564  93.0179024
  18.3101737  78.8650608  81.4971352  17.5712168  78.8629389  80.8887100
  18.0691373  78.2272291  82.1689224  49.6797943  77.0121479  92.7247906
  49.9228287  76.1608410  93.0887127  50.0696945  77.0190668  91.8506241
   4.8281360  31.7382765   6.7280203   5.2448094  30.9334087   7.0359248
   4.3735585  31.4809418   5.9259164  20.8770370  80.6291008  86.4961529
  21.6078973  81.1214924  86.1224937  21.2445045  80.2076054  87.2730350
  58.1612492  98.8311958  77.3803997  57.9540730  99.5852089  76.8283319
  58.8163376  99.1584682  77.9968262  25.3147435  72.5886679  87.9523945
  25.4868579  71.8372917  88.5198879  25.2537632  73.3324957  88.5517597
  22.0889640  87.2764778  68.7908268  22.4321437  87.8407764  68.0979919
  22.5896597  86.4648247  68.7086582   5.6993026   4.1521031  72.6114225
   5.2778363   4.7632113  72.0071507   6.0716522   3.4750733  72.0464277
  29.5028996  93.3342552  93.0407906  28.9124370  93.6863804  92.3747635
  28.9225912  92.9294109  93.6854458  39.3150997  48.2241297  77.5836658
  39.1696215  48.4112167  78.5110617  38.9664388  48.9898872  77.1272850
  88.5785294  30.9554887  38.0621123  88.4299469  31.2777925  38.9510870
  87.8217602  31.2661648  37.5651002  15.7892358 107.1799183  71.4498997
  15.2909958 107.8765869  71.8772745  15.2577841 106.3937664  71.5753937
  67.8116798  25.8801222  11.9777441  67.9920721  25.7706356  11.0440934
  66.9033337  26.1799860  12.0126319  48.4155846 102.3826218  78.9715004
  49.0072107 101.6381931  79.0812397  47.5734806 101.9879436  78.7449646
  89.5489693  33.7135816  10.8746111  88.6652660  34.0696549  10.7823133
  90.0443554  34.1139579  10.1601017   9.1174090  65.8308029  80.3682518
   9.8317015  66.1984634  79.8478270   9.4442517  65.8455610  81.2678051
  27.3537588  74.6839762  88.9497089  26.7971492  75.4499435  89.0901089
  28.0984473  75.0175381  88.4493065  36.3752055  74.9738693  93.1494331
  35.5934691  74.8713446  93.6922073  36.4799237  75.9207964  93.0567265
   8.4064561  34.8306632   1.1146739   8.2451069  34.8297668   2.0581767
   7.8862095  35.5626750   0.7834117  28.6877418  87.6106548  66.1105442
  28.4981132  88.3705807  66.6608047  29.1297245  87.9746723  65.3434944
   3.1979424  38.3247352   3.8751271   3.2075205  39.2285299   4.1902417
   3.1220415  37.7951384   4.6688503  25.4593015  63.3186913  87.1719933
  26.1073160  62.6186991  87.0925236  24.7374701  63.0420732  86.6074848
   8.4863973  85.8446884  94.2025852   8.4061736  86.7659569  93.9554882
   7.7357268  85.4193020  93.7881279  55.6983757  27.2712636  15.3301013
  56.0418892  28.1088161  15.6411278  56.4693451  26.7088032  15.2561212
  71.4183760   0.8079150  83.9435959  72.1768522   0.3097983  83.6389256
  71.2820196   0.5103679  84.8431015  24.1845608  97.7772045  69.1586161
  24.2099690  98.5799694  69.6793461  23.6826086  97.1612644  69.6923733
  37.1882343 104.6893120  91.1811066  36.9424748 104.1043472  91.8978024
  36.3582850 105.0552177  90.8752823   1.1918176 102.2690773  92.5355339
   0.5479608 102.2979641  91.8278313   0.6875060 102.0133114  93.3078575
  13.2504106  95.6477737  63.1397438  13.9137495  95.3036976  62.5415611
  13.0868864  96.5383720  62.8293943  40.7439423  54.3262291  64.4528103
  40.7429838  53.7155247  63.7157393  40.2996922  53.8531399  65.1564121
  90.0431156  24.3892312   7.9127729  89.6873093  23.7013483   7.3502332
  89.5712662  24.2903352   8.7396985  34.6021438  86.9428730  58.6057568
  34.4991708  87.1583748  59.5326805  35.2267408  87.5896454  58.2774401
  40.8255100  84.4168377  78.0035830  40.6759548  83.8887787  77.2193527
  41.0226345  85.2917957  77.6691723  64.9653196  15.9441769  76.0334253
  64.1179276  16.2087119  76.3914537  65.3548002  15.3994608  76.7174006
  42.2875118  87.5790024   4.4934136  41.8028736  88.1760406   5.0634086
  42.2742605  88.0033016   3.6354944  40.5063009  76.9606304  77.9048729
  39.8064780  77.6136780  77.9023886  41.2089491  77.3644733  78.4142113
  16.9727254  86.8059921  88.2278347  17.6427054  87.0321083  88.8729954
  16.8529403  85.8615971  88.3278751  25.4747438  98.0543995  64.8560333
  25.6327963  97.7194405  65.7386732  25.9365535  97.4435139  64.2817640
 115.2834797  49.5808840   1.5095977 116.1708450  49.5896673   1.1507768
 115.3171062  50.1907349   2.2466066  19.1272700  44.7230577  19.4061196
  18.1870544  44.6128225  19.2644358  19.4629359  45.0247765  18.5620070
 105.0574112  71.0195255   1.9331527 104.5341015  70.6439877   1.2250997
 104.8069096  70.5172205   2.7085036   6.1158603  45.4759741  85.6934166
   5.9698081  44.7948313  85.0369549   6.2389427  44.9965572  86.5127087
  23.5071135  89.3944454  82.6109409  22.8006601  89.8492813  82.1523857
  23.6968279  89.9484444  83.3681297 112.0495510 100.2235794  91.3794804
 112.1205902 100.2143764  90.4249573 111.5415859  99.4399166  91.5894127
  49.9704313 102.0962429  81.6245556  49.6374655 101.2107182  81.4789104
  50.0898123 102.4548912  80.7451534  40.3635693  67.0530796  82.8970909
  40.5175829  66.1427164  83.1495857  40.8427477  67.1580124  82.0751381
  45.2046728  97.3185062  92.6870060  45.5943966  97.5720596  93.5237026
  45.9395790  96.9866085  92.1712685  89.7766113  45.7518387   0.3394676
  89.5367527  46.1236286   1.1882737  89.9635696  44.8316431   0.5252602
  50.5264330 109.3633652  12.7668142  51.1794281 108.7832546  13.1583571
  50.2650404 108.9197159  11.9599164  39.7263598  76.8681335  93.8954544
  39.4800115  75.9473467  93.9831543  38.9453530  77.2922039  93.5398865
  15.7643259  87.9846001  82.0398617  15.0075293  87.4726963  81.7544746
  15.9192717  88.6019516  81.3249397 104.9423313  40.7756472   1.1084713
 104.2347527  40.8376026   1.7501256 105.3707027  41.6310310   1.1409674
 102.2156715  32.9396462  18.0540073 102.8838730  32.4413943  18.5246348
 102.1456337  32.5036693  17.2047424  29.4787812  81.9143677  83.4807777
  28.8703156  81.2078381  83.2644081  29.0068150  82.7152252  83.2524967
  45.8401871  83.6493301  69.8198318  46.2919331  83.3664513  70.6149006
  45.6506634  84.5756817  69.9687433  27.9128766  80.6617928  62.4385548
  28.1312490  80.9875870  61.5653992  27.7040005  81.4484024  62.9423857
   7.5734204  59.0923166  59.3421173   7.0262086  59.0564680  58.5575771
   7.3919719  58.2706881  59.7984457  20.0190020  47.8373241  68.8186359
  19.5460367  47.1739531  68.3161688  20.7963681  47.3828268  69.1432285
  70.1607847   8.8618225   1.3057531  70.5298662   9.4396704   1.9736606
  69.5675564   9.4222194   0.8054811  34.4909096  71.4769697  68.7689209
  35.2160645  70.8663797  68.9014482  33.8064551  71.1684418  69.3626928
  37.1108675  78.1826019  89.1212368  37.7055311  77.4772167  89.3762589
  36.3561058  77.7336550  88.7404346  20.0749731  53.3563328   2.2354560
  19.3517590  53.8881350   1.9032243  19.6516311  52.5850534   2.6124755
  98.4557533  92.9888153  74.5672607  97.9152489  93.0053616  75.3570843
  97.9002285  92.5769329  73.9054632  64.3796349  98.1946087  72.9255295
  64.1463947  98.8452244  72.2633123  63.5836220  98.0866814  73.4460545
 114.6802616  13.3935690  29.0129662 115.3181171  12.7226281  29.2562890
 115.1528645  13.9651048  28.4078026   5.7342011 101.2728786  90.8138180
   6.2840134 100.8522701  90.1527405   5.6540668 100.6200981  91.5092945
 113.8230515  83.2434368  93.9145756 113.0517006  83.7727165  94.1173172
 114.4734669  83.8754463  93.6083984  19.5802224  44.7367096  71.7046547
  19.0442014  44.5141411  70.9434891  20.3883696  44.2385244  71.5824175
   4.0013692  29.9847817   1.2313719   3.2405770  29.5778131   0.8168810
   4.2506915  30.6901574   0.6342827 100.5791187  90.3778172  22.0918322
 100.5391026  90.5940914  21.1602449 101.4553928  90.0130367  22.2156000
  25.0158072  84.4870567  76.9263506  25.5152082  84.7190857  76.1434126
  24.3222117  85.1451588  76.9717932  43.7061501  85.2523136  87.1292210
  44.2521715  85.7802677  86.5466785  43.5277271  85.8253479  87.8748798
  31.8924856  94.4128513  59.5372581  32.3437834  95.2393532  59.7088814
  31.9252992  94.3151569  58.5856199  31.0360432  69.8187351  85.6436443
  31.1867428  70.7129860  85.9499741  31.0857272  69.8807526  84.6897507
  11.2479103  93.9845467  78.8310480  11.3464177  93.8600826  79.7749949
  12.1440244  93.9839458  78.4945774  44.1127825  63.7398958  78.0893326
  43.2484579  63.4411669  77.8065968  44.5513582  62.9468155  78.3973980
  17.7143753  86.4330387  83.1662750  17.3461103  85.8143234  83.7969971
  16.9512153  86.8269539  82.7436066 111.3520241  46.3915205   9.1204095
 110.9273243  46.0696745   8.3252513 111.7421341  47.2266579   8.8623446
  67.3847151  93.0977726  86.0282230  68.2021761  93.5154724  86.2993526
  66.9511700  93.7526035  85.4809761  34.8956585  85.8133793  63.0682039
  35.1628184  86.7310810  63.1199694  34.9450135  85.4982853  63.9707041
  60.8414412  68.4123802  93.0787945  61.3347197  67.8703785  92.4630547
  61.5085840  68.9286232  93.5311699  16.0919094 102.9117203  71.7868280
  16.8498027 102.9676914  71.2048531  15.4512393 103.5111237  71.4040804
  55.0417089  11.7397261  11.8175232  55.3495216  12.3453474  11.1432040
  54.1158152  11.6060734  11.6148233  31.7009282  74.3415403  94.1797924
  31.6332507  75.2955389  94.1405296  31.4258003  74.1182995  95.0690079
  28.5081983  57.7167320  71.0244560  28.1201577  58.4037256  70.4825163
  28.6784101  56.9984531  70.4150820  21.4847159  60.5488682  89.6126080
  21.3881063  61.3862085  89.1590118  21.0372686  60.6765890  90.4490948
 105.4443836  25.9969234   1.6837956 105.8759689  25.6899190   0.8864770
 105.4646683  26.9514179   1.6147859  92.5434971  26.2021065  22.4753618
  91.6894627  26.1455011  22.0468068  92.3742867  25.9444165  23.3815598
  56.6300631  89.6651077  69.6385908  57.5432491  89.8195171  69.8804283
  56.1829424  90.4828358  69.8568296   8.6528718  30.6713891  43.7967825
   8.2553363  29.8592138  43.4828281   7.9716444  31.3331747  43.6776114
 105.1357079  74.7075605  84.8841667 105.5936813  74.3285656  85.6344032
 105.2744389  74.0785360  84.1761303  24.5977616  44.4240236  78.7722540
  24.9335766  44.2519665  79.6519470  24.6003175  43.5683250  78.3432961
  19.1798902  65.9175491  78.2408714  19.9361539  65.7479906  78.8026047
  19.5364285  66.4095449  77.5012398  77.6242399  56.2932587   1.9006491
  77.8440571  56.3570166   0.9712151  76.9412041  55.6238174   1.9398494
 112.4969196  63.6799622  75.3521967 113.0144119  63.0774403  75.8864260
 111.5996838  63.5685492  75.6665134  85.4853916  27.9308248  28.0107498
  86.0084724  27.1379662  27.8924322  84.5817089  27.6178074  28.0508232
  57.2423315  95.6507683  68.9188290  57.9553652  96.1794949  68.5606861
  56.7476702  96.2574291  69.4697428  10.7427573   5.6818378  63.6190748
  11.1872292   5.2361542  62.8979349   9.9831909   5.1312280  63.8091230
  45.9733963  92.3837662  83.8407612  45.0779676  92.6141548  83.5930634
  46.4562225  92.3766708  83.0142879  41.8255615  76.9139242  65.6782722
  42.7796745  76.9293928  65.7535696  41.5124607  77.0602798  66.5708971
  39.3527150 108.5635090  81.5442848  39.9770188 107.9061413  81.8514252
  39.0412211 108.9895535  82.3428440  60.0892925   5.5147976  41.8990660
  60.6275558   4.8946318  42.3908997  60.7094193   6.1716843  41.5825558
  47.4131346  86.0389423  89.4703579  47.0962811  86.1281681  88.5715389
  48.2599545  85.6012440  89.3834496  31.6838741  34.0199900  17.0886874
  31.4385009  34.5620441  17.8384876  32.5007629  34.4052792  16.7717135
  45.7630205  26.9681358  87.1473694  46.1286211  27.0295763  88.0298615
  44.8848009  27.3407817  87.2254658  10.8674383  93.0580425  74.7951412
  10.5190217  93.7072277  74.1840792  11.2603855  92.3886108  74.2350721
  43.8157177  76.0961533  78.3274841  43.4987450  76.9300175  78.6745071
  44.7232580  76.2701035  78.0777979   0.6027339   7.3571527  36.1912727
  -0.1423923   7.6534480  36.7139840   0.4274219   6.4304006  36.0280871
   4.8596779  24.5065904  81.5563679   5.4041904  24.7335100  80.8025455
   5.4833889  24.3661499  82.2687531  12.4052870 100.7741451  63.6661577
  12.9551840 101.5229225  63.4355354  13.0160642 100.1293659  64.0231419
  99.7190189  49.0581656  13.7778306  99.8096752  48.1065845  13.8279390
  99.9646854  49.2751408  12.8784966  26.3571739  18.5156608  90.9032440
  25.8474398  18.7262928  91.6855717  26.3784552  19.3322098  90.4042149
   2.2277717  82.4332714  14.6738648   2.4030456  83.1085873  14.0185368
   2.6830214  81.6576385  14.3461776 108.0629826   4.1508117   0.7772066
 108.4311199   4.2888108  -0.0955247 107.1478939   4.4197434   0.6964170
  74.5223761  59.3481064  12.6479471  74.5591068  58.5970974  13.2402897
  74.0844297  59.0143919  11.8649602   2.8837079  59.6632767   3.2098690
   3.3887610  59.7112417   2.3981717   2.4940050  58.7890768   3.1981757
  85.9247494   3.5808808  93.7389946  85.8648300   3.4468058  92.7931213
  86.2730217   4.4674352  93.8336468  31.7303705  55.9213638   5.4694146
  32.3767948  55.2179813   5.5295444  31.7198062  56.1583185   4.5420671
  83.7022209   4.9113798  89.3862534  83.6804295   5.5946290  88.7162304
  84.3555832   4.2871159  89.0705776  11.5814936  42.4203396   2.9232395
  11.1517620  41.9838810   2.1876666  12.1474123  41.7482615   3.3030814
  29.7969890  94.4493484  61.3699055  30.5312061  94.4271851  60.7561731
  29.9809098  93.7428665  61.9890022  14.7381699  34.4395542  10.3908384
  14.5820737  33.4991908  10.3037822  15.6907046  34.5207882  10.4389000
 101.2756348  62.0166302  17.7780008 101.2438965  61.1206627  17.4426425
 100.4510689  62.1242809  18.2520604  52.6750422  87.5111198  83.0590534
  52.1463394  86.7701340  83.3551216  52.6253653  88.1426811  83.7766075
  33.4567380  43.0045986  -0.3211815  33.9330673  43.7278366   0.0865800
  33.0572391  42.5371408   0.4123798  60.1892996   5.4423207  69.0827608
  60.3154135   6.3897836  69.0313673  59.2645311   5.3120530  68.8728428
  36.3484049  67.3916721  85.1485920  35.7156563  66.6894627  84.9977112
  36.2425327  67.6148605  86.0733604   9.3290943   6.9900900  73.4488058
   8.7565660   7.5828862  73.9356709  10.1640773   7.4548709  73.3939028
  64.7557878  73.4291935  73.2196712  64.3742514  73.7846136  72.4169683
  64.5704937  72.4910259  73.1779575  91.3479900  -0.0784591  84.9781322
  91.2869548   0.7480713  85.4570389  90.6428050  -0.6164364  85.3380203
  37.8910398  79.6340513  86.4173985  38.4618306  80.3999138  86.4796638
  37.2557640  79.7507238  87.1238232  82.9302502  12.9770505  67.6658678
  82.6396751  12.5673270  66.8510532  82.3904419  12.5708604  68.3439875
   3.1780663  40.2655745   5.7831985   3.3263150  39.8111677   6.6125172
   3.7811732  41.0085201   5.8060235  39.7900534  98.8030434  37.7993441
  39.6609974  99.4593620  37.1146321  40.5833721  99.0848923  38.2547998
  64.4531918   0.2874002  67.1631861  64.3472624  -0.4058721  67.8146362
  64.4981718   1.0938673  67.6768208  11.1810720 103.5139656  83.0432987
  11.1647689 103.0633831  82.1989441  12.0542467 103.9033222  83.0901814
 104.0495205   8.1146270  65.0840330 103.4620380   8.8554049  64.9345493
 103.4683514   7.3564690  65.1446342  45.3719664  97.4247742  71.9209290
  45.0741053  98.3103371  71.7128420  46.2365294  97.3613167  71.5150499
  26.1237955  45.2710772   1.2027133  27.0721769  45.3972864   1.2323472
  25.9848642  44.4073439   1.5911590  77.8996181  92.8625870  59.6954823
  77.1351051  93.1167793  60.2123308  78.5833549  93.4777069  59.9607468
  22.5468659  57.7764130   4.5687732  22.8359270  58.4032106   3.9055958
  22.3088050  56.9940710   4.0712851  84.7199726   4.1996828  67.3087549
  84.1435814   4.9207014  67.5620127  85.2024937   3.9868683  68.1075764
  48.1944513   2.8007692  82.9104805  48.1954145   1.8642242  82.7127075
  48.4741163   3.2179287  82.0956230   2.3400085  46.1384869  17.5574613
   3.1815791  46.5925074  17.5143898   2.4475935  45.5010843  18.2634187
  38.2000828  96.0832310  64.7560978  39.0850592  96.4090157  64.9201536
  37.6377630  96.8493176  64.8707056  38.4543061  57.1825743   8.1524068
  38.8206601  57.6424026   7.3970449  37.7580881  57.7582979   8.4687221
  40.8788586  83.7507343  87.9705811  41.5895605  83.6192417  88.5981464
  40.6739187  84.6836662  88.0328274  87.8823948  74.6610594  14.2382658
  87.5688648  74.5695925  13.3385086  88.5152626  75.3781509  14.1996396
  21.7508936  71.0240269   0.9510089  21.4422631  71.4746046   0.1649071
  21.7480969  70.0970411   0.7124189  53.5190821  76.8088102  90.3747559
  53.8373804  76.2935734  89.6335125  54.2423344  77.3999786  90.5837059
   0.7114533  91.9544983  55.7105303  -0.1797094  92.2974491  55.6438828
   1.0903910  92.1022987  54.8440456  71.5832949  28.5941792  55.4588985
  72.2491264  29.2013764  55.1360846  72.0522308  28.0285573  56.0724163
   1.9197145  65.9768343   9.1808432   1.8100348  66.7568588   8.6369979
   1.4455198  65.2897501   8.7125641  20.8952618  34.4075370  10.3227258
  21.0000467  33.5325027   9.9491435  20.3037381  34.8565412   9.7187984
  34.3093657  99.3618393  83.2096577  33.4905648  99.8568630  83.1822586
  34.9829197  99.9997616  82.9738235  83.7817383   2.8493011  91.4128780
  83.5564613   3.5868883  90.8459187  83.4512806   3.1005284  92.2753811
  43.0301285  25.8531618  66.3495827  43.6746407  25.1496243  66.2729406
  43.4751701  26.6248798  65.9994125  55.7699728 108.0370522  43.7364292
  56.3792181 108.7752247  43.7489748  55.0146294 108.3582687  43.2439756
  80.9503365  49.7649479   6.0031790  80.7382679  49.3850613   5.1505691
  81.2538528  49.0234756   6.5269440   6.7310297  76.1470795  58.1087446
   6.3703305  75.9245920  57.2504711   6.0689980  76.7116594  58.5077381
 103.9721680 106.3753700  92.0188332 104.0732479 106.8613338  91.2003899
 103.5131741 106.9803810  92.6015091  12.3358810  98.1057835  61.9285440
  12.4686849  98.8329124  62.5367165  12.9011571  98.3102798  61.1836433
  27.1102929  80.2556133  82.8779125  26.3233662  80.3747940  83.4096813
  26.8378019  80.4905033  81.9908905 104.0141678   7.9158330  50.2070189
 103.9430237   8.8524723  50.3910780 104.9498272   7.7277184  50.2803469
  55.3249884  82.6664162  79.9588966  55.3200865  81.8009472  80.3677559
  56.0584927  82.6369667  79.3446159  76.0718107  24.7596717  69.1542244
  75.6564808  23.9134336  69.3204069  75.5842018  25.3769946  69.6995544
  38.4264731 102.0642757  42.7910233  39.1804481 101.5709114  42.4679995
  37.7880335 101.3939190  43.0344296  68.7078714  14.8989189  74.8220539
  69.0990639  15.1920402  73.9990854  68.0545759  15.5674541  75.0282049
  36.3891935  99.6754074  85.8887672  35.8180118 100.3636551  85.5477428
  35.8235502  98.9061356  85.9559059  61.1797571  82.8600788  87.5034428
  61.6765165  83.6614513  87.3383427  60.5315304  82.8308487  86.7997456
   3.3629307  25.2532625   1.3651641   2.6187021  25.2840281   1.9663370
   4.1295305  25.3667116   1.9270237  35.9279966  49.4782162  56.9137716
  35.1212382  48.9668226  56.8517447  36.2893319  49.4639826  56.0275078
  46.9567204 100.2102375  58.1730127  47.7276611 100.3311825  58.7273216
  47.2854376 100.3126907  57.2798824  65.7033396  74.4746208  89.6033573
  66.1903667  74.3921757  88.7834549  64.7851944  74.5054150  89.3344879
  41.8188667  94.0122223  69.2922354  42.2821188  93.2991886  69.7317934
  41.7517614  94.6990585  69.9555445   8.9586473  31.8161154  81.2441444
   8.8352561  30.9998655  80.7596493   9.5996809  31.5984154  81.9208431
 115.5753708   2.5200397  93.3023548 115.5724144   1.7339361  93.8484859
 116.1964893   2.3223548  92.6013756  99.3059158  71.4572954  15.7815349
  98.9679623  70.5723286  15.9188724  99.1667366  71.6248512  14.8494482
  63.9977455  19.4903386  54.3396568  64.4749928  19.3674982  53.5190630
  64.1891718  20.3926897  54.5952940  92.9487514  80.2427769   1.0938372
  92.2656536  79.6230745   1.3499142  93.6942387  79.6921110   0.8545637
  33.8940835 107.6498318  73.9170551  33.4584117 108.2953739  73.3605480
  33.2545519 106.9438171  74.0107155  96.7804813   3.8813281  66.0316896
  97.0375156   3.8249117  65.1113701  96.2327099   4.6648201  66.0797882
  70.7413912  88.2660103  81.7794800  69.9517298  88.4086132  82.3013401
  70.5708885  87.4527073  81.3044071  12.8838348  67.2754097   6.1202288
  13.8205969  67.1546745   6.2755704  12.8342652  68.0226755   5.5241007
  99.7805023  41.4224863  23.2459283 100.5774021  40.9337521  23.4516764
  99.0709400  40.7978344  23.3961248  44.3823910  70.7289219  93.2583046
  44.1941118  71.5040350  93.7874413  43.5208607  70.3849268  93.0223751
  18.9587152  77.1024132  41.8181181  19.4021487  77.2221136  40.9783125
  18.1948316  77.6771879  41.7696905  30.1286840  45.0902939  12.0657396
  29.2570686  44.8137617  12.3486650  30.5559182  45.3926754  12.8671551
  52.2500372  17.8496397  85.5102253  52.6942825  17.5489128  84.7174835
  52.1632528  18.7955332  85.3919601  91.1650753  10.1321292  87.1229362
  91.7198944   9.4711006  87.5369930  91.5428066  10.2500403  86.2513542
   8.5071748  39.9755096   8.0142540   8.3096254  40.6909370   8.6187118
   7.8363335  40.0438118   7.3348874  43.5497141  22.9187369  83.4372044
  42.9580688  22.9992008  82.6890659  43.2118273  22.1712232  83.9304543
  90.4952145  84.2929363  28.7971020  90.3955746  83.4275341  28.4003854
  89.6005440  84.6230793  28.8795447   9.8761505  37.4259686  26.3105369
   9.5331681  36.5326142  26.2878871  10.7898879  37.3386717  26.0390711
  96.4395905  43.7076902  20.5285382  96.4308834  43.1410933  21.2999797
  97.3683834  43.8333035  20.3340936  76.2733603  32.1630216  93.7480640
  75.6333637  31.9711518  94.4334984  75.9589100  31.6789818  92.9844856
  32.6001954  82.1406174  14.9926221  31.9811249  82.6747608  14.4949555
  32.3641038  81.2380886  14.7782946  31.0458708  67.5172615  79.4172287
  31.1651206  66.7634201  78.8395309  30.9994340  67.1406126  80.2959824
  15.9492934  55.5221510   7.4091262  15.1226079  55.0499582   7.3098570
  16.3343346  55.5178022   6.5327954  96.1645508  64.9265337  11.0800588
  96.4184570  65.4553795  10.3236938  95.2151966  65.0334978  11.1392677
   7.6064426  32.4962926   5.0279886   6.7849189  32.6986456   5.4756314
   7.4007457  31.7381501   4.4810498  66.0654831  34.4690537  87.5548553
  66.6578388  33.7186408  87.5076962  66.6445684  35.2262020  87.6421356
  81.7877579  34.9727654  60.8053112  82.6274204  35.0151277  61.2629223
  81.9715786  34.4667459  60.0138664  92.1229649   7.5135630  47.8920889
  91.8775463   8.4237951  47.7263069  93.0019569   7.4313122  47.5221825
  75.7541561  23.3472085  61.0141802  75.9632254  22.7365494  61.7210150
  74.9800920  22.9718256  60.5944824  36.2595868  59.5861244  90.9271812
  35.9444356  60.4408789  90.6333923  36.2579727  59.6456766  91.8825340
  35.2033567  49.9921846  16.9520319  35.5069923  50.1498413  16.0580623
  35.8850598  50.3712225  17.5068688  32.3287582  72.6342630  63.3603191
  32.9893327  73.2172155  63.7345409  32.2159410  71.9471836  64.0171528
   1.6452125  19.8926914   9.9710846   1.5953983  20.8369040  10.1201272
   2.5830472  19.7016931   9.9563187  36.2632132  85.0196362  68.9155674
  35.4152584  85.0787258  69.3556976  36.5769124  85.9231758  68.8777304
   2.7420190  23.5110474  25.9293628   2.7254218  23.6544514  26.8756127
   3.6600694  23.3262730  25.7311845  25.0806880 103.0669308  82.7304554
  25.8516598 102.5095558  82.8361607  24.7206116 103.1476784  83.6136627
  82.2295475  19.6634555  21.9055843  82.1549797  19.3070674  21.0203385
  81.3522720  19.9887872  22.1074939  81.2674809  22.8358364  86.8989658
  82.0473671  22.7816224  86.3466358  80.7538319  22.0628667  86.6646481
  53.4816122  27.3001981  61.3788748  53.6705160  28.1928372  61.6682577
  54.2784786  26.8095136  61.5800238  73.9451981  21.1631751  78.3036757
  73.6796284  22.0661902  78.1296968  74.8265553  21.2389421  78.6693287
 114.2581844  76.7708826  12.7694440 113.6657715  77.5155497  12.8731215
 113.7206650  76.0922527  12.3610663 106.7996120  47.0466232  23.6574960
 106.4733887  47.4289131  24.4721532 107.6655579  47.4371099  23.5396004
  58.0031300   0.3476564  56.6611958  57.5952339   0.0400463  57.4706554
  58.9321423   0.4288928  56.8769789 103.3883190  31.3849092   9.6065229
 102.8915596  31.6368794   8.8280803 102.9737186  30.5748534   9.9034119
  73.2018709  10.9059536  88.7948895  73.3934689  10.2574778  88.1173992
  72.4359417  11.3766205  88.4661674  98.7154484  76.8873835  14.9365151
  98.5806751  76.2539673  14.2316377  98.5307407  76.3971376  15.7376242
  12.5097287  47.4247837   2.1829477  12.8083563  47.4601746   1.2742117
  13.2469249  47.0472574   2.6627883 105.8397579  47.5486279   0.7297713
 105.8508396  47.7718306  -0.2009761 105.4047489  48.2911110   1.1489666
  45.3298712  97.3845196  84.9943161  45.6334257  98.2923126  84.9936295
  45.8798647  96.9475746  84.3440723  46.3595581  95.6177044  64.2809057
  45.4675198  95.3615761  64.0466022  46.4003992  96.5530109  64.0814734
   2.3274064  64.7068119  23.1367517   3.1398004  64.5497465  22.6555276
   2.4430817  65.5738592  23.5254478  26.5828967  71.6672802  75.6122160
  27.3766875  71.3454485  75.1849556  26.1022711  72.1169043  74.9171877
  97.6071358   1.5479037  69.0823984  97.2757149   0.8963805  68.4644079
  97.0925140   2.3342086  68.9003849  97.3584270  81.6822433  25.9583902
  96.8890190  81.2845707  25.2250791  98.0007839  82.2601128  25.5464673
  85.2114010 107.7862453  52.6739359  84.3802643 108.2116222  52.8848886
  85.5251694 107.4450493  53.5114098  40.6485176  79.7210693  74.4580412
  40.4658031  80.2187252  75.2550220  40.3829575  80.3031158  73.7460518
  44.0975857  88.3020687  91.4303017  45.0398302  88.3548546  91.2702465
  43.8936710  87.3698902  91.3548183  96.2510586  43.9694929   5.8746850
  96.2934399  44.9250984   5.9100682  96.3076305  43.6932039   6.7893964
  94.9879456   5.0294077  89.4562149  94.2148590   5.0089961  90.0202560
  94.7946262   5.7079476  88.8093472  73.4678268  81.9479179  78.3433247
  73.2269144  81.0223007  78.3809233  74.1991329  81.9802189  77.7265739
  73.8616705  22.2343969  59.2689753  72.9088354  22.3222041  59.2940807
  74.0287542  21.6473675  58.5316086  91.5344620  20.7068276  80.4737377
  92.0635796  20.6159568  81.2662029  91.0479546  21.5210319  80.6026363
  92.0067978  17.6828575  61.3843250  91.3779449  16.9668067  61.2946320
  91.5337467  18.4567797  61.0785484 109.5219803  44.0516376   4.6753925
 109.4418621  44.6680021   3.9474460 110.3229141  43.5622120   4.4877729
 115.3937721  84.0676785  18.6993432 115.3789330  84.9187279  19.1372216
 116.2507534  84.0318584  18.2744431 103.1736660  67.8049946  19.4272602
 103.2929230  67.0846558  18.8082945 102.3932934  67.5648022  19.9268246
  21.2211514  36.7921829  18.2695556  20.6450963  36.2232471  18.7801480
  21.7237711  37.2750425  18.9256430  64.4263983 106.2162399  75.7183838
  64.5271158 106.1894798  76.6698933  63.6358500 105.7045650  75.5467272
   7.7911806  30.3724360  18.2866263   8.1194532  30.0611997  17.4430621
   6.8486494  30.4740024  18.1541443  92.3106670  24.9177456  54.7869825
  91.9183350  25.7468271  54.5132446  91.6443729  24.5081210  55.3387976
  78.5206366  72.5072622  22.4325991  78.2864380  72.5848579  21.5077424
  79.2770958  73.0843544  22.5373507  41.2833881  89.7646618  70.4160929
  41.1795759  90.6546974  70.7526684  42.0661688  89.8061180  69.8667526
  25.3106236  68.5353947  66.9089985  25.5291510  67.9283476  67.6160860
  24.8301101  69.2421722  67.3400497  47.5588560 102.6085758  69.5924520
  47.3286915 103.5193443  69.4087505  46.7281055 102.1361160  69.5389128
  83.7094307  59.1706085  21.4997435  83.2051945  59.9443960  21.2482715
  83.6006260  59.1119051  22.4489284  86.8901634  34.4083762  10.6471539
  86.4195919  33.7323189  11.1347425  86.2460327  34.7476029  10.0256610
  52.9427481  14.2445910  69.5847511  52.0187521  14.4593167  69.7126532
  53.2273197  13.8977945  70.4303217  16.7632210 107.0893192  75.7601070
  16.2580562 106.3913345  75.3431463  17.5668919 106.6604805  76.0541248
  23.3644271  40.7386684   5.6468242  22.7941132  40.0294828   5.3501272
  23.7200403  40.4276752   6.4793247  15.8636832 100.0540638  72.1269464
  16.7559147  99.7567463  71.9487429  15.8653665 100.9786606  71.8792582
  88.3224201   8.2027745  83.8225555  88.5909653   7.2904408  83.7141037
  88.1622028   8.5128516  82.9312515  22.4990702  36.5457010  20.8731127
  22.2241592  35.6765294  21.1650014  22.6743412  37.0258236  21.6824293
  30.2831602  67.2230387   4.8760325  29.6691632  67.8887796   4.5661420
  30.9835315  67.2208977   4.2235714  69.5769167  84.6515369  67.1459246
  69.0271568  84.3079948  66.4416695  70.2523136  83.9846230  67.2695589
  81.5328217  18.2184875  66.9875288  82.4314690  17.8888643  66.9856024
  80.9920406  17.4389386  67.1143818  94.2354965  29.7467685  13.2046306
  94.2099857  30.6896830  13.0418670  93.3461666  29.5275617  13.4826255
  83.9576340  29.7511411   9.6458387  83.1341267  29.5283675  10.0799394
  83.9405727  30.7055736   9.5751441  40.7681036 106.3376713  79.2169046
  41.6730499 106.2632847  79.5198441  40.4234362 105.4463100  79.2708445
  34.3871450  81.8635941  78.3186340  34.8816204  82.0998669  79.1034269
  34.3652177  82.6668358  77.7984905  30.9786916 104.8173332  71.0976744
  30.4716778 105.2386284  70.4036427  30.4462099 104.9295712  71.8851376
 105.2948189  44.1845846   3.4711057 105.6024647  43.3414888   3.8039285
 104.4208717  44.2864084   3.8480443  45.6181145   5.7742560  75.1542711
  45.9174919   6.5523767  75.6245184  45.0091648   5.3490114  75.7580757
  59.2160940  26.6594267  80.1926804  58.9329004  27.4706793  80.6144619
  59.4638109  26.9239235  79.3067265  95.4826927  10.9859836  83.8421822
  96.0382462  10.6585300  83.1348133  95.9382725  10.7280076  84.6435070
  78.7071133  99.2647552  61.5725422  78.7301540  99.9885178  62.1985388
  79.1049910  98.5306168  62.0404720  49.4582415  85.7869244  82.8659630
  49.7970724  85.8032703  81.9708920  50.2399492  85.7993889  83.4182453
  31.8605304   3.0645055   9.2874163  31.0858464   3.2044214   8.7428802
  32.5593948   2.8677356   8.6636370  43.1725883  92.8236008  65.5704260
  43.2824278  92.1085930  64.9435806  42.3327160  92.6445198  65.9932518
  13.2671452  21.2792277  85.3200340  13.8369918  20.6170058  85.7111454
  12.4426961  20.8205342  85.1584244  23.8896155  64.0799665  32.3251891
  24.3169618  63.4781837  31.7157149  24.6118879  64.5289946  32.7644253
  70.8433914 101.6329670  70.1332998  71.4643955 101.7928886  69.4226599
  71.2683105 101.9981194  70.9094048 111.3141155  82.1198559  41.3501740
 110.6484127  82.4567223  41.9498348 111.4040565  81.1966228  41.5863419
  25.1744533  73.7677622  70.6683064  25.7623577  73.2687712  70.1011992
  24.4692326  74.0553141  70.0884724  63.6108112 104.5061111  84.1458797
  63.1447124 104.8374176  83.3782768  63.0815840 104.7934437  84.8899174
  41.6455221  94.5464134  44.6102762  41.1614466  93.9711094  45.2026701
  42.3554897  94.8995972  45.1464081   1.2528077 104.5831108  75.0393248
   1.0862300 103.8212967  75.5944204   0.3872200 104.8443604  74.7250986
  39.2443705 105.1517963  81.7902374  40.1845932 105.1446819  81.9695663
  39.1812110 105.3169250  80.8495140  74.6107721   4.2512980  84.4533539
  73.6919165   4.0705365  84.2552090  74.6165371   5.1597345  84.7549248
  28.9486647  72.0611143  90.4717636  29.4264913  72.8790998  90.6089211
  29.6252680  71.4240551  90.2424335 113.5808945  54.2283344  25.3849721
 114.0016270  53.5031796  24.9230576 113.8788700  55.0117922  24.9227667
 104.1136742  47.9173422  34.8470163 104.9869347  47.6339674  34.5761943
 104.2233849  48.1953907  35.7563519  84.7332382  47.4394131   7.6174194
  84.4198132  47.4918795   6.7145091  85.3358841  46.6957426   7.6189232
   2.8828719  26.0825133  11.0307121   3.4169659  25.8382034  11.7865479
   3.4717786  25.9910178  10.2816796  53.9399195  66.8934059  80.1974773
  54.6823788  67.4151993  79.8929882  53.1813002  67.4653196  80.0806904
  99.7961617   4.6958408  79.7962332 100.3986073   4.4639388  80.5029964
 100.3546429   4.7800404  79.0234232  84.6099854   2.4213578  79.1342497
  83.9288330   1.9914037  78.6171389  84.8463535   1.7773074  79.8017550
  36.6519499  85.4595757  88.7298489  36.3717151  85.5995655  87.8253555
  37.0151258  86.3025856  89.0012741 102.7467442  15.2737606  83.2313633
 103.4001446  15.9523702  83.4010506 103.2573891  14.4715166  83.1223488
  46.1041117  91.7839718  75.4534388  45.6371546  92.4874687  75.0025749
  45.8224154  91.8555927  76.3654423  45.5520391 106.6551685  87.1016026
  45.2412510 106.6831017  86.1966991  45.6961155 105.7252216  87.2767639
  87.0680428  90.8409214  85.3069210  87.4627686  91.2003136  84.5124054
  86.1416817  90.7383060  85.0888348 105.7693195  50.3270292   2.6985359
 106.5354252  50.6003284   3.2031432 105.6911755  50.9841585   2.0069407
  48.7053537  79.7921562  65.1932526  49.2523956  79.8492670  64.4098520
  47.9396629  80.3295612  64.9903965 103.5972500  59.2020273   7.7711517
 103.6455154  59.4927120   6.8604350 102.6601124  59.1730785   7.9639781
  59.2089748 108.3609962  74.6489048  60.0392914 108.4069252  75.1229286
  58.8808537 109.2601967  74.6528864  42.2117233  71.0628319  82.3043251
  42.9842329  71.2811470  82.8256702  41.5728521  71.7396879  82.5277901
  60.1804781  87.1322918  75.0606489  59.5856953  87.6395321  74.5082188
  60.3387260  87.6930046  75.8201170  25.3861976  58.0479622  61.7340136
  24.4722772  58.3216715  61.6561174  25.3705645  57.3421001  62.3803473
  20.8684993  45.7844925  17.4613035  21.5050244  46.4429092  17.1828127
  21.3970017  45.0152159  17.6737356  24.0322614 103.8968182  85.0324249
  23.3362794 103.2539845  85.1688290  23.6096835 104.6091652  84.5526028
 103.6364555  21.9970489  90.2306461 102.7602482  22.3786449  90.2844048
 103.5450935  21.1306286  90.6271362 103.6916065  88.6267662   5.7952827
 103.0303955  88.4651089   5.1223040 103.2206535  88.5270405   6.6226214
  38.3475828 107.9510689  67.4143887  37.8411984 107.2064018  67.7388573
  37.9586601 108.1525612  66.5632915   9.7811669  71.2883472  28.3594871
   8.9045590  71.5611744  28.0886436  10.0770807  71.9829416  28.9478803
  92.2424889  29.3995476  51.5860176  91.4468193  29.9259567  51.5083075
  92.1278095  28.6963320  50.9468222  74.3864155   9.6883696  81.0087872
  75.1621962   9.3193841  81.4309788  73.6843014   9.0720963  81.2172985
  56.6986275   2.9774222  66.7832613  55.7822943   2.7013090  66.7651892
  57.1372128   2.3926535  66.1652660   1.6521996  19.6725595  83.2597542
   1.1848646  19.8046815  84.0846062   1.1477557  20.1702714  82.6162910
  90.2518463  15.6574106  61.6061878  90.4286289  15.6618774  62.5469112
  90.6095314  14.8243082  61.2992191 102.1958637  39.0006256  56.9048834
 102.4647999  38.1004477  57.0881510 101.8339634  39.3158054  57.7330875
  89.6721554  24.5431805  93.2125092  89.7290516  23.6280775  93.4874344
  88.7432861  24.6799707  93.0261707  71.5987730  21.6272926  90.1688862
  72.5016165  21.8477225  90.3980637  71.6138315  20.6821370  90.0182724
  46.6168356  21.6851711  70.7118225  45.8690023  21.3719821  70.2030087
  47.2083092  20.9338522  70.7555342  74.4068766   3.7125313  92.4812603
  74.6443081   4.4722939  91.9496346  74.5577955   3.9948240  93.3833504
  53.2671881 107.9208660  58.0853510  53.0328178 107.2017097  58.6719704
  52.9984379 108.7104034  58.5550785  63.4768057 103.8447857  93.1867695
  62.9493141 104.5835876  92.8832054  63.3005524 103.1486034  92.5539303
   6.5322918  80.6810570   3.3961129   6.8127805  79.8176861   3.6996883
   6.1232460  80.5150604   2.5467831   5.1990539  92.3092747  36.1275268
   5.9907067  92.5432110  36.6120815   4.5667398  92.9895878  36.3590026
  76.0356236  27.7596378  93.3575153  76.4974356  28.2958388  92.7129555
  75.1874733  27.5766587  92.9533005  22.9490876  51.8858957   3.1242454
  22.7503514  51.7643261   2.1958295  23.9010119  51.8014336   3.1784743
  12.0998311  71.6307354  10.3437603  12.2573161  71.0304689   9.6149856
  12.2610593  72.5001097   9.9771166  11.3693941  53.4242439  29.4061184
  10.8030534  53.9742804  29.9473643  11.5873158  52.6798582  29.9670410
  58.6027384  53.4450817   9.4637704  59.1724062  52.6992702   9.6521312
  58.8619232  53.7290621   8.5871798  44.7046757  19.3758810  91.1292744
  44.6896029  19.1248488  90.2056980  44.0876102  20.1051641  91.1893463
  81.1066341   8.6837137  53.9296961  81.9261265   8.1911224  53.9746761
  81.1525345   9.1492289  53.0945778  38.3115840  74.8825788   9.2375356
  38.9030957  74.4691086   8.6087388  38.0266356  75.6874466   8.8048375
  61.7409611  96.3436031  52.9071188  61.5232420  95.9482956  53.7512541
  62.3347902  97.0619869  53.1251049  32.1265268 105.6264687  79.7013807
  32.8773880 105.7570267  80.2805138  32.2980952 104.7883511  79.2720079
  69.0969276  99.3369579  81.6582203  69.9659681  98.9407349  81.5949249
  68.7798405  99.0817070  82.5245476  87.1898651  25.8755708  92.8491020
  86.7168045  25.7616735  93.6734104  87.4591923  26.7940950  92.8524494
 114.6423149   8.5757214  37.5583243 114.4034481   9.4939721  37.4318600
 113.8253593   8.1491566  37.8169155  18.9250124 100.1643085  49.4559431
  19.3742108  99.3265533  49.5682335  19.5168042 100.6821251  48.9101601
 111.5443325  63.7851858   0.6043900 111.1621475  63.5087061   1.4372900
 111.2330055  64.6823072   0.4840757  23.8719749  76.9311190  13.0991530
  23.3497620  77.5690317  12.6127434  24.7786140  77.1491766  12.8830874
  20.9105396  57.7344227   7.9273850  21.0476685  58.0125046   7.0217925
  21.7383838  57.9304647   8.3661014  18.3557665   6.3061321  63.5171223
  17.8524184   5.5064017  63.6697769  18.0625272   6.9079578  64.2012644
 114.7401333  19.2746711  45.5811501 115.6251335  19.6282983  45.4919863
 114.1942215  19.8602927  45.0564957 107.6526356  90.5025768  10.2755308
 107.0860291  91.2005043  10.6042790 107.4516296  89.7493076  10.8308887
  96.3819885  83.5650635   7.2323012  96.0264206  82.9871082   6.5571940
  95.6581211  83.6902905   7.8459436   7.2668421  73.1389475  17.2169387
   7.8106058  73.4352350  16.4870310   7.1254063  73.9248800  17.7447021
  71.0210657 101.1225605  84.3715954  70.2609301 101.0074902  84.9418449
  71.7667007 101.1585236  84.9707317  61.4277744  90.2281189  67.0774937
  60.5249691  90.5439758  67.0399904  61.9574070  90.9871006  66.8332386
  94.1495132  18.9673913  93.2792377  95.0439072  18.8585699  93.6024189
  93.6227036  18.3922231  93.8341141  89.9548817   3.9305431  69.5661974
  90.1305485   4.8608062  69.7075605  90.5320740   3.6849713  68.8431644
  39.0572906 100.3361607  87.1358013  38.1962800 100.0227833  86.8588829
  39.3806100  99.6566582  87.7273846  84.3341160   8.0202556  79.0502453
  84.2986584   7.1225864  78.7198448  85.1203156   8.0438185  79.5957375
  90.7622051  87.2598267  90.9210110  90.6134319  87.8089046  90.1511955
  91.5991592  86.8282700  90.7492638  45.2395105  75.1224756   7.2589439
  44.5252132  74.5056486   7.4187440  45.7739353  74.7009325   6.5859491
  91.6961288  29.7036195  81.7498302  92.3564434  29.0106559  81.7535114
  91.0469532  29.4192934  82.3932266  61.6518021  16.2142181  89.7831535
  62.2751331  16.3587701  89.0712547  61.8622780  16.8906760  90.4268360
  42.0998716  83.4823608  85.6708908  41.6387844  83.4818077  86.5097237
  42.8903103  83.9974880  85.8324051  90.6691837   7.3686707  55.2921438
  90.8612728   7.2016156  56.2148714  91.3863850   7.9290813  54.9958467
  89.2220592  12.0759988  60.3034735  88.4030914  11.7924345  59.8971367
  88.9834118  12.2770452  61.2083817 106.4685726  58.8155842  10.3935874
 106.7011547  59.4326496  11.0873938 106.1630440  58.0365896  10.8584023
 113.4977245  20.5054259  12.5217569 113.8034153  19.6588528  12.1960330
 114.2051888  20.8138466  13.0879712   4.8124027  62.2741079  12.2851694
   4.1236788  62.4500895  11.6441369   5.4376477  61.7193508  11.8187547
 112.7962494   7.2349936  78.2522631 112.0999336   6.7160612  78.6548615
 113.5807514   6.6939944  78.3423233  58.1968594  68.3678913  89.8838043
  58.4234715  68.9646196  90.5970955  59.0137720  68.2540798  89.3980694
  11.7611790   6.6749424  87.8379917  12.2593069   6.1198097  88.4379387
  12.4266660   7.1027714  87.2991848  91.7169952  73.9274979   3.0433843
  91.1463928  74.5730734   3.4603617  91.9147015  74.3016720   2.1848169
 111.0550594  11.6703880  74.0005779 110.4942608  12.1111202  74.6389246
 110.9624767  10.7394004  74.2028666  74.1955185  20.1824665  87.5809193
  73.7873697  19.3175709  87.5409126  73.5319948  20.7768607  87.2306919
  98.8026905   5.5707991  83.4538460  98.3288956   5.4392147  82.6326084
  98.1611061   5.3702027  84.1352940  60.0653839  11.4716613  64.7749329
  59.5004129  10.7171726  64.9416208  60.8459711  11.3079369  65.3041840
 109.0981483  65.3841019   7.8947639 110.0194550  65.6098127   7.7664137
 108.9481449  64.6452522   7.3049849  24.1779518  13.2400370  61.7275620
  24.7116804  13.9493024  61.3693619  24.8066854  12.6618290  62.1595335
  72.2204733  20.6381035  66.8472481  71.4072418  21.0793519  66.6019201
  72.0638132  20.3251505  67.7381754  35.4618454  52.9818249  25.9946656
  35.0360084  53.6153698  25.4171562  35.6959057  52.2531986  25.4197335
  33.2011604  64.2306137   1.8203846  33.4570718  64.4716692   0.9300842
  32.8933454  63.3274126   1.7448677   9.3059874   0.3794037  87.5897026
   8.7220919   0.6314094  88.3051014   8.9489013  -0.4490027  87.2696018
  52.0534658  12.5880611   1.4377373  52.8786612  13.0050945   1.1900189
  51.4277649  12.8835523   0.7763620  17.8680563  75.4682922  21.0982704
  18.1497824  74.5591974  20.9962225  17.3895669  75.4791403  21.9272232
  13.3155406  92.8420067  87.8786278  12.8650105  93.6359596  87.5907135
  13.9460015  93.1475258  88.5308647  79.6522141  84.4710064   5.8512604
  80.2945328  83.9312172   5.3905201  79.2182541  84.9700165   5.1592362
  19.2464316  20.0873375  27.1634173  18.3759880  19.7421634  26.9648862
  19.0845776  20.9734464  27.4872184  21.2852335  47.8135252   5.9057999
  22.1242785  47.5473452   6.2818098  20.9475017  48.4703588   6.5146834
 113.6612701  74.3656492   0.2775189 114.0184021  75.2518702   0.2200491
 114.3881702  73.8351822   0.6037814   6.4012134  66.8601084   0.4739223
   7.0291424  66.1438084   0.3798617   5.7172644  66.6647148  -0.1665978
  37.0524740  84.9086189  60.4643488  37.2331357  84.0382671  60.8194208
  36.1803579  85.1254654  60.7939339  16.6521919  93.9743614  21.5521574
  17.0110345  94.1440392  20.6811404  15.7081294  94.0948677  21.4499068
  90.8715725   2.5329509  25.3091574  90.9956264   3.1735289  26.0095143
  89.9917126   2.7095422  24.9761415 109.2760468  38.1502533  88.3625793
 108.3482361  38.0114794  88.1725025 109.4543076  37.5830364  89.1127300
  16.6979253  54.9184513  13.9967811  15.9023333  54.8560858  13.4682202
  17.3059654  55.4223442  13.4558487  81.1207199  90.4198837  91.8035698
  80.1857185  90.4715347  91.6052532  81.5495872  90.7991791  91.0364723
 103.1316853  11.1813879  80.2359962 102.2444153  11.5169227  80.1079464
 103.6959839  11.9456553  80.1189613  51.0273695  67.0561600  62.2459745
  51.7730522  67.6173830  62.0333290  51.1078072  66.3138437  61.6470337
  35.4207659  59.7948456  16.0277355  36.3312721  59.5439148  16.1834455
  35.3815222  60.7189655  16.2741041  51.5361643 107.6158524  76.7700720
  50.6231546 107.6356697  77.0568657  51.8245316 108.5268879  76.8257475
  47.0060349 107.9342747  83.3982658  47.8600645 108.3209229  83.5915852
  46.6285038 108.5084152  82.7318859  70.8245611  88.1740952  76.3574219
  70.9012699  88.9703178  75.8317089  70.3771973  87.5511265  75.7847071
  64.2844152  82.8083420   3.4898123  64.5058823  83.4727287   2.8372899
  64.6033716  83.1693459   4.3169653  14.5950961  59.4802761  54.6797609
  14.2178988  58.6596060  54.3628216  14.2254245  59.5912600  55.5556917
 109.1027641  15.2046394  53.9846659 108.8678074  16.0843956  54.2797184
 109.9989414  15.2922750  53.6599874  88.1864071 102.2207642  72.0650673
  88.0719090 102.5378227  72.9609442  88.8391113 101.5245247  72.1389866
 104.5874405   5.8659101  78.7804079 104.0948391   6.6621625  78.9792967
 105.3704453   6.1760265  78.3254719  35.5178714  58.4596062   6.8385082
  35.3719378  59.3743801   7.0795864  35.4572868  58.4510612   5.8832657
  11.9760168   6.7665666  26.7475700  12.2242737   7.0787233  25.8774209
  12.4236751   5.9252298  26.8369412  52.7633715  73.0698395  87.8536701
  52.7758121  73.5250187  87.0117092  52.8877687  72.1476698  87.6292515
   2.3681286  56.8127537  22.7889991   1.9120850  55.9811640  22.9182673
   2.2278351  57.2922945  23.6054492 106.4878178  23.1961870  41.2659979
 106.9228649  23.2930899  40.4188967 107.1569633  22.8189731  41.8371344
  79.9892473  74.7209024  57.4159384  79.2859507  74.2199230  57.8290081
  80.0330830  74.3803024  56.5224600  89.1705799  25.2575636  72.0261192
  89.1000652  26.2116671  71.9953585  89.7888374  25.0404716  71.3283634
   9.3376839  17.0315003  43.4041452   8.7738091  16.8568802  42.6506281
   9.6060300  17.9439461  43.2961369   5.6188458  24.5433450  58.2780600
   4.7269875  24.2018700  58.2131338   5.6253147  25.0425529  59.0947485
   1.9858679   8.4075737  45.1698971   2.6953709   8.2930261  44.5376635
   2.4087337   8.7931097  45.9372139  12.8356767  53.2911015  71.3799858
  13.5548306  52.9508495  70.8477449  12.8877473  54.2409706  71.2738562
  42.4794960  14.7735023  52.7726650  42.1154118  14.3779004  53.5646105
  42.2676754  14.1526043  52.0756388  26.6550350  51.0881138  52.8606939
  25.7900238  50.6832361  52.9243851  26.6118526  51.8396282  53.4519577
 107.7794933  45.2588129  48.6422014 107.5035954  46.1067390  48.9902401
 106.9844532  44.8862171  48.2609940  92.2032547  21.5984607  67.1439362
  91.6355515  21.1393261  67.7629185  93.0534840  21.1680913  67.2341204
  69.9242306  38.1950665  26.4069653  70.8467436  38.2942891  26.1716819
  69.9246073  37.5432992  27.1079874   9.4815713  42.7735662  70.0962925
   9.5403516  43.7265539  70.1640224   9.9727255  42.4490595  70.8510780
  27.1521330  27.7592230  67.8079796  27.2933912  26.8129897  67.7777100
  27.8016996  28.0784416  68.4343958   3.7964022  13.6450708  55.6039619
   4.4023517  12.9040897  55.6020021   3.7445298  13.9144754  54.6869230
  52.1295881  67.5956821   5.5265206  52.4368191  67.2577095   4.6853197
  51.2234449  67.8572321   5.3630292 112.7999973  50.5818129  15.7458794
 113.5937500  50.3343916  15.2715814 112.1761990  50.8211613  15.0604403
  21.3398290  28.5203743  69.8182154  21.7392111  27.7650476  69.3866968
  21.9550395  29.2372894  69.6640158  77.3772383  98.1326675  10.0826275
  77.6316214  97.2434425  10.3292155  78.1326818  98.4738541   9.6039557
  94.7873592  38.6053085  86.8337154  94.3441868  37.8383112  86.4710236
  95.6991386  38.3309770  86.9318676  26.9677591  35.9651518  27.6742363
  26.9392657  35.8450007  28.6234379  26.0836029  35.7480192  27.3786807
   5.9036624  52.3844910  72.2876406   5.1682955  52.9697800  72.1062422
   6.0600257  52.4804115  73.2271004  31.9522166   0.8910793  50.8660030
  32.1505642   0.3592065  51.6367197  32.7973366   1.0087002  50.4322195
  13.3516696  -0.1906303  71.2544584  12.4785522  -0.2195362  70.8632183
  13.7472633   0.6051537  70.8988333 111.1290690  27.2354572  94.9226715
 111.0724112  27.8126304  94.1611689 111.7798182  26.5779083  94.6769315
   4.3805918  39.6099138  54.9687481   5.3157723  39.4392657  55.0807714
   4.3108678  40.5645132  54.9584293   6.2363714  65.0733089  68.1295061
   6.2110245  64.1455460  68.3637094   6.3452798  65.0773811  67.1785307
   6.4302450  61.1912203  74.8397589   5.7379323  61.8335724  74.9956989
   6.1766219  60.7589340  74.0242577 110.4794502  37.2186947  54.4223213
 110.0499535  36.3702464  54.5314074 110.6187534  37.5332308  55.3155708
  39.5412874  75.3536415   6.5441155  38.7933278  75.8600950   6.8608147
  40.0772858  75.9891891   6.0697579 108.9536190  26.4088917  79.6283722
 109.6817493  26.1621857  80.1986313 109.3201447  27.0745564  79.0463209
  84.6324158  61.4328432  18.0079293  83.9455223  61.0114193  18.5244632
  84.2734814  62.2925520  17.7881718  74.8402214  83.1503487   5.3115141
  74.3237495  82.9527378   6.0928220  75.4666233  83.8141251   5.6000382
  10.2644312  19.9586451  56.5505457   9.5283639  20.4686046  56.8887424
  10.8489525  19.8548102  57.3014021  10.9746456  53.0495119   3.4933412
  11.4983487  52.2693920   3.3106411  11.5565991  53.6152124   4.0008315
  33.6007619  65.6707954  78.0881977  33.8021898  64.7351789  78.1047392
  33.2315445  65.8209562  77.2179317 106.4429379  97.8321457  90.8401871
 106.9752026  97.2473335  91.3795567 106.9677830  97.9755497  90.0526619
  15.5412173  31.5965700  82.4401951  15.7603872  31.7570686  83.3580399
  15.3592765  32.4653530  82.0819378  80.6466961 105.6408310  43.9732313
  80.1289558 106.3314533  44.3870068  81.4630699 105.6216621  44.4726372
   0.3374220  21.6988802  81.7241669  -0.1456664  21.5826964  80.9060192
   0.9909561  22.3688078  81.5233517  13.2802749  25.9357953  86.6397381
  14.0311003  26.5294623  86.6325092  12.5176120  26.5142131  86.6427898
  78.8134670  58.4571266  30.9236622  79.5032263  58.8216782  31.4782476
  78.9988470  57.5184345  30.8967471  75.7196379 106.5082169  64.3342352
  75.6943750 105.7321739  63.7744713  75.2848482 106.2351036  65.1420736
 112.0120239  12.7348781  90.4974556 111.5584660  12.0764136  91.0237122
 111.6160774  13.5657895  90.7602215 115.2123547   7.0379949  65.5487537
 115.6101131   7.8070259  65.1405668 114.4654274   6.8285549  64.9879789
  99.1336155  47.1761370  69.7747183  98.7806225  46.9060278  70.6224632
  98.4800529  46.8843174  69.1391659 103.9687729  33.1362820  59.6598339
 103.5972786  33.8885355  59.1990376 104.7521782  32.9110384  59.1580677
 108.1570339  39.0380239  51.0915899 108.8343906  38.4599018  51.4425755
 108.4245777  39.1986847  50.1866913  24.7133303  32.4445653  89.7523785
  24.9001479  32.1447921  90.6420231  24.1991043  31.7366982  89.3641472
 101.5483570  24.0013003  63.8925648 100.8867168  24.6092582  64.2224741
 101.0531235  23.3654547  63.3761597 114.2487144  61.5177727  76.2441206
 114.7631073  60.7303047  76.0665703 114.8552418  62.1027136  76.6982317
 100.9392071   2.5112525   0.0132791 100.5004501   3.3242929  -0.2371002
 101.0440636   2.5781327   0.9623651  49.9961519  85.6661415  12.5696576
  50.3574419  86.5253162  12.7876413  49.8783445  85.2341938  13.4156919
 106.8233490 108.5171127  47.6992702 107.6998806 108.2274342  47.9522657
 106.8531418 108.5641384  46.7436886   9.6456230 105.0699520  55.9718227
   9.6123296 105.6976604  55.2499485  10.2523041 104.3927383  55.6725645
 101.3526535  41.5694904  66.9990730 101.6815186  40.7448769  66.6411781
 101.8421364  41.6895342  67.8128481  94.5720291   7.5421548  46.6500378
  95.2944660   7.0363605  47.0221710  94.6605015   8.4106457  47.0426273
 108.3160973 103.8848877  83.5119057 109.1492081 104.3559933  83.4974480
 107.8198814 104.2974567  84.2188644  12.4801791  42.2555017  91.0465622
  13.2100582  41.8792152  90.5547142  11.7526960  42.2666979  90.4245663
 108.3552074  16.3939261  79.8140287 108.0039883  17.1385813  80.3022575
 108.8309956  16.7893457  79.0836143  73.6781693 100.2883530   5.9734577
  72.8792620 100.5895424   5.5407286  73.9814854 101.0473728   6.4715791
  42.7515411  79.2555380  10.3371918  42.5702333  78.5962152   9.6673763
  42.2532558  80.0237179  10.0582016  39.1749001  62.1610403  10.9986126
  39.4872117  61.9157028  11.8695331  39.8052573  62.8133774  10.6930912
  52.7163029  47.7355003   2.2035660  52.2824669  46.9967270   2.6304454
  52.5901222  47.5791597   1.2676889  24.2025900  24.9593830  66.3968563
  24.4672394  25.6950974  65.8446646  24.6758437  24.2085171  66.0384417
  26.5984321  35.0216603  20.6995606  25.9364700  34.8190522  21.3606119
  26.1099529  35.4442000  19.9931037  91.1823082 102.6404572  33.7203026
  91.3303852 103.4516907  34.2063141  90.3517246 102.7816486  33.2659721
  24.9220610  18.5256135  93.0286026  24.9119186  18.7699354  93.9540386
  25.2071023  17.6118445  93.0252266  45.1040840  32.6733899  82.0695686
  44.6028614  33.1451511  81.4043999  45.5390406  31.9700003  81.5876102
   5.3715104   8.9089847  84.0685463   5.0477624   8.3457053  84.7714901
   6.0532576   9.4391972  84.4812489  17.2726214  26.7179370  56.4550877
  17.7868152  27.3270130  55.9251213  17.5485551  25.8506370  56.1586380
  24.8874736   0.7257687  57.2910643  25.6675243   0.3499150  57.6990891
  24.6468401   1.4557093  57.8615999   7.0119298  44.0381765  17.8187692
   6.6345626  43.9213991  18.6906576   6.2547779  44.1308403  17.2405255
  41.8804693  63.3368540  11.4229107  42.2457123  64.1836691  11.6793025
  42.6433325  62.8074312  11.1905670 100.4881859  28.8357997  72.1773815
 100.9435844  27.9940462  72.1945572 100.3503609  29.0524101  73.0995083
   4.1815144  44.1830969  72.7987957   4.9093491  44.4505072  72.2375631
   3.4305882  44.6762466  72.4684238  33.1342554  39.4357347  40.9680080
  32.4168348  39.7410274  40.4127312  33.9099455  39.8762250  40.6208706
  38.6574006   7.3190534  51.0848141  38.1781125   8.0836475  50.7655811
  38.7166166   6.7392862  50.3254795   5.9093368   1.3125190  82.4509144
   6.6475987   1.3320011  83.0598640   6.1199915   0.6049244  81.8416786
  82.1270084  98.5623360  82.8724861  82.5989151  97.7315903  82.8142262
  82.7731133  99.2228508  82.6224709  26.7312646   4.3122223  73.1156969
  25.9550643   4.5462042  73.6246157  26.4513922   4.3880787  72.2034740
  11.5738940  46.9888592  80.9650326  12.3077095  47.1648645  81.5539074
  10.9180081  47.6464939  81.1964798  41.9988155 102.1345329  53.2490540
  42.4825764 101.3135624  53.3396626  41.3894510 102.1361828  53.9872313
  77.2017956  99.8932648  59.6089935  77.7988100  99.6281528  60.3086567
  77.0988560  99.1078854  59.0715694  44.2247152  17.3533916  94.1918850
  44.7373056  17.1457052  93.4106350  44.8588514  17.3270571  94.9084091
  82.3345852  31.5629792  45.8081722  82.2929573  32.5122547  45.9238243
  81.6466522  31.2216902  46.3795853 113.9787769  13.5520995  56.9342470
 114.6007919  12.9716909  56.4955473 114.5272446  14.1939735  57.3852682
 115.5249596   9.2476934  63.6307621 116.0584354   9.9704540  63.3002138
 114.8239517   9.1529900  62.9859018  28.0497098  70.4754639  16.5571785
  27.3976588  69.8758173  16.1945701  28.0185294  71.2397051  15.9816813
 110.1809025  15.3934491  33.0866838 110.1159859  16.3150132  33.3371639
 109.3975735  14.9883425  33.4588695  21.9063354  10.5891907  74.4968653
  21.1265564  11.0215747  74.1486979  22.1499658   9.9552143  73.8223648
   1.8979388  15.9883213  68.3768606   0.9949750  15.7396877  68.1791973
   1.8484543  16.4069045  69.2362595  11.1691022  33.3927345  70.1170778
  10.7217896  33.9540577  69.4837856  11.2853420  33.9473176  70.8885431
  57.9389238  32.6242208  50.2333593  57.2838211  32.6359010  50.9311676
  57.4287844  32.5460172  49.4272089  90.3584957  20.0847554  44.6375036
  91.0793114  19.4556653  44.6075010  90.3861713  20.5214930  43.7861919
 112.7201939  18.2648551  67.3166466 112.6162243  19.0579462  67.8424120
 113.3923244  17.7602255  67.7747154  41.5506124  78.0971622  12.5301766
  41.5286827  77.3536205  11.9277692  42.1922731  78.6960173  12.1482348
 100.0290394  14.2696226  83.3421612 100.9293556  14.5941913  83.3597755
 100.0245190  13.5420585  83.9641476 108.3796692  16.8998599  65.4508829
 108.2083893  17.3872757  66.2566853 109.3054867  16.6631806  65.5063200
  24.6921921  60.4699898  74.8084164  24.3304873  61.0577631  75.4716825
  25.6318426  60.6523609  74.8135757  49.6244335  96.7820835   5.0672901
  49.1068554  96.8330765   5.8708704  50.5326653  96.8444920   5.3630173
  23.7755847  55.5066061  55.4387522  23.7030196  56.3743353  55.0412464
  22.9076004  55.1187658  55.3273249   5.1385587 102.7675533  75.2963972
   5.1173013 103.0427265  74.3798494   6.0619849 102.5852108  75.4703712
 104.2655849  47.5319481  86.0242844 103.7830734  46.7695141  85.7047272
 104.4344234  47.3392439  86.9465542 106.7428684  44.6267462  73.8642311
 106.5106964  44.7279358  74.7873211 106.1044693  43.9999056  73.5240173
  59.1060781  68.6888790   2.4445029  59.6639204  69.3145943   1.9824210
  58.2163334  69.0136814   2.3063482  25.5669284  24.3385339  79.3753719
  24.9121785  24.7990203  79.9002361  26.3567662  24.8734331  79.4545746
  30.9078360  38.8855886  56.1081791  30.7781458  38.0248284  56.5063047
  30.5390549  38.8008332  55.2289486  12.8159595  38.9936113  38.6767912
  12.5178790  39.7221375  39.2214298  13.7155151  38.8336349  38.9621639
 113.4822464   8.3501518  69.5376873 114.0148926   7.8207284  68.9441919
 113.3179092   9.1597927  69.0542507 104.8397160  53.3233261  75.3800344
 105.3317928  52.7497149  75.9674597 104.2756176  53.8338900  75.9608507
  25.4968047  52.7011967  65.1071215  24.5472622  52.5818396  65.0883293
  25.8446622  51.8269396  65.2828979 113.6315918  98.4663963  57.1282578
 113.3878326  99.1766167  57.7218866 113.5992527  98.8609409  56.2567520
  95.0145721  81.8824387   1.1934197  95.2102470  81.5356541   0.3229717
  94.1185188  81.5956020   1.3696483  19.5618629   8.9935499  71.5052032
  19.3955624   9.8539859  71.8902063  20.4845309   8.8213897  71.6930294
  20.1233697  42.2438860  55.0977659  20.2303219  43.1728554  55.3022337
  19.7036576  42.2347498  54.2375374 115.1323509  15.2073407  70.9658718
 115.8693409  15.1044452  71.5679455 114.7925472  14.3200982  70.8494091
  99.2258930  27.9146123  82.7733231  99.3242550  28.1891155  81.8616199
  99.9539471  28.3358741  83.2301807   1.0360964  47.9459047  71.1894703
   1.1583817  47.8879881  70.2418804   1.2695590  48.8485003  71.4063740
  94.9332809  45.7979536  59.2490101  95.5571270  45.5047321  59.9131393
  94.1929245  46.1398506  59.7502136  10.4379833   9.8005778  72.4493504
  11.3812399   9.6885008  72.5674057  10.1320255  10.1519275  73.2855177
   2.9840741   4.9384350  41.6424608   2.3791862   5.6795996  41.6105604
   2.4214089   4.1756397  41.7758131  23.7004232  30.9078479  58.5550356
  23.5117173  30.9529471  57.6177025  22.9527068  31.3371325  58.9708090
 102.0394611  40.6248617  63.8085985 102.7727222  41.2319136  63.9088488
 102.1053982  40.0425625  64.5654440  52.0595407  23.7611842  65.6799030
  51.9065142  24.7060394  65.6718063  51.6568995  23.4464002  64.8705673
  25.8509207  49.3903303  76.3454676  25.5733228  49.9631166  77.0603704
  25.0685930  48.8840675  76.1266232 113.2567978   6.2628460  73.0456877
 112.7630806   5.8063871  72.3644161 112.6449871   6.9138294  73.3894110
 108.3642864  18.0119884  54.4397020 107.9649830  18.5467899  53.7535715
 108.4082127  18.5916936  55.2001238  15.3861725  55.3326464  62.8328800
  14.4646430  55.1430368  63.0091238  15.7385123  54.5111370  62.4905252
   8.1772798  24.9083376  90.7079697   8.8859499  25.4741168  90.4015255
   8.0219263  25.1865935  91.6105652 109.4522095  20.4629850  63.5170221
 108.8508320  20.4508352  64.2616177 110.1633835  19.8760712  63.7739325
  12.5499499  35.1293397  91.9380951  13.1819785  35.2474189  91.2289906
  12.9369342  34.4527078  92.4936485  13.0260098  37.5599194  58.1020975
  13.5057223  36.8480802  57.6785517  13.4962893  38.3526039  57.8437948
   5.8868623  24.8890162  79.0378094   6.7428225  25.2019095  78.7451315
   5.2667487  25.5332851  78.6963320  11.0794520  30.1267910  42.3726368
  11.8542302  29.6901655  42.0186472  10.6312382  29.4477415  42.8768444
  22.8853416  24.8031259  86.3050842  22.1703815  24.3301225  86.7309189
  22.9466581  24.4109774  85.4340553  96.3342190  23.2980824  58.9289093
  95.4911709  23.1305814  59.3501520  96.9787502  23.1757951  59.6259451
  -0.2282968  35.0924492  47.4515438  -0.3965917  35.6646752  48.2001877
   0.6315716  35.3643870  47.1307516   4.6367335  77.6970196  59.2920399
   4.5553082  77.3921013  60.1957130   4.9701104  78.5908985  59.3699980
  51.7662001  75.6157970   6.9012982  51.8526268  76.4606428   6.4597166
  52.2169018  74.9976301   6.3259995  90.9754658  49.4395399  89.2148876
  90.0732803  49.5712614  89.5063400  90.9498692  49.6078920  88.2729626
  16.4559853   7.7068359  80.8275127  16.4970195   6.7638022  80.9863663
  15.9685218   7.7906883  80.0080109   9.8916382  29.2193270  75.8245420
  10.2430522  28.7751555  75.0528908  10.4661977  28.9470077  76.5400553
  85.3639221  18.7113249  87.8419495  84.5302773  19.1406834  87.6498032
  85.5279255  18.1550145  87.0804691  39.2286897  30.6579161  69.1600943
  39.3984246  29.9186826  68.5761786  38.9266062  31.3568616  68.5800457
  12.0330083  41.2465191  40.4306412  11.2233710  41.1420822  40.9304523
  12.6617396  41.5942812  41.0630846  16.0075212  43.2931185  61.3115883
  15.1136315  43.1950235  60.9836054  16.0802031  44.2210436  61.5349770
  35.0460339  33.1225109  72.3942947  34.7931910  32.4939418  71.7181253
  35.3949857  32.5833583  73.1040668   6.8426931  19.1875112  47.6765156
   7.2682464  18.4434938  48.1026268   7.5656223  19.7118115  47.3319626
  20.0055385  23.7292504  36.3349271  19.6502197  23.2077050  35.6152248
  19.5998240  24.5898557  36.2301254   5.9239388  67.3283339  69.6889544
   5.8915144  66.6337204  69.0311575   5.0149202  67.6137495  69.7808981
  28.6132598  42.1787167  67.1383142  29.3363142  41.6030025  66.8893576
  28.7758064  42.3828411  68.0592632  29.6209574   2.6521909  15.6207490
  30.0023293   2.4407166  14.7686529  28.7339234   2.9499435  15.4188979
  88.2382870  35.7610989  57.1639204  88.6636925  35.3756905  57.9299021
  88.4111404  36.6994238  57.2407484  39.0511608  31.8510342  81.5449333
  38.4708881  32.5752926  81.3104820  39.8098135  31.9564891  80.9708595
  18.6226511  46.0665083  60.4175234  18.3878303  46.3901758  59.5478535
  17.7927899  46.0350943  60.8935261   8.0971313  49.2195940  87.1149731
   9.0359944  49.2537117  86.9316578   8.0339926  48.7726402  87.9590607
  10.2941108  41.1595535  58.2637930   9.5027125  41.5815258  57.9293346
  10.9966719  41.4902496  57.7040768  85.2207088  65.5844116  70.3392792
  85.4908466  65.1257658  69.5437288  84.7907639  66.3791037  70.0233126
  88.5624409  25.4343343   3.0430019  87.9685402  26.1691046   3.1967199
  89.1058731  25.3968930   3.8300955  32.2956967  20.6035733  89.8066235
  32.3657084  19.6603060  89.9535084  32.4888897  20.9937072  90.6590939
  19.9880946  83.0161953  77.9635525  20.4667950  83.6727524  78.4695244
  20.2254939  83.1951046  77.0536804  10.2785480  50.7907724  38.4162664
  11.1115229  50.4052782  38.6878848  10.5052483  51.3538551  37.6761484
  -0.1534754  55.4150581  56.6153622   0.5940896  54.8737860  56.3615942
  -0.0540131  55.5330896  57.5600338  36.9319510  27.3857975  29.7235632
  36.5837979  26.4949226  29.6866226  37.1975946  27.5014997  30.6358552
  15.5666006  38.7704158  79.6456480  15.0573146  37.9755926  79.8041201
  15.6590700  39.1718769  80.5096531   8.6225784  47.2215462  89.9427605
   9.5270222  46.9081974  89.9478817   8.5795510  47.8409004  90.6713009
  30.6780672  60.1938629  72.6261997  31.1007285  59.8856306  71.8245888
  31.0101700  59.6129656  73.3106709  10.6983447  22.9471183  56.4697361
  10.7949543  21.9965196  56.4126492   9.7546607  23.0959582  56.4102507
 107.9465008   3.0852124  51.4322853 107.0634747   3.0896214  51.0628557
 108.4234333   2.4441411  50.9052277   4.5071745  34.7390389  70.0794268
   4.4114223  35.1330352  70.9465075   5.0119227  35.3804111  69.5793247
  12.5556350 108.5560989  11.1238611  11.8873608 108.2008839  11.7099202
  12.1177626 108.6256599  10.2755332   8.1103182  47.2149467  66.1283350
   8.4336209  47.6923466  66.8923998   8.0311614  46.3092136  66.4276934
  52.1703720 104.2264366   6.5125233  52.2294283 103.3912563   6.0486120
  52.1637869 104.8858547   5.8187234   4.1979054  26.7371798  71.1336279
   4.5942375  27.3489809  70.5132627   4.5751989  25.8873892  70.9061718
  19.0250671  17.6993501  41.3400745  19.6152258  17.5509179  40.6012154
  18.9061487  16.8330359  41.7294168   7.7338040  89.7883987  48.7223625
   7.9846519  90.5819321  49.1952515   8.0885780  89.0728951  49.2500162
 104.9306965  16.3998497  43.1858158 104.4164658  16.2148345  42.3999596
 104.8981285  17.3523653  43.2746077  32.3165894  39.8799515  77.4332857
  31.6437721  39.2013669  77.3778582  33.0143237  39.4833851  77.9549551
  89.4239330  58.9261150   4.3305340  88.8622189  59.4603157   4.8920885
  88.8816071  58.7297153   3.5666329  74.5332050 101.4459610  68.2923508
  73.7940550 102.0517254  68.3465910  74.1522932 100.6322765  67.9621220
 111.4346504  14.4748616  63.9310169 111.0341358  14.6264088  63.0749464
 111.2768459  15.2848506  64.4160414  49.4814920  35.6316686  66.0450602
  49.9878788  36.2408495  65.5077505  50.0671864  35.4058361  66.7676878
   7.8774911  25.7039070  76.2610054   7.1149254  26.2001324  76.5584707
   8.4083283  25.5854869  77.0486736  14.3072057  79.5481873  66.5148735
  15.1933348  79.8941278  66.4084148  13.7850964  80.3048801  66.7814159
   6.3654268  48.8530350  62.1103811   6.6977686  49.2401075  61.3004684
   5.9096909  48.0602312  61.8275452  38.5185146  51.8056917  55.3245020
  37.6414919  51.4710617  55.1371765  39.0681195  51.0234737  55.3725195
 105.3712749  29.6116900  43.0093527 105.7064247  30.3697085  43.4882212
 106.1552715  29.1364241  42.7342129   3.3173323  57.3571157  88.5779095
   3.2666153  56.4077520  88.4666920   2.4158289  57.6260805  88.7544918
  22.3241377  66.8649006  34.5844197  22.9963422  66.5388441  35.1828003
  22.0125532  67.6731443  34.9917197 111.1249352  29.3486214  43.1145382
 111.8325520  28.7212467  42.9665089 111.5717411  30.1663423  43.3334732
  51.0857725  35.7306027  61.1384487  50.9977818  35.5382061  62.0719767
  50.9712648  34.8836040  60.7075071  19.9662924  43.8368940  64.1784859
  20.6109667  44.1833210  64.7954273  20.3567314  43.9830112  63.3168411
  36.9255137  49.4898844  92.1414089  36.2366939  48.9298153  91.7835331
  37.7360511  49.0086269  91.9751167  37.0021582  23.8604760  69.8996687
  37.6469517  24.5161200  69.6339607  36.2554693  24.0101194  69.3197584
   0.8676612  18.8649845  71.9685316   0.9584366  19.4506264  71.2168550
  -0.0495457  18.9498091  72.2288513  17.6507783  48.4985399  55.2635574
  18.3231592  48.1002140  54.7108650  17.0467329  48.9110994  54.6461773
   9.2512095  43.6207676  43.2827806   8.3294582  43.7170601  43.0433321
   9.2932773  42.7812624  43.7407017  18.3928871  35.8744764  63.1586313
  18.9729261  36.6344047  63.2065630  17.9722500  35.8396649  64.0177488
 112.0725250  17.9681861  31.9956684 111.9486809  17.6939023  31.0870099
 111.3311958  18.5467350  32.1743751  10.0317430  68.6134815  92.3461342
  10.4729974  69.4168520  92.0702362  10.1692474  68.5776663  93.2927322
  48.9838076  40.6099129  27.3136926  48.7366772  39.8416805  27.8284526
  48.5186148  40.5021143  26.4841104  85.2299404 107.8707218  58.2008266
  85.2560139 106.9179630  58.2891560  84.3273830 108.0630875  57.9466248
  13.0451024  60.8197737  63.7320185  13.4565997  61.6826105  63.7811184
  12.1749699  60.9895849  63.3710909   6.1822766  56.5064907  67.7874279
   5.4293692  56.0085201  67.4690199   5.9148449  57.4221182  67.7078247
  15.5740678  54.6064043  57.0957661  15.7232904  54.8978090  56.1962938
  15.7825804  55.3707790  57.6328754  49.8914671  24.0945816  81.7866898
  50.2696609  24.4659400  80.9896374  49.8740768  24.8242116  82.4060154
  30.0680923  50.6386948  74.2271519  29.1536617  50.8952093  74.1077852
  30.2107143  50.6930971  75.1721001  28.6491156   6.2977123  83.3977985
  29.3582559   6.1960375  84.0326309  28.0645776   5.5598819  83.5714531
  13.2428110  24.4936895  41.1664629  13.6319137  24.9614263  40.4275084
  13.5982263  23.6072063  41.1027431  25.4189610  26.8492270  69.8306561
  25.7816887  27.1293020  68.9902878  24.6123910  26.3875508  69.6014595
  14.9444067  29.1690016  51.3348961  14.6239436  28.5480213  50.6807423
  14.2931557  29.8704934  51.3384867  20.1572776  35.8846307  74.8991251
  19.9328232  36.8149781  74.8816633  19.6038866  35.4920268  74.2239571
  89.2505741  22.4233651  60.1939917  88.9564133  23.1145620  59.6007395
  89.2272377  22.8265858  61.0618067  96.1051178  14.1914999  41.9086456
  95.6574917  13.5091686  42.4089289  97.0025921  14.1826737  42.2413588
  10.2729869  44.0614033  35.8734226  11.2254143  44.0876150  35.9652233
  10.1270127  43.7623644  34.9759269  55.4431677   4.9233821   0.2510761
  56.0681152   5.2990955   0.8711629  55.9815741   4.4059393  -0.3477576
  39.8722053  26.2879038  56.7341185  40.8178139  26.1396837  56.7433596
  39.5253325  25.5872774  56.1818171   0.2310042  25.9062552  61.3052416
   0.6904460  25.0834441  61.1375237   0.4084605  26.0961986  62.2264671
  94.1848850  27.9520941  64.5228577  94.8892307  28.4103751  64.0644693
  93.7974453  28.6168408  65.0922632   0.9692406  11.4241230  62.3930979
   0.5155702  12.2631013  62.3122978   0.9169032  11.0383427  61.5186453
  19.7850597   9.8468035  53.7705326  20.1939797  10.4712725  54.3697453
  19.0876281  10.3451443  53.3445311 109.7482300  47.0369291  44.7260714
 109.3435287  46.9297409  43.8652802 109.2791748  46.4215469  45.2895641
  94.8595333  26.8685341  53.4483862  95.6616688  26.7300725  53.9520168
  94.1558075  26.7903519  54.0925026 115.5968189  69.7257280  52.3143244
 115.5584335  70.6432056  52.5844955 115.7856083  69.7598886  51.3765478
  13.6548460  33.4750867  69.0760374  12.7514851  33.7789965  69.1644192
  13.6013627  32.7390099  68.4664822 103.6212349  54.1331530  82.0514965
 104.3588638  54.5454597  81.6018963 103.4599209  53.3284807  81.5588474
   2.7400565  11.8383348  70.9208298   2.5612500  12.2853243  71.7481518
   2.7860370  12.5419557  70.2734995  25.1019263  24.8872900  63.6486530
  25.7704568  25.2137947  63.0464125  24.3130159  25.3788209  63.4200716
  63.5918951 100.0874710  16.3564789  63.5571957  99.2247295  15.9433281
  64.1684866  99.9685860  17.1112251   5.1795417  51.4651489  38.7207675
   5.9844398  51.0996771  38.3536124   5.1561463  52.3657751  38.3974123
   9.7856253  45.5791807  70.5289459  10.3606534  46.3442469  70.5130482
   9.4821775  45.5264235  71.4352369  24.2725301  50.2942181  53.4699249
  24.1402054  49.4378567  53.0632687  23.4189844  50.5175352  53.8411617
 108.2359505  46.2250757  87.9435730 108.3961391  45.5898714  88.6414909
 108.2835388  47.0762539  88.3788490  43.7011671  60.7838249  74.7025299
  44.5472193  60.9262800  75.1269531  43.0570841  60.9466314  75.3916454
 114.8059559  26.5328789   6.7904162 115.5797195  27.0805335   6.6577876
 114.5548534  26.2556505   5.9093237 109.7230148  65.6072998  49.7636175
 109.6915627  65.6161785  48.8069725 110.3698921  64.9344206  49.9757576
  90.6136227  24.5314765  69.8974609  90.9909153  25.3839254  69.6801662
  91.1934948  23.8980937  69.4746065  37.3555112  23.6929154  56.7571878
  36.5057874  23.2638741  56.6565609  37.5379133  24.0680766  55.8956671
  51.1860180  64.5503283   7.8054428  51.8443775  65.0108671   7.2851568
  51.0096121  63.7485790   7.3131877  15.0294840  19.6038580  67.6162577
  14.9567151  18.6958933  67.3220873  14.3880856  19.6788478  68.3228111
  85.2545357  32.1349978  19.1026652  85.8164787  31.9661236  19.8589277
  85.4586506  33.0350780  18.8488388  44.2956161  58.3616161   9.6536744
  43.9880896  58.7861013   8.8527566  43.4964514  58.0682611  10.0912988
  58.8601208  28.8403368  69.3740511  59.1729259  28.2187319  68.7167883
  57.9839945  29.0840936  69.0753651  29.0420914  38.2552886  83.3188820
  28.2663178  38.1603575  83.8715076  28.7114930  38.1676221  82.4248791
 114.1546917  23.1921458  50.2038813 113.9101696  22.8685522  49.3368626
 113.3606243  23.6109757  50.5359411 103.5688114  71.4679098  72.2961473
 103.2468605  71.0594177  73.0997086 103.7003231  70.7371569  71.6920471
   3.1294963  27.4512291  56.5651608   3.3133468  27.8175664  57.4301624
   2.4540067  28.0235529  56.2013054  96.6518021  25.4017830  54.9259281
  96.8637848  25.4460263  55.8583117  97.4410725  25.7170844  54.4856358
  62.8944969 103.4539795  16.3272738  63.0892372 103.9798355  15.5515289
  63.6817122 102.9266071  16.4629424  25.3318381   5.1908332  21.2937164
  26.1173773   5.2831060  20.7545996  24.8783278   6.0287291  21.2015748
  96.6263771 105.1445961  86.5104961  96.7935371 106.0574055  86.7451668
  97.0392323 105.0381565  85.6534958  37.9833674  14.4844651  60.8366108
  38.6847782  14.7819352  61.4160633  37.1885753  14.5589221  61.3648081
   9.4118005  52.0726871  60.3745842   9.3123132  51.1206770  60.3708792
   9.0285969  52.3567772  59.5447206  42.3510695  45.6595802  14.8041415
  41.7907095  45.3727913  14.0830469  42.0112324  45.1969957  15.5701423
 115.7443047  26.4543438  64.0222120 115.9536076  26.7858052  64.8954582
 114.8914909  26.8382406  63.8183594  20.4960394  52.4199295  51.3457489
  21.3934231  52.7303696  51.2250757  20.1421595  52.3594666  50.4584217
 109.0319633   2.9392889  75.8908415 109.2042732   3.6381006  76.5218735
 109.7718525   2.3400164  75.9891367   4.2827791  11.8098366  87.3450184
   5.1921248  11.5537930  87.1908569   3.8931361  11.8473101  86.4715099
  16.6083074  22.6888943  48.6112261  17.2892249  22.0983934  48.9335489
  16.6806662  22.6402688  47.6580048  77.3745728  96.6651726   5.4606998
  76.4818239  96.3650131   5.6313813  77.2638130  97.4767876   4.9654815
  64.9737358 104.8547363  52.8887510  65.0579453 104.1480160  52.2486782
  65.7806396 105.3608990  52.7942228  40.3063393  19.7126830  38.7763429
  40.9900618  19.8542440  38.1215787  39.8879552  18.8932121  38.5124230
 110.6227684  36.9090891  66.0738802 110.9242153  36.5231466  65.2514410
 110.9927082  36.3449669  66.7529535  32.3721433  38.0783629  53.7615538
  32.3840952  37.5139904  52.9885244  31.4488697  38.1250191  54.0097904
   1.6196236   0.8169187  72.6013279   1.4261195   1.4471550  71.9073629
   1.0080840   0.0966606  72.4481010  48.8795090 108.6080551   6.1091655
  49.8292398 108.5446072   6.0080659  48.7009811 108.1994438   6.9561595
  32.5366902  39.4506502  73.3771229  32.5975704  38.4953880  73.3770418
  33.0790901  39.7252798  72.6377916   4.3130124  28.3064246  91.8367290
   5.0473219  27.8699684  92.2686195   3.5513079  28.0769420  92.3690605
  12.8363645  39.8415208  74.5979357  12.0206559  40.2831507  74.8341894
  13.4579372  40.1081181  75.2752876  96.8048573  54.8705149  29.6438313
  96.0798454  55.2447319  30.1443863  96.4756393  54.8204327  28.7464237
  98.0954838  48.9432192  46.7999983  97.9170895  49.8243952  46.4714718
  98.0136299  48.3796358  46.0306454  86.0812092   0.6995495  70.5055428
  85.4233170   0.1096986  70.1374531  85.5942917   1.4935295  70.7263231
  62.7059603   3.1078666  23.9317393  63.1125927   3.9643967  24.0630269
  63.0579281   2.5649822  24.6371651  21.7984819  10.9633148  90.0048256
  22.1519542  10.0969744  90.2066803  21.1111116  11.0994279  90.6569195
  22.2152233   8.8092786  69.3809748  21.9459915   7.9476374  69.0626669
  22.8498077   9.1162777  68.7334490 110.0110340 109.4510269  56.9814396
 110.6998634 108.7864399  56.9892406 109.2399406 109.0008259  57.3263693
 104.2940903  51.6520834  43.2334948 104.1867065  52.5880575  43.4027767
 103.4864712  51.2554216  43.5600471  44.2426491  47.9720497  64.6303129
  44.1098881  47.4695206  63.8265276  43.3877134  48.3618212  64.8130655
   8.9297885  55.8144140  66.8811655   8.3274412  55.4267168  67.5160694
   9.3035811  56.5693474  67.3356867  44.3499756  38.4368229  78.3434868
  44.5359850  39.2916489  77.9550219  43.8921928  37.9551530  77.6545286
  30.8722925  50.3811789  93.7788391  31.1674166  49.7820091  94.4645023
  31.0878515  49.9336481  92.9606247  18.2977593  87.4882030  78.6083984
  17.6342428  86.9980049  78.1229258  18.5665941  86.8962479  79.3109274
  93.9315701  27.0512366  84.6544456  94.8709011  27.0815039  84.8360348
  93.5596848  27.7441645  85.2001381  91.3566685 100.9614658  16.4854920
  91.8268585 100.1720810  16.7538655  91.0610294 101.3549232  17.3064816
 109.0740013  39.4878840  92.6194191 108.1870937  39.4698501  92.9790211
 109.3004513  40.4173470  92.5870037 107.2546196  41.9088030  55.0921154
 107.9720688  42.0991755  55.6964779 106.7575932  41.2128353  55.5220270
 114.8950005  52.7330112  63.7521410 114.2704678  53.2951975  64.2105484
 114.8873138  51.9134617  64.2466164 108.6311913  52.2911739  85.8011150
 108.6971855  51.3462877  85.6630421 107.8073120  52.4070930  86.2744236
  55.8426714  31.5883279  43.9239597  56.2422562  31.4825988  43.0606031
  56.1378336  32.4491787  44.2206907   4.9484497  34.4028091  86.0261440
   5.1152968  34.0841484  86.9131947   5.8187985  34.5092750  85.6422329
  53.4310102  42.2389030  90.8225632  54.0723848  41.5871239  90.5396366
  53.5329819  42.2781944  91.7735100   5.3635645  70.7568455  67.6823950
   5.4294699  70.1940727  68.4538698   6.0566622  71.4064884  67.7999115
 115.5633736  56.2395811  80.5253315 114.7933960  55.6940603  80.6858635
 115.2743530  57.1284866  80.7315826  58.6073112  95.0062180   5.6235260
  59.4837523  94.6377945   5.7346529  58.4477949  94.9646091   4.6806291
  47.5137091 105.6779575  25.8501220  46.7258883 105.2120495  25.5699396
  47.9661560 105.8951378  25.0350428  99.7423077  71.5650845  29.5902562
  99.0957165  72.1982718  29.9020696 100.5293179  72.0857334  29.4297218
  35.9589267  55.8452225  68.1302500  35.1108766  55.4019117  68.1074572
  36.3116884  55.6429958  68.9967918   6.4779967  81.7986584  76.5708351
   6.7850709  80.9490681  76.8872786   7.2633564  82.2242451  76.2268686
  93.7021065   9.0676022   8.1818706  93.6746693   8.5711819   8.9998233
  92.8567028   9.5149869   8.1447476   3.2557279  46.0394955  69.7481775
   4.2047000  46.0999012  69.8578787   3.0522835  45.1208544  69.9240732
  22.2582030  84.8422527  62.4642658  22.3290920  83.8902283  62.5340033
  23.0398488  85.1736450  62.9063463   3.8340083  61.9695568  92.7018929
   3.0211407  61.4641285  92.7059078   3.5707486  62.8487062  92.9739666
  36.1920381  13.0314624  86.2623787  36.8148637  12.9250801  86.9814110
  36.0795736  13.9785492  86.1810684  25.3141999  28.4768486  65.9687138
  25.8907580  28.1305552  66.6498089  25.6272292  29.3692517  65.8208561
  66.3696861  18.6655676  29.0666604  66.5752602  17.9814887  28.4294724
  67.0446062  18.5767388  29.7395778   7.2298175  28.3929539  72.8949451
   6.3379586  28.7282538  72.8033304   7.1177673  27.4577427  73.0654001
  49.1618299  46.5692759  38.1420445  49.0422058  46.3943863  39.0754986
  48.3309317  46.3128614  37.7419209  96.9895458  12.8059304   8.9371365
  97.8677940  12.4470329   9.0640885  96.4111137  12.0444942   8.9802206
   8.7619954  54.7006893  76.7009163   9.4134235  54.2790794  76.1404514
   8.3731568  55.3785229  76.1481237  60.5620718  92.4291325  15.8427274
  61.2127161  91.7376041  15.7215774  61.0785580  93.2279968  15.9490144
  14.2412710  53.6201525  51.4119387  14.1717064  54.1050911  50.5896091
  14.0742111  54.2742014  52.0905685  29.1222668  91.5563583  78.7681818
  29.0354133  90.9024620  78.0745649  29.3381548  91.0486031  79.5503616
  21.2444925  95.5922508  57.5274420  21.0613203  96.2800503  56.8874359
  22.1967316  95.4964447  57.5101662  22.4460173  99.0889835  30.6287527
  22.2326136  99.8309231  30.0628757  21.5988970  98.6945248  30.8361793
  47.8031874  34.6955562  60.1264238  48.1344509  34.2222571  59.3632174
  48.4994459  34.6158910  60.7784271  18.5359502  56.0288906  70.4370499
  19.1019332  56.4950323  69.8217392  18.5801101  55.1144791  70.1575232
  17.8486478  68.6982203  52.2389317  18.5494876  69.3490934  52.2766066
  18.1844735  67.9553461  52.7405167  15.0185013  89.3348312  84.2848778
  15.0702691  88.7725353  83.5119820  14.4349945  88.8673306  84.8825359
  31.6514373  39.4820929  69.1593361  31.6271853  39.4113111  68.2050657
  31.2071157  38.6929989  69.4694042   8.1205273  50.5695868  63.7524891
   8.1886971  51.2981606  63.1354237   7.3632240  50.0688696  63.4491587
  24.9126291  69.6443462  86.2477684  24.8479915  69.4322586  87.1789360
  24.0050745  69.6712589  85.9446907  22.5493813  59.7507954  94.2892933
  22.0205116  60.1834536  94.9596214  22.7188730  60.4336405  93.6402702
  29.4020009  35.1871634  74.0269184  29.0796232  36.0780621  74.1633177
  30.2522135  35.3024530  73.6025572 113.4564972  58.9275217  68.9146185
 113.2483196  58.7368584  69.8292446 113.1956959  59.8407030  68.7949610
  31.0061193  48.9200592  88.5268593  30.1968503  49.3874884  88.7337971
  31.6940379  49.5789671  88.6208820  29.6689343  61.5750027  75.2846289
  29.4818687  61.9616222  74.4291973  28.8069034  61.3957596  75.6601381
  29.5329332  39.8170042  73.2663584  30.4847741  39.8430395  73.3641005
  29.3221760  40.6038141  72.7636242   5.7641661  36.0735679  67.9610872
   5.0186622  36.3229799  67.4149609   6.3211274  35.5525732  67.3826456
  27.9308963  49.2677546  51.1152029  27.4269295  49.9833584  51.5027046
  28.2218242  48.7469244  51.8637514  16.1646688  73.9589071  69.0105343
  16.4189851  74.1908407  68.1173611  15.9110093  74.7905159  69.4109392
  29.7531509  62.0577240  70.9053469  30.4752922  62.1061659  70.2789307
  30.0883794  61.5103769  71.6154623  27.1680808   5.1289362  79.5613718
  26.8818212   4.3737867  80.0752163  27.8704190   5.5199212  80.0810719
   9.8366952  62.1720123  57.5967598   9.0097612  62.6300621  57.4464130
  10.4877615  62.6924038  57.1260834  54.7084427  87.0660877   1.6491941
  54.9714375  86.9177151   0.7408720  54.6464729  88.0180073   1.7281570
  58.0180883  78.7197018  83.4920883  58.0395746  79.6762514  83.4641933
  57.5441074  78.4675646  82.6996231 111.0438061  29.1627812  84.0924549
 110.9009457  29.8843312  84.7049809 111.4362431  29.5757365  83.3232307
  45.6573868  28.7376332  82.9392338  46.0322762  29.3194818  82.2780609
  46.3062620  28.0413532  83.0411530  23.8743758  40.8825827  75.5990791
  23.9438725  40.2106476  76.2772465  23.3549094  41.5777254  76.0030079
  34.1846895  18.8631392  66.4738703  34.5564008  18.6156607  65.6272221
  34.4545174  18.1627095  67.0678616   4.2385343  43.2902813  44.3685293
   3.4938434  43.1642151  44.9565554   3.8450173  43.5545778  43.5369492
   6.3569725  57.4054050  82.4927521   6.2765974  56.6734219  81.8812180
   7.3005569  57.5305986  82.5937748  23.1699228  57.0279980  29.4627452
  23.7301636  56.4574480  28.9365911  22.2860599  56.8661356  29.1328692
  16.5455866  57.2040367  73.8863373  16.7638898  58.1238985  73.7365818
  17.3133671  56.8450022  74.3311310  42.4579430  54.7559834  71.0435581
  42.0365334  53.9620733  71.3727188  43.1416416  54.9479532  71.6853809
  12.2132027  65.9533739  79.4927025  13.1670427  65.9667110  79.5717144
  12.0338321  65.2433443  78.8763332  18.3921230  41.4042807  71.4371157
  18.8059449  41.0926056  70.6322289  18.9911211  41.1359215  72.1338367
  40.0107050  34.0650225  71.9629478  40.3836727  33.2101369  71.7477846
  40.7461929  34.6729994  71.8877649  18.3338571  50.1392794  91.9646358
  18.3423984  50.5993366  92.8039837  18.8084602  50.7190132  91.3689041
  31.9812036  36.3753772  61.4040709  32.6100159  36.3231516  62.1238613
  32.0232844  37.2868919  61.1149359 102.3057461  65.3951836  72.4096203
 103.2628918  65.4028749  72.4162197 102.0636082  66.1641264  71.8935537
  37.3720598  47.1934986  38.6099744  38.1394935  47.0401287  39.1611147
  36.7281365  46.5530920  38.9124179  23.5661936  56.7024469  37.9699922
  22.8860688  56.2999535  37.4299359  24.2120481  56.0078239  38.0988383
   1.1349946  60.1246881  70.9356642   1.2437399  60.0801039  69.9857092
   1.8188022  59.5514822  71.2821817  11.5802324  22.6243448  61.3859463
  11.0583222  22.2378945  62.0891523  12.4589920  22.7054071  61.7566729
  32.4800301  53.1967211  56.7936563  33.1024599  52.5602102  57.1453190
  32.4125028  52.9774523  55.8643627   8.3648592  53.3914423  58.3575773
   7.9573822  53.1344795  57.5304365   9.0814459  53.9720392  58.1013680
  30.0924850  37.7675223  36.3127375  29.8831916  37.1356392  35.6248808
  30.7230067  38.3627892  35.9073615  30.4380488  51.8551493  71.3977098
  30.3074789  51.4742374  72.2660923  30.8483696  52.7031374  71.5673637
  11.4671397   6.5185106  33.2233930  11.3113177   6.6753364  34.1547132
  10.8242393   7.0694578  32.7768874  14.4820929  59.0190315  84.0474892
  13.9253509  58.2474566  84.1521072  14.1005194  59.6711731  84.6351528
  22.3394322  45.1999617  75.2795792  21.3885212  45.1258850  75.1988983
  22.4826932  46.0819054  75.6229258  30.5664659  72.6405334  72.5560379
  30.7305336  73.5577011  72.7754021  31.1654997  72.1490049  73.1179905
  35.0325370  57.4292135  63.6064625  34.6874213  58.2996321  63.8051939
  34.8698115  57.3150873  62.6701260  56.0192299  77.5120640  78.4745646
  56.0720158  76.5759373  78.2819414  56.2460136  77.9396772  77.6487637
  20.9953070  27.0291471  33.9902234  21.1804008  26.8300056  33.0724478
  21.1385489  27.9726744  34.0641832  28.9236927  98.0412769  51.4747858
  29.0122867  98.5777187  50.6869984  29.8242259  97.8491497  51.7362499
  67.2609091  34.2764378  50.7331944  66.8668461  35.1358652  50.5837536
  68.0598402  34.4618201  51.2267303  73.4099627  23.9171815  27.5847554
  74.3483448  23.9570546  27.4001527  73.2155132  22.9813480  27.6361132
   3.8451618  46.2035275  51.6922569   4.7995874  46.2334108  51.7586660
   3.6115482  45.3252411  51.9927025  17.4730802  48.0374670  51.0973692
  18.3507061  47.6630163  51.0212660  17.3382485  48.5016298  50.2711725
  56.0219145  80.5398560  16.2502134  55.9602165  80.6781387  15.3050661
  56.7999268  81.0311890  16.5138805 112.7316380  79.0053797  48.5260534
 111.8645000  78.6092758  48.6121416 113.1849670  78.7675285  49.3348455
  11.4505994  85.6882095  88.2814217  10.6693947  86.1108875  87.9246426
  11.8854487  86.3755322  88.7861347  35.7196283  11.4919937  84.2312336
  36.1094594  10.7691753  84.7229576  35.8440280  12.2577214  84.7919655
  36.3014793  55.1070833  78.3017778  36.4504433  54.1874456  78.0819893
  36.0222387  55.0923586  79.2172241  35.7629180  41.6516304  58.2741070
  35.6464601  40.7229519  58.0735445  35.0093722  42.0805645  57.8686285
  16.6629088  34.5546651  55.5391455  16.9181979  33.6331844  55.4952049
  17.3330426  35.0132847  55.0323725  26.1196971  68.7396097  58.9256525
  26.8967366  69.2563581  58.7125587  26.0881019  68.0640984  58.2482147
   1.5597939  47.0263338  40.6046629   1.4562111  47.6560879  41.3180399
   1.1469824  46.2262154  40.9296751  98.4237576  26.2080050  60.2596712
  99.3180466  25.8949447  60.1237535  98.0127430  26.1403871  59.3978548
  12.7998805  25.3854561  81.7656326  12.6313674  26.3076305  81.9591045
  12.1423638  24.9101377  82.2735500  44.4863272  53.9527464  52.0164156
  44.4387960  53.3968878  52.7942276  45.0566435  54.6770096  52.2741032
  40.5459070  25.4877663  44.8910332  41.3317680  26.0083723  44.7248363
  39.8410439  25.9753180  44.4647789  24.2774034  38.2583809  61.6150236
  24.3658280  37.3095226  61.5251207  24.9330044  38.4990740  62.2696114
  39.3606949  65.2243185  71.6833496  38.6970663  64.7968340  71.1419725
  39.0882325  65.0441360  72.5830889   3.8611910  54.2850161  72.4260378
   3.6992437  54.6418095  73.2993650   3.0571851  54.4677067  71.9397926
  20.3209639  47.5022602  62.0153427  21.2022042  47.2119427  61.7800474
  19.7449219  47.0317221  61.4128494   0.5971543  41.8439245  48.8961220
   0.5272309  41.2459087  49.6402407   0.8525705  42.6806831  49.2844868
  99.8259544  33.3012033  82.8230286  99.9385834  32.7981567  82.0164967
 100.1666164  34.1706252  82.6125813  77.9138231  27.3741198  16.9459963
  77.2763920  27.7094436  17.5764489  77.3829746  27.0452070  16.2205672
  10.3177774  34.7520733  87.5813866   9.8378164  35.5113268  87.2506332
   9.9497241  34.0090942  87.1031094  12.4689198  22.2497225  68.9836264
  11.8682134  21.6362977  68.5604286  12.4923694  23.0054522  68.3966398
  60.2293015  96.9055080  15.8968508  59.3520498  97.1280861  16.2085021
  60.5112028  96.1894798  16.4661133   2.0829637  82.0114899  81.3976765
   1.8425272  81.1197948  81.6492653   2.6846087  82.3000050  82.0839787
 113.5004425  65.9900808  70.6776857 113.8648891  65.9267378  71.5605211
 114.2656708  65.9983683  70.1027060  20.9784579  24.9706745  29.7359419
  21.2626982  25.5972862  30.4013729  21.3411212  25.3094816  28.9174581
  11.8176186  34.9666619  57.8131580  10.9235692  35.1875353  58.0741644
  11.7103207  34.3625093  57.0785046 100.2078533  11.8001771  42.9036045
  99.2649078  11.6383696  42.9338360 100.5609989  11.0653698  42.4020290
  18.1034994  67.2947073  35.8333254  18.2757235  66.3988781  36.1232567
  17.1500504  67.3755026  35.8585835   6.3044852  40.9359789  49.0671492
   6.6350210  40.1249075  49.4533396   6.0958588  41.4913034  49.8183632
   8.1726128  69.5040512  79.2702150   8.3750039  70.2037334  78.6491537
   8.3015358  68.6969185  78.7720728  39.5256162  46.6635990  40.4604864
  39.1674542  46.6907263  41.3477373  39.6367049  45.7310438  40.2754498
 115.2161217  82.6786613  64.1680050 115.3724003  81.8527412  64.6259022
 115.0634098  83.3147526  64.8667860  23.0552459  78.7358141  66.9599676
  22.8980350  79.3668413  67.6623392  23.4001756  77.9621935  67.4058008
  18.3616316  37.6986742  51.5266705  18.2711065  36.9723248  52.1434784
  18.5975492  37.2813535  50.6981707  12.3472106  64.6924782  65.9135628
  11.7821872  64.3342447  66.5981436  12.5735557  65.5691147  66.2242222
  89.8777390  33.8118696  59.3674707  90.3572845  34.0005922  58.5608435
  90.5596542  33.6763072  60.0253820  37.2396398  43.1901979  62.4562597
  37.9747868  42.9271793  63.0099869  37.5009298  44.0386391  62.0983410
  49.1932917  29.7224712  57.1534204  49.4926739  28.9689302  57.6621246
  48.7373257  29.3395948  56.4039326  13.9016628  27.4939990  49.0481997
  12.9922605  27.7869129  49.1066885  14.2722785  28.0055451  48.3290386
  67.3242617  33.1446075  57.8478813  67.5142670  33.0878353  58.7843132
  66.8480301  32.3380184  57.6507807 107.8490639  58.9988565  62.4426031
 108.1913757  58.4579420  63.1542683 107.7511978  58.3936262  61.7075157
  22.3809481   5.7903677  19.7635448  22.3750806   4.8993662  19.4138110
  21.6172934   6.2087399  19.3660164  23.0913901  79.2658901  50.8073378
  23.7040925  79.9755096  50.6142855  23.5134649  78.4824610  50.4547405
  90.3582191  18.2789707   0.5970199  90.9172535  17.7732956   0.0071003
  89.4885635  17.8929925   0.4923816 112.1262074  45.2935505  43.2350492
 112.6926231  45.5039454  43.9774370 111.5005112  44.6585178  43.5835886
   0.3746464  62.6369429  77.4240875   1.0614187  63.2431650  77.1464729
   0.6061922  62.4087334  78.3243847   7.4411446  34.5168972  84.8006248
   7.6015574  34.7033477  83.8755703   8.0015236  35.1347470  85.2701664
  59.5937204 100.8162785  12.9061282  58.8016176 101.0169888  12.4076104
  59.2780876 100.6184292  13.7878680  88.6466312   3.7079763  10.6074178
  88.4250164   3.0917850   9.9092567  87.9450989   3.6039573  11.2502801
  12.4452651  61.1009026  80.7819080  12.4876690  61.4614010  81.6676140
  11.5574491  60.7508183  80.7080650  37.7648616  47.8961325  65.7822514
  37.7777910  47.7300167  66.7248392  37.4268174  47.0858860  65.4008675
  48.7732220 102.5966644   7.4900776  48.3626556 103.1155968   8.1817293
  48.0413580 102.1709442   7.0435792  19.2597556  74.1664314  55.5185318
  18.9052904  73.2978678  55.7087374  18.7857640  74.7529316  56.1080980
 112.4830627  33.3450699  63.4449863 112.9528236  33.5164905  62.6287937
 111.7288780  32.8180003  63.1811094  37.6826262  58.5685968  74.1090631
  38.3183861  57.8532457  74.0913677  36.8496656  58.1543732  73.8836145
 103.0583477  23.8739371   0.3522955 103.3987713  23.1296015  -0.1439947
 103.4379196  23.7734866   1.2252613  85.5794430  62.6186800  66.3251877
  84.8578930  62.8724098  65.7496643  85.9616661  61.8483829  65.9047413
  31.3251710  75.5026388  77.8414536  31.4856100  75.4049015  78.7800360
  30.3744531  75.4355860  77.7527237   3.0900952  51.3440609  70.4112339
   2.8649753  51.0091162  69.5432663   2.9708025  52.2911835  70.3408194
  68.5067320  74.4707203  17.5854158  68.1182480  74.7837114  18.4023309
  68.3221483  75.1637459  16.9514751  29.0131998   0.5662936  69.4140196
  29.4201899   0.2998786  70.2384090  28.1829906   0.0903769  69.3919849
  28.4148383  59.4787645  49.5811319  29.0580368  59.9733067  50.0890255
  28.6680770  59.6223068  48.6692667  18.2235646  81.5393066  84.8974705
  19.1611278  81.3705921  84.9909687  17.8210866  80.6710052  84.9144554
  63.9297199 100.1611042  36.1473107  63.7032795 100.3643227  35.2397537
  64.4256592 100.9230709  36.4468002  21.1430526  56.9801569  61.5831709
  20.2467632  56.6705322  61.4526653  21.0429549  57.8275108  62.0169973
  37.7987695  83.9560223  66.8112850  37.9245973  84.8138332  66.4056349
  37.4541354  84.1513729  67.6826620 105.8457661  58.7776041  91.1674404
 106.3087368  59.0618372  91.9555378 106.3415718  58.0192232  90.8587933
  31.2955499  38.4944773  14.4726324  30.4454494  38.5818791  14.9038148
  31.1610174  38.8653445  13.6005139  41.7041588  67.2929573  80.3013039
  41.6631794  68.2113743  80.0347137  42.5831318  67.0095205  80.0496960
  26.7944336  30.7277417  36.6860199  25.8801126  30.5025649  36.5141344
  27.2035789  29.8977280  36.9307828  28.8919449  65.3999376  83.0942822
  29.0803909  64.7026014  82.4662304  28.1759048  65.8943844  82.6954746
 101.7545128  64.8967457  56.7800951 100.9605312  64.3993950  56.5839434
 102.1182156  65.1154661  55.9221268  18.3757770  56.8095970  61.8551445
  18.4768927  57.0500422  62.7761173  18.3685791  55.8524275  61.8568993
  26.6677928 106.0382938   6.9702291  26.3653398 105.3057098   6.4335024
  26.8822742 106.7251587   6.3390034  20.8604860  35.0193262  40.8615065
  21.1547852  34.2509651  40.3723812  20.0567865  35.2917528  40.4186964
  87.4445820  25.5134702  53.5597420  87.7854443  25.5953097  52.6690435
  87.5616932  24.5886326  53.7769794 115.2214050  14.0222538   2.6695043
 114.2757320  14.1245389   2.7766293 115.5907059  14.3272400   3.4982577
 110.7998466  39.6116924  73.5332823 110.4692650  40.0400305  74.3228865
 111.7520714  39.6387362  73.6269283   9.2151392  42.7576303  52.9675770
   9.1292953  42.6809835  52.0173168   8.3727813  42.4576235  53.3091307
  13.4865439  95.3215313  93.9912224  12.8117669  95.0490475  93.3694077
  14.2761552  94.8630142  93.7039852  38.4766221  59.0107250  68.6275482
  38.3643413  59.8137140  68.1187820  38.5474586  58.3186007  67.9701471
 110.2856064  64.8581362  52.6254129 109.7638035  65.2404070  53.3309746
 111.1912155  65.0594139  52.8611755  16.8741584  50.1828575  64.6874380
  16.4848280  50.9501314  64.2679787  17.3634696  49.7499132  63.9878941
 102.0537949  32.3645210  51.9200373 102.2461700  31.4365435  51.7855978
 102.9111576  32.7710605  52.0460701  49.3839455  34.1187096  36.1741710
  49.6141434  33.1964159  36.2864923  50.1952648  34.5921826  36.3580704
  16.0742152  85.6453896  68.1125116  15.6677437  85.9494114  68.9240456
  17.0109284  85.7917404  68.2443571  39.3851948  53.5289621  83.0882168
  39.2622566  52.7859974  83.6790752  39.2878103  54.2990685  83.6483002
  23.1507683  21.9665432  68.0638552  22.8007627  21.4405370  67.3447943
  24.1005421  21.9203019  67.9542112   8.0275506  19.2936409  80.0651073
   8.5217428  20.1121306  80.1107025   8.6879241  18.6249304  79.8835373
  10.8647132  16.5591168  58.2183456  11.4740670  15.8223712  58.1722307
  11.1776078  17.0829237  58.9558792  98.1117344  17.2037637  59.6041298
  98.9611912  17.6421678  59.6537113  97.9921627  17.0178282  58.6728096
  75.5876875  80.0627327   0.7647829  75.1749182  80.9210110   0.8607159
  75.5464411  79.6779203   1.6402565  35.9768581  45.9645510  59.8859835
  35.0304031  45.9362984  60.0261927  36.1147785  45.4650116  59.0812063
  49.9591970  47.5807571  44.4212818  49.4439077  48.1927681  44.9467802
  50.3096390  48.1139088  43.7077188   9.9715728  49.1980791  84.1766548
   9.7023392  49.9591875  83.6623955   9.2714006  48.5591459  84.0433979
  51.9835329  68.6116028  71.3195467  52.0449591  69.1428614  72.1134090
  51.6697073  67.7603531  71.6247034  38.1438994  63.6231804  80.3804779
  38.2718658  63.5186243  79.4376516  38.3620596  64.5393324  80.5516624
  54.0086079  63.1608248  82.0994759  54.0667772  62.2217369  81.9234943
  53.8600874  63.5566807  81.2407207  38.3848429  28.8298607  62.7259207
  38.9257526  28.0438471  62.8022957  38.5197473  29.2946196  63.5517740
 103.3178234 104.1758251  74.1259575 102.9547215 104.9604416  74.5367622
 102.6903057 103.9532757  73.4382677  43.3601856  59.3622494  78.0867004
  43.8363314  60.1759005  78.2524824  42.5001526  59.6467733  77.7774763
  32.2266173  44.7158384  71.3906050  31.7660403  45.5154276  71.6450834
  31.6551828  44.0064049  71.6845465  16.0920966  73.6533642  79.4617701
  16.5410137  73.0663776  78.8533688  15.1788497  73.3674192  79.4406223
  21.7599726  48.4300995  41.4898682  22.0989347  49.1898489  41.0164547
  22.5411940  47.9425716  41.7510939  82.4159813  24.5699167   9.8076051
  82.6534367  23.8575983   9.2139322  82.1144581  25.2718806   9.2309242
  18.3806181  42.2290611  52.9206610  17.7896142  41.5569830  53.2601595
  17.9228067  43.0541134  53.0816936  46.4157486  22.5036001  83.2703876
  46.3190365  22.9236817  82.4157429  45.5943298  22.6920795  83.7242317
  12.6129186  66.7896461  72.5966883  12.4607623  65.8488655  72.5072145
  12.2794342  67.1647882  71.7816496  10.2042353  42.2167635  62.4807501
  10.9155309  42.0577908  63.1012487  10.6455731  42.4739981  61.6712570
  98.1911659  43.6071253  80.0117111  98.6965179  43.1698084  79.3264389
  98.2203770  44.5344019  79.7760534  12.8277218  57.0398617  66.9445276
  12.8621745  57.9072666  66.5412331  13.6624265  56.9567776  67.4056101
  24.6806192  27.5087619  84.1822624  23.9237118  28.0196381  84.4691944
  24.5576620  26.6502881  84.5874023  21.2006617  63.4102058  57.3880816
  21.8272853  63.2651472  58.0969810  21.5880227  64.1128111  56.8660450
  11.4834619  20.5330586  59.0157795  11.2951398  19.7371793  59.5131159
  11.5804231  21.2140965  59.6813726  19.8666561  51.6200352  13.3406627
  19.0750337  51.0821629  13.3567405  19.8258150  52.0813370  12.5029492
 108.2108879  19.3674493  45.8676291 108.3326817  19.3958795  46.8166208
 108.9119625  19.9184251  45.5195618  48.3034611  35.7317686  79.3873787
  47.8958750  34.9449110  79.7492599  48.3164310  35.5816770  78.4421062
   8.7982190  61.8454361  93.5089016   8.0052096  61.3366508  93.3400631
   8.8554353  61.8901396  94.4633484  44.9399948  61.9606924  93.3483315
  44.4919729  62.3649025  94.0913868  45.3707695  61.1902761  93.7186241
  18.6831748  43.8260365  84.2101574  17.9705703  44.4224739  83.9806175
  18.6263275  43.1242037  83.5617447  59.8455381   8.3381385  69.5839167
  59.1965342   8.0472958  70.2245665  59.8527050   9.2917645  69.6662474
   2.3047884  59.8020554  54.4016027   2.5472271  59.0307951  54.9140644
   2.1364419  59.4623852  53.5226727  31.8389010  81.7701626  72.7656746
  31.1090088  81.6475773  72.1586609  31.5577984  81.3332176  73.5695982
  14.0201080   6.1620241  66.1873436  13.9959562   6.2169659  65.2320290
  13.1533504   6.4573032  66.4662218 105.5789375   8.5983706  10.2370763
 105.0952053   8.7369931  11.0513341 105.0709820   7.9376793   9.7662288
   1.7783903  67.5286388  41.1532593   1.2006311  66.8973589  40.7244158
   1.4990771  67.5254917  42.0687962  20.7543302  59.4539356  75.8541203
  21.6536856  59.6443224  76.1208534  20.5024433  60.2007103  75.3108788
  17.1950996  36.2067962  65.7165432  17.7041101  36.6315866  66.4069748
  16.9960892  35.3380537  66.0657024 111.6384029  35.5142689  71.0415316
 111.3347435  34.6157098  70.9126520 110.9363365  36.0579395  70.6841040
  47.8882360  54.9445152  74.6941566  46.9552851  55.1152039  74.5649290
  48.3230209  55.4683161  74.0212345  10.7895887  68.0315638  58.1015110
  11.2776577  67.2116518  58.0256033  10.2293646  67.9067755  58.8675451
  23.7375927  63.2756519  85.0473499  23.5110497  63.4071827  84.1266918
  23.6989856  62.3271751  85.1703644  31.8455553  63.0623484  20.2226233
  31.0249114  62.9629517  19.7400320  32.1981120  62.1743631  20.2810550
   1.5847148  36.1132693  68.6558676   1.5174854  35.5752969  69.4447279
   2.4885640  35.9970188  68.3629990  21.1148620  38.2867575  49.1636896
  20.3074455  37.9826164  48.7491894  21.0850978  39.2394423  49.0757275
  33.3272481  63.3916044  80.2926826  32.3844266  63.5492516  80.2430248
  33.7160587  64.2662096  80.3039169  41.4668036  58.1049442  70.4980850
  40.7142353  58.6028433  70.8174038  42.2233105  58.6513805  70.7110119
  37.6266575  83.0248260  85.3546429  38.3153105  82.4535370  85.6946754
  36.8113875  82.5730801  85.5725670 112.0860386  23.4822369  10.9213376
 111.4785480  22.8635263  11.3267744 112.8199005  23.5335302  11.5337455
  17.9758036  47.8986216  70.8936501  17.5512075  47.7663565  70.0460291
  18.8940668  48.0622673  70.6786060  44.1731215  54.4210815  92.5189972
  43.2584143  54.6671295  92.6568222  44.6164179  55.2466726  92.3237514
  23.4519053  92.7904320  38.0924249  22.8529572  92.5759697  37.3772311
  24.2846060  92.9782104  37.6593208  10.2890956  13.3579290  37.0908022
   9.8334795  13.5337627  36.2675595   9.7108090  13.7139630  37.7653790
  24.8237872  67.0946169  91.0628223  24.3595457  66.5424347  91.6919518
  24.3639064  67.9334736  91.0953236  45.2031565  70.2038574  56.7746687
  45.0007105  70.8478642  57.4532700  45.9930992  70.5412436  56.3523054
  19.0739822  74.8185158  47.9364872  19.9165511  75.0627613  48.3194399
  18.4456658  74.9283218  48.6502075  35.8677053  61.8491602  84.4586182
  36.0623598  61.9462919  83.5264683  36.3345098  61.0552073  84.7193146
 115.1066875  76.1003923  60.1438570 115.5684280  76.8419838  60.5351019
 115.7957077  75.5805826  59.7299957  41.4450359  60.9972286  93.6905384
  41.2110186  61.8839312  93.9648247  42.2327662  61.1110544  93.1587982
   8.2461512  88.2623959  74.4833708   7.8678191  87.9177284  75.2922583
   7.7988946  89.0975571  74.3466187 100.8873367  89.5823669  60.1380968
 101.6279030  89.0549469  60.4374552 100.9484100  89.5607567  59.1830921
  34.6165442  22.4823189  61.5318966  34.4424391  23.3780289  61.8210745
  34.2073059  21.9313979  62.1991634  33.1581426  95.6330681  79.2081213
  32.5478148  95.8640194  79.9083996  33.4128594  96.4728069  78.8257885
  46.1609077  42.9991579  78.0509996  46.0376692  43.9456844  77.9793167
  46.4585400  42.7298880  77.1820116  54.6816683  73.4976339  94.6029568
  54.3564653  73.4843254  93.7027931  54.0232849  73.0148506  95.1026440
  42.6210880  54.6053886  79.6576309  42.0412254  54.6868849  78.9004326
  42.1376562  55.0155640  80.3747654  43.5150433  33.0191326  79.6066189
  44.3481016  33.4905267  79.6005297  43.5902691  32.3905754  78.8886404
  43.4602356  25.8535814  80.5892181  42.6817513  25.3226662  80.4209137
  43.6682892  26.2487364  79.7425795 108.8437462   3.0321828   7.1238685
 109.2119980   3.2329723   6.2634581 109.4924641   3.3629441   7.7451575
  11.0724783  37.2195363  68.5720491  11.2614918  37.2667813  67.6348877
  11.1562693  38.1222725  68.8790894  56.9584846  84.9141788  73.1015205
  57.6234913  85.4699230  72.6951408  57.1535730  84.0336704  72.7807760
  39.9993706  85.9517288  61.5584517  40.6934118  86.5996456  61.4370584
  39.2827702  86.2617588  61.0047388  29.7401404  30.4602432  83.2063675
  28.9043331  30.9198356  83.2865620  30.4004788  31.1340690  83.3680534
  41.2218618  69.2784595  65.2903843  41.5646267  69.8608732  65.9682798
  41.0413074  69.8551321  64.5480347   9.3689626  55.5649328  63.5820341
   9.0296364  54.7148466  63.3019590   9.7582728  55.3965187  64.4401169
  24.9503565  89.9346256  94.5337486  24.1644239  90.3304672  94.1571140
  24.8642588  89.0010166  94.3408871  36.4821386  49.9658728  54.0108633
  35.8832884  50.1557732  53.2886791  37.3023868  49.7195387  53.5833788
  55.9338570  60.4170942  89.2363548  56.8341208  60.6112909  88.9754963
  55.4093599  60.6318998  88.4649944  18.4653723   1.6414362  18.2788956
  18.9476836   2.4322343  18.5202396  18.0987799   1.8382008  17.4168479
  40.7896662  52.4249077  72.0046902  40.4881763  52.8169823  72.8242111
  39.9890351  52.2759533  71.5016603   0.1381015  53.2631969  84.7936630
   0.7189704  53.6770678  85.4320526  -0.6511471  53.0494165  85.2912807
   2.5147519  70.5234814  74.9175406   1.8492621  69.8451662  75.0326157
   3.2115346  70.0937176  74.4215298 114.7341442  65.1945305  67.4358463
 114.1596985  64.5365524  67.8273869 115.3161526  64.6943808  66.8637133
  33.0074763  89.9106598  68.0440664  33.2158613  88.9952850  67.8572321
  33.8536716  90.3143883  68.2369041  54.8290920  74.1696453  67.9720211
  54.0730095  74.3260002  67.4062252  55.4587412  73.7171364  67.4107647
  59.4411182  22.2719955  77.9337740  60.2889776  21.9131732  78.1957150
  58.8059425  21.8086219  78.4797335  20.0697899  67.7088308  87.7674294
  20.5236602  67.2007132  87.0950890  19.7361648  67.0525551  88.3791733
  38.3799458  88.0075836  60.0860500  38.2214427  87.4808979  59.3026543
  39.1398048  88.5454082  59.8633718  45.5859709  61.0373306  78.7240648
  46.5153551  60.8364153  78.8341427  45.1977968  60.8512306  79.5790005
   5.8662707  37.9016495  75.9066105   6.6544437  37.9635119  75.3669882
   5.1869166  38.3334827  75.3886986  44.3306208  85.4670525  76.1892033
  44.8565340  84.7309399  75.8764887  44.8363066  86.2427711  75.9467745
  14.1039824   4.2874053  12.1395123  13.6929393   3.6731797  11.5312338
  14.9774361   4.4352058  11.7769325  28.3569479  90.3150368  42.6677942
  28.2297659  90.5856609  43.5770893  27.4749041  90.3017807  42.2962379
  34.8354149  70.5453014  78.0211020  34.1321111  70.3479671  78.6396885
  35.2727771  71.3116121  78.3922005   4.6417931   1.9487327   8.9395601
   4.2301923   1.0874917   8.8682824   5.2091807   2.0073840   8.1708837
  22.8007531  71.8754244  75.4840231  22.7119970  70.9372187  75.6517315
  22.9951692  72.2546101  76.3411427  78.1293392   7.5039184  15.4603243
  78.4085798   8.3691484  15.1609373  78.9249372   6.9724494  15.4322124
  17.0642567  60.8497810  69.7724152  16.9205236  61.2286186  70.6396246
  16.1851680  60.7425928  69.4091702  44.6902561  25.2014089  57.6778841
  45.5166960  25.6641078  57.8162336  44.8831511  24.5680952  56.9865561
  33.8013220  52.0489550  68.1008339  33.9761615  52.3535013  67.2103739
  33.0269527  51.4927244  68.0160141  49.9540043  84.4021130  60.5723286
  49.3681240  84.2622566  61.3162470  49.4868088  84.0272141  59.8257256
  32.8564692  59.5789576  68.0573034  32.6781726  58.8811493  67.4268198
  33.8114214  59.6382236  68.0852842  34.1393471  36.5246606  63.5028553
  34.8394060  36.8374610  64.0758371  34.4629002  35.6904316  63.1628466
  20.9795046 100.8356190  66.1680937  20.7679796 101.7434883  65.9506941
  21.8421984 100.6910133  65.7793999  25.5834842  64.6533728  62.5452948
  25.9170413  64.1000509  61.8390322  25.2828622  65.4483938  62.1050644
  40.1903582  42.5215626  76.3998413  39.4981003  43.1415033  76.6293716
  40.9711266  42.8618574  76.8366861  50.5196047  40.5668163  61.5047693
  50.1114988  40.6185007  62.3690701  50.4240704  41.4473391  61.1417484
  30.8093381  76.0883474  67.3530817  31.7331338  76.1062813  67.1030569
  30.8164668  76.1964369  68.3041286  49.8123741 101.2954617  69.4323206
  49.6799326 100.4612446  69.8826122  48.9279699 101.6281414  69.2793798
  37.3300767  59.5694733  84.7988033  37.9691601  59.6986294  85.4996109
  37.8136158  59.1036892  84.1165543  38.2478118  76.2167645  68.3248758
  39.1360426  75.8639765  68.2717896  37.7582312  75.7342148  67.6587772
  40.6127262  64.6046495  63.5197306  39.7156167  64.4658184  63.2161665
  41.1515045  64.4843102  62.7377653  35.1215076  73.9878035  68.4318209
  34.6579838  74.4987106  69.0954113  34.6613932  73.1486988  68.4109783
  25.5445743  77.0056057  90.0501156  24.9109101  76.9636154  89.3339157
  25.0429225  76.7627144  90.8283043  33.9536667  48.3440876  72.8796959
  34.4929099  48.5037374  72.1051264  33.8096690  49.2129898  73.2545328
  55.3216600  91.9569302  70.4402113  56.0441828  92.3797035  70.9043789
  54.7231388  91.6771126  71.1328220  54.5636559  17.7447307  53.2311440
  53.8084173  18.0889153  53.7079859  54.5742702  18.2381725  52.4109983
  21.1163807  69.4983625  71.1670065  21.5249681  70.3453827  71.3454676
  20.9559941  69.5038795  70.2233553  20.2149940  61.5301418  74.0488243
  20.3234625  62.4655104  73.8769054  19.5369411  61.2506199  73.4337282
  37.5270271  55.6504631  84.4670486  36.7312574  55.1425982  84.3087482
  37.5667048  55.7430267  85.4189301  44.4856739  71.4283705  70.6377029
  43.7102079  71.1689186  71.1352682  45.1139021  70.7219219  70.7876682
   0.9639679  77.9321003  57.2304916   0.9444148  77.7342319  56.2941694
   1.8467700  77.6879597  57.5085020   0.7926087  53.5554075  74.2367220
   0.1674512  53.3696985  74.9373817   1.5015823  54.0320778  74.6684361
  47.3322201  58.5195541  64.8055601  48.1886530  58.6496258  65.2127934
  47.0007610  57.7117157  65.1976824  15.9281337  78.9387703  61.7025757
  16.0332632  78.5013962  62.5474930  15.7816303  79.8580837  61.9253492
  31.6028452 101.0762978  91.6437912  30.9671021 101.0448170  90.9288979
  31.6515136 100.1744652  91.9609165  34.6184254  47.8548002  84.2081833
  34.9008822  48.6117554  84.7214699  34.3146420  48.2267475  83.3801746
  13.4472775  67.1265173  66.7975473  14.3924665  67.2767496  66.7808247
  13.0888987  67.9030752  67.2273779  63.2927179  79.1730690  93.8498402
  63.9762259  79.0080595  93.2003593  62.5156164  79.3826866  93.3317661
  97.6753235  22.7598262   6.9389701  96.8466473  22.3252773   6.7372674
  97.4966812  23.6905336   6.8044114 104.1058159 107.4243450  89.6057415
 103.2174492 107.5325871  89.2661572 104.6446896 107.2855377  88.8269138
  94.8439693   6.0668093  13.5775816  95.5093956   5.6489515  13.0309272
  94.8380375   5.5510974  14.3839550   2.8537300  12.5511241   7.4707615
   3.3651412  13.3483171   7.3322970   2.1576190  12.8146398   8.0726099
 103.7450504  57.1814203  80.6913090 104.4176483  56.6960382  81.1690617
 104.0581799  58.0859518  80.6895733  58.2222843  67.4571419  86.1838722
  58.2225180  67.2066879  85.2600193  57.5230742  66.9326401  86.5740395
  19.2275774  78.6390114  67.5685883  19.4934595  78.2644129  68.4083605
  18.8937843  79.5085907  67.7891636  46.2474585  80.5441570  74.2731619
  46.4250374  79.6039486  74.2464542  46.7177773  80.8548546  75.0467873
   3.6852044  32.1495938   3.6456978   4.1032517  31.8810654   2.8275532
   4.0862092  32.9934549   3.8538516  39.9249625  68.8605785  73.9167261
  39.2699051  68.6882448  73.2403898  39.8662305  69.8032093  74.0723944
  42.2000551  46.9047737  85.5644417  42.2733498  46.2648869  86.2725449
  42.8842258  47.5477266  85.7508755  40.8306694  71.6541624  60.1375246
  41.1201000  72.5195408  59.8484278  40.1120281  71.4318466  59.5456123
  18.0892289  74.5657969  52.8380537  18.2080710  75.4821682  52.5883198
  18.5264015  74.4900656  53.6862135  50.0559711  45.6918240  52.7193642
  49.4008112  45.0623846  52.4180174  50.8950901  45.2626944  52.5521564
  14.6741593  63.7339783  76.3303185  14.4648933  63.5542059  77.2468996
  14.7651267  64.6858931  76.2876654  64.0451717  69.5786381   6.1725461
  63.5634947  70.0388956   6.8598467  63.4494066  69.5757866   5.4233575
   3.7030512  68.7284327  69.7490883   3.2359236  69.4272518  69.2911816
   3.1451446  68.5180950  70.4979038  29.1275787  97.2629452  82.9767895
  29.7279429  97.9663181  82.7296829  28.8162899  96.9098854  82.1433163
  44.6016932  63.8818932  65.3208303  44.0479946  63.6255789  66.0583639
  45.3180218  64.3760300  65.7194901 108.6973763   5.1200360  53.1296062
 109.1350651   4.4821697  53.6933327 108.2239819   4.5887953  52.4893618
  94.4326210  39.1948199   4.2508325  95.2268028  38.6810303   4.1041368
  94.7425938  40.0967026   4.3330228  42.1704769  90.7682800  62.5636768
  42.8284788  91.3039303  62.1205711  41.5684223  91.4022255  62.9533911
  26.0273170  75.9016609  78.9019537  25.5387807  75.1039124  79.1048288
  26.0929251  76.3616848  79.7387934  20.1481581  38.2675385  12.4020827
  19.6645260  39.0935683  12.4043012  20.8076906  38.3743024  13.0875385
  18.4442580  81.5503025  81.8777084  18.3052039  80.6088448  81.7750168
  18.2548058  81.7211723  82.8002834  41.7709064  37.6560402  83.1833363
  40.9808636  37.1952534  82.9009533  41.9038773  38.3325195  82.5193119
  55.9139156  74.9792385  63.0288601  56.2810564  74.1201115  62.8206730
  55.9643936  75.0364494  63.9830112  20.3578424  47.3654795  54.0993547
  20.6624770  47.9424715  53.3989906  20.6876111  47.7687550  54.9023819
  16.4249778  48.5605526  77.2461557  15.5962920  48.1549454  76.9912148
  16.1765528  49.4210434  77.5838995  39.1391182  59.0076923  60.4738379
  39.1072917  58.6690998  61.3685894  38.2857537  59.4213152  60.3437805
  45.3354549  40.9327030  93.0418968  45.8283854  41.5530586  92.5048542
  44.6519756  41.4620209  93.4528923  78.3653116 105.1772118  11.3035321
  77.7875900 105.9166336  11.4925313  78.0732679 104.4868374  11.8987834
  16.1493087  47.8272104  57.5607491  15.2650547  48.0808878  57.2962236
  16.7244589  48.3056498  56.9636440   5.8505130 108.2499886  86.0834980
   6.2621307 107.8629875  85.3108120   5.3418237 107.5355911  86.4670277
  16.6722333  25.0104046  19.6394479  15.8495557  25.1756811  20.1000094
  17.3202169  24.9067855  20.3363085  67.8185368  23.6316681  53.8878489
  66.9439411  23.7899327  54.2431879  68.4138536  23.9595962  54.5618629
  11.8752992  37.0683169  75.7041168  12.7046800  37.4413657  75.4054642
  12.0909166  36.1674309  75.9452534  23.4130526  52.2439957  76.3407660
  23.6734056  51.5927601  76.9921827  22.8440237  51.7654896  75.7378817
  14.0219820  75.5065012  21.1528230  14.3396020  74.7376394  20.6793189
  13.9163303  76.1768007  20.4777217  95.3325081   7.8433990   3.6548680
  95.3785038   6.9035596   3.4793174  95.4423809   7.9156131   4.6029952
  94.3987846  93.9502239   4.3013972  93.8442135  93.2434082   3.9710975
  94.9878502  93.5220909   4.9226347   9.6977574  67.4563408  60.5929947
  10.4439068  66.9456005  60.9070635   8.9985538  67.2688341  61.2192440
  37.2746587  39.4879794  70.7473230  36.4822173  39.0064049  70.5099344
  37.3164058  40.2064466  70.1162195  47.5239611  68.0606651  63.8995314
  48.2586002  68.5213709  64.3048525  47.8897095  67.2188568  63.6278391
  49.6477222  74.8231649  60.6217194  48.8554955  74.3536711  60.3605890
  50.2913094  74.1339922  60.7862329  15.5923843  83.7897110  82.5259590
  16.1304069  83.9130592  83.3079815  15.6263113  82.8479767  82.3579979
  23.9618802  77.4848557  81.0522938  23.2558513  77.8177023  81.6063404
  24.0722895  78.1542540  80.3770542  22.3316002  64.1227198  76.7418146
  22.7042174  64.7736502  76.1471081  21.4761710  63.9161491  76.3652420
   9.3852669  81.4444351  52.1552277   9.0051633  81.7631054  52.9738855
  10.1336658  82.0202541  51.9985199  46.7567348   4.9585605  67.2234583
  46.7933989   4.9989405  66.2678099  47.2182083   5.7451260  67.5142956
 113.0328083  67.9558420  65.3313112 113.4676933  67.7791786  66.1655188
 112.2243309  67.4448538  65.3697443  31.1246705  31.3686419  86.7557526
  30.7340908  31.8234611  87.5019550  31.1470842  30.4491162  87.0207119
  54.8366117  65.7900572  58.1655073  53.8892984  65.9222794  58.2022047
  54.9477577  64.9987459  57.6385260  30.8712888  72.7005911  61.1225271
  31.4710879  72.9347467  61.8307924  31.0952997  71.7949057  60.9085512
  13.8784981  23.3777499  63.2134056  14.0041721  22.9756427  64.0729094
  14.6987462  23.2114029  62.7489138  26.1618328  86.6611958  61.4125824
  26.5527344  86.2059307  60.6668186  25.9448147  87.5304317  61.0756063
  40.5067110  63.1438875  84.5194721  39.7728872  63.0289507  85.1232243
  40.0952864  63.3078051  83.6708832  55.0807667 106.1094856  89.8979282
  55.6620598 105.5723763  89.3595600  55.6643581 106.5456390  90.5187511
  56.1511278  71.8920040  74.5219374  56.3495159  71.8750858  75.4582024
  57.0078564  71.8774557  74.0952730  11.4093006  81.8946838  59.9771976
  10.8937764  81.0952663  59.8704147  11.1283052  82.4589062  59.2568302
  11.5716445  78.7184429  57.5281239  11.6514063  77.8235197  57.1980000
  12.4131823  78.8943958  57.9489374  68.1983995  66.8992186   0.7080244
  68.2758665  67.4508619   1.4864346  68.3193016  66.0072422   1.0335903
  56.9535732  80.5831146  74.8357821  56.9433212  79.6882153  75.1753044
  57.5206900  80.5406952  74.0658426  52.6087523  79.0637589  64.0672064
  53.3459949  78.4701872  63.9244461  52.9852200  79.9392128  63.9772701
  34.5655727  75.3805733  73.3072138  34.0431499  75.2772665  74.1025972
  34.0563321  75.9806776  72.7624369  26.9655585  42.1760750   8.1696707
  26.5011382  41.5683174   8.7451476  26.6249418  43.0385065   8.4072137
  43.6872768  77.3848820  60.5195808  44.2354345  77.1685219  59.7652960
  44.1679859  77.0396614  61.2718916  15.1379955  22.3106456  29.4031262
  15.9645176  21.8625593  29.2233706  14.9504280  22.7981019  28.6009836
  41.1276245  50.5846357  62.8507805  41.1052608  51.4952183  62.5565624
  41.5529633  50.1120996  62.1352196  23.6667061  80.4328156  79.3652868
  24.0487623  80.8181000  78.5767317  22.7214718  80.4865551  79.2243099
  32.7948570  28.4383106  64.1877222  31.9516969  28.8481617  64.3809509
  32.7238488  27.5583935  64.5577717  16.4068699  49.5380974  84.5122242
  16.6306484  50.4444122  84.7237492  16.0396349  49.5818615  83.6293507
  18.5238218  72.6910019  64.3075562  18.5850680  72.6075125  63.3559704
  18.8988221  71.8771219  64.6440220  59.9057245  37.0241737  77.4961376
  60.4219913  37.1246505  76.6963816  59.6951151  37.9200339  77.7593994
  19.6717691  48.3964634  84.1436958  19.5346808  47.6261520  84.6951103
  19.7125828  48.0490255  83.2527161  19.0755117  28.1557298  43.4093189
  19.6067882  27.7366829  44.0863562  19.4653165  27.8649783  42.5848532
  32.4836493  70.9629917  53.0581760  32.9066014  70.3429985  52.4640799
  33.2088685  71.4314842  53.4714603  42.2648573  31.1532187  81.2154484
  42.1091700  31.6965961  81.9879341  42.9981518  31.5763426  80.7688236
  35.5512595  69.7357035  58.5849333  34.7333097  69.4889545  58.1533003
  36.1172676  70.0339890  57.8729677 106.0509300  94.8784733  82.8878689
 106.1965561  95.7733345  83.1948853 106.3937759  94.3255901  83.5900116
  53.8487148  54.5332193  59.3409586  54.7624540  54.5512247  59.6255493
  53.7471533  53.6818933  58.9153242  35.6183195  90.7360363  68.1603861
  35.1610923  90.8011055  68.9988041  36.5457225  90.8039284  68.3874273
  45.8956861  77.4997902  80.7172394  45.8495855  76.5491390  80.6153870
  46.8324280  77.6901674  80.7672405  54.6008205  80.5684471  81.9652176
  53.6720324  80.7472324  81.8182087  54.6323776  80.1623249  82.8314209
  18.9907908  71.6646338  93.4179497  18.8302147  72.3301697  94.0869141
  18.4596729  71.9422340  92.6715755  35.1714206  60.3440857  65.8791351
  35.5665541  59.8391199  66.5898466  34.2353249  60.1544094  65.9422302
  75.3412008  93.1478119   4.9567726  74.5729351  93.2442570   5.5195373
  75.0197458  93.3444309   4.0768623  19.8244524   3.8388461   7.8507459
  20.1460719   4.5042273   7.2424197  18.9208913   3.6808908   7.5771403
   4.7511703  81.5021992  56.1466837   4.5646665  81.9459152  55.3192997
   4.8844883  80.5863094  55.9025526  24.1696382  56.1814260  80.2649117
  23.6573982  56.3712406  81.0509205  23.6542463  56.5511894  79.5480585
  41.6923046  40.8165216  78.5463047  42.2403336  41.4393234  78.0688000
  40.8806896  40.7748365  78.0405617  33.4458494  51.5261602  79.4107676
  33.8907671  50.7371759  79.7202587  32.5379658  51.2530470  79.2789078
  10.1949573  66.6147995  45.3003693   9.2868763  66.5976810  44.9981642
  10.1295340  66.6193628  46.2553215  95.9553623  21.3538861  16.5395856
  95.1663113  21.1418891  17.0382643  96.6001511  21.5976477  17.2037137
  22.2060847  69.5758343  66.0958052  22.7595711  68.8396215  65.8352661
  21.4676118  69.1710329  66.5508032  33.1073570  62.0402527  84.9276447
  33.6365700  62.5657988  85.5276203  33.7172198  61.3919783  84.5754433
  46.6151571  45.4111052  57.7494049  47.4789906  45.8075094  57.6358747
  46.2301016  45.4208851  56.8731260  27.9718709  42.3112583  71.5529251
  27.3203659  42.0252132  70.9126520  27.9806757  43.2653046  71.4758110
  15.8342814  52.7216530  81.8883228  15.9931552  53.5576487  81.4500237
  16.4083934  52.7397585  82.6540279  32.0358968  72.3824596  90.8261681
  31.7225456  73.2374096  91.1212826  32.9886556  72.4715519  90.8028316
  40.2531910  72.6175594  70.0101185  40.5528355  73.1700182  70.7320833
  39.4225144  73.0080175  69.7385454  33.6406088  66.3379622  80.8433914
  33.2842422  66.3877010  79.9563980  34.1436338  67.1459627  80.9450722
  35.4163837  79.6763849  77.3116159  35.0527477  79.4972038  76.4444971
  35.2405858  80.6058979  77.4576569  31.2757754  60.2119493  78.7486649
  30.9381032  60.1306009  77.8567076  31.5019846  59.3169403  79.0016842
   3.1952617  20.9512854  17.9084778   3.4738526  20.9033680  16.9939709
   3.8594449  21.4942670  18.3330524 112.2658062  85.7636452  76.0941267
 113.0864334  85.9218979  75.6274796 112.0199203  84.8712540  75.8503914
  48.3538055  57.2593594  72.8292608  48.6085796  57.8147888  72.0924950
  47.7008533  57.7745533  73.3030319  25.4764628  33.5824704  63.0403137
  25.5685306  32.6857901  62.7182531  25.0051641  33.4922767  63.8685513
  28.5490656  78.5584879  84.8916531  28.2557178  79.0409899  84.1187572
  28.2372785  79.0793228  85.6317616  50.7912731  87.1080208  63.7029123
  49.9568605  86.6739559  63.8806105  51.2768126  86.4826202  63.1649923
   5.9333497  51.0749340  46.1933661   5.8023864  50.6873894  45.3279829
   6.6578984  51.6888857  46.0736942  70.9235620  93.8113594  25.7369709
  71.2793255  93.2497501  25.0483060  69.9823189  93.6377048  25.7252479
  47.8037119  35.1112747  94.0144920  47.0342875  34.9218798  93.4775162
  48.4685278  34.4955826  93.7059879  34.8684144  82.6906586  67.7330971
  35.7903934  82.4863434  67.8894472  34.5903802  83.1600094  68.5196352
  36.7420268  40.8384657  86.0120583  36.2014461  41.2400913  85.3318310
  36.9598818  41.5600729  86.6020203  22.3966146  82.9099464  89.7507763
  21.5580368  83.0971527  90.1726532  22.6104593  83.7131310  89.2760086
  29.1869020  46.6158581  68.3573627  29.9944925  46.9738865  67.9887915
  28.8085198  46.0977411  67.6470041  28.3070827  53.5554075  60.8548117
  28.7310243  52.8626585  61.3613749  27.9407501  53.1054688  60.0935030
  54.9775648  94.3139076  80.3519440  54.7530699  94.7285557  79.5189428
  54.6119690  94.8979187  81.0164070  59.0768099  86.1336231  81.7419529
  59.4075823  85.7268620  82.5428009  58.5733509  85.4420853  81.3123798
  39.9447107  37.2548103  65.3592491  40.2531576  36.9164038  64.5186663
  39.0394950  36.9501495  65.4224777  90.1097679 102.3247147  84.1825008
  90.3127193 102.7784920  83.3644962  89.8066235 101.4594173  83.9075375
  66.9699478  90.5344105  84.7654819  66.2717342  90.3165340  84.1480160
  66.7377520  91.4034653  85.0926781  52.2660160  67.9712009  82.5736332
  52.6594496  67.8810453  83.4415722  52.0532894  67.0751143  82.3128414
  16.9200623  82.2549057  71.5646267  16.2089717  82.6764393  72.0472145
  16.5233827  81.9930649  70.7337713  20.4477024  81.7624569  32.3653722
  20.4147482  82.7188587  32.3443294  19.5331383  81.4931107  32.4505544
  94.6596527  56.9702768  14.5185459  95.3202057  56.5758324  13.9490497
  94.8501492  57.9079676  14.4926035  33.4975696  56.0475111  57.8124285
  32.7491689  56.6290045  57.6782703  33.1605506  55.1737833  57.6143074
  62.1643925  71.1018896  79.1624069  62.7111292  70.3216410  79.0700817
  61.3112736  70.8387661  78.8171721  36.3119483  94.5733166  54.9918699
  36.3858175  95.4624939  54.6452618  35.3999352  94.5009708  55.2733564
  80.5231094 103.7659931   2.4346353  79.7998714 103.8659763   1.8156287
  80.7947350 102.8530121   2.3401633  37.9553890  69.0546703  61.0309744
  38.1703830  69.2374086  61.9456387  37.4572492  68.2378435  61.0606050
  24.5052147  64.8289299  64.9902534  24.4098186  63.8893175  65.1459932
  24.8546743  64.8900890  64.1012239  93.9569378   7.9587162  79.8450518
  93.8870621   8.6566454  79.1937113  94.8887157   7.9257059  80.0617027
  64.1389370  21.9989944  55.3611040  63.2846117  22.2608304  55.0178862
  63.9664936  21.7515492  56.2695456  34.5710278  79.0838289  74.8530483
  35.4563832  79.3690348  74.6271372  34.2882276  78.5626650  74.1016197
  51.9941902 108.8803864  82.5531483  52.4214125 109.0673637  83.3890629
  52.5878954 108.2733917  82.1112251  57.7714777 102.1077251  77.1653700
  57.6186514 102.8361416  76.5634775  58.6404037 102.2763634  77.5297356
  16.3248467  74.9686432  42.9793215  16.6095006  74.7296572  43.8614130
  16.0900176  74.1360426  42.5696135  99.5555019  96.0504818  83.7502098
  99.8014355  95.1492405  83.5415936  98.7143707  95.9711742  84.2001343
  33.3038306  69.1902924  83.5391426  33.5079718  68.3530235  83.9557171
  33.9170647  69.8101282  83.9340878  23.0330253  80.5849171  69.1648912
  22.8059554  80.7273674  70.0837946  22.6562500  81.3356590  68.7059164
  32.0572233  55.5363560  64.6226120  31.7537355  55.2722788  63.7540579
  32.3405099  54.7206211  65.0356007  90.4967880  51.6424370   7.1019095
  90.3709221  52.0862198   6.2631905  89.6260929  51.3207960   7.3357296
  38.5910606  70.9445953  58.7744999  38.4037995  70.2965546  59.4536209
  38.4519076  70.4760933  57.9514742  16.0716546  78.1367874  70.1172876
  16.5493858  78.2133532  70.9432030  15.5162251  77.3657703  70.2324533
  33.3175731  62.8719997  77.0888329  32.9510522  62.2501564  76.4601803
  32.9513907  62.6043653  77.9317522   4.8629338  21.0064197  15.2169263
   5.5530381  21.6273832  15.4501498   5.2601707  20.4461694  14.5501781
  61.1667585  90.9722805  93.9217758  62.1217823  90.9162045  93.9536858
  60.9525919  90.8847523  92.9929638  42.6605606 100.0721931  66.4303398
  42.5455999 100.9948444  66.6577911  43.5086441 100.0384903  65.9877920
  52.6291656  86.5841389  73.8746691  51.8759966  86.8202877  73.3331871
  52.2641706  86.4572144  74.7503996  27.3984671  98.6180782  38.3545589
  27.1092510  98.0825329  39.0933251  26.8006539  99.3656349  38.3521175
  35.7059813  85.8684158  79.3493986  35.0729871  85.2503300  79.7148037
  36.4516091  85.3250217  79.0944719  42.1655178  82.1844864  55.8894444
  41.8547010  82.8694248  55.2974367  42.9569387  82.5503349  56.2844658
  73.9171982  63.9387512  50.9890175  73.6886549  63.3120871  50.3025150
  74.8711443  64.0044641  50.9454107  18.2362938  84.0329361  75.7105064
  18.2885623  84.9076462  75.3252983  19.1412556  83.7212181  75.7206154
  31.4540601  80.2766705  88.0828476  30.9565473  81.0163498  88.4315491
  31.1329508  80.1730347  87.1870899 109.6730423  46.5414047  50.5475569
 109.4774151  45.6540346  50.8484411 109.6972466  46.4708519  49.5932674
  72.0003843   5.5691171  57.0101833  71.5243387   5.0186193  56.3884401
  72.5564766   6.1232418  56.4625168  39.4467998  32.1805739  93.1004238
  40.0667048  31.5300322  92.7706528  38.6114144  31.9400311  92.6997948
  15.2991533  94.5277023  73.5670948  14.8941970  95.2869415  73.9863729
  15.6014979  93.9848995  74.2952347  25.1819897  83.8931656  47.0559978
  24.6624899  83.3077526  47.6070452  25.9871650  84.0380287  47.5529289
  43.1577587  27.5419283   9.1147482  43.2620001  27.8974414   8.2321525
  43.4392691  26.6300797   9.0404558  81.4029503  77.2209787   2.4752970
  82.3072720  77.0084238   2.7060583  81.1082935  77.8047895   3.1742752
  34.6698427  57.5841618  73.7007093  35.0008416  58.1440735  72.9984474
  33.7528086  57.8402758  73.7991381   7.1315354  13.3801270   0.1367892
   7.8384715  13.8939512   0.5272469   6.4343941  13.3947814   0.7925416
  40.7679558  82.8332996  69.2357540  41.6831493  82.7222252  68.9782333
  40.2839804  82.2389507  68.6623859  71.4955854  86.0596752  59.5770788
  71.5510178  86.8492317  60.1153755  71.1038208  85.4037094  60.1536751
 108.2695103   7.5765288  46.9259357 107.8129482   8.2475382  46.4184666
 108.2443142   7.8990394  47.8268147  48.1176615  43.0262756  66.5371227
  48.0963182  43.7950325  65.9672165  48.9473963  43.1005764  67.0085526
   2.6043898  19.7779000  73.9900064   2.3651347  19.2649472  73.2180834
   1.8149613  20.2767563  74.2001915  48.4370422  65.5705929  82.8651428
  49.0700245  65.4210329  82.1628666  47.9000616  66.2987185  82.5525379
  61.1436224  80.1760864  91.9666958  60.8435297  79.3441343  91.6005802
  61.4128160  80.6896877  91.2051296  10.7692361  57.5557947  85.2939415
  10.7742465  56.7940140  85.8735085  10.5391943  58.2892227  85.8643627
 111.2707138   6.5124291  91.9994926 111.9637966   5.9650600  92.3686123
 111.3347149   7.3371291  92.4811554  55.5986881  97.9331112  79.2626476
  56.1886930  97.1816540  79.2039633  56.1452389  98.6851311  79.0346670
  47.2843170  66.5023041  74.9919796  47.8872919  66.7940617  74.3082142
  46.7856550  65.7937241  74.5851803  66.5889645  71.5926504  65.6735659
  67.2540283  72.2150660  65.9677172  67.0887756  70.8431816  65.3499699
  52.8853989  92.5863838  58.2508564  53.4379196  92.3171234  58.9846468
  52.9641342  93.5400963  58.2291031  71.8161583  87.6772881  12.1345079
  71.2756062  86.8923473  12.0455599  72.5523472  87.5296593  11.5408254
  32.1089768  98.4449291  79.8403406  32.9965019  98.7948322  79.9184513
  31.6886973  98.6704731  80.6702328  58.6727571  72.0079422  70.9188175
  58.7948751  71.2967300  70.2899361  58.1678200  72.6660156  70.4410982
   3.0624962  90.4883862  86.5602779   3.2022780  89.7373104  85.9835815
   2.3785037  90.9989738  86.1270618  51.2064648   2.1693984  60.9922695
  51.5190268   3.0710551  61.0667706  51.1363792   1.8646719  61.8969584
  14.7127748  42.3604727  75.8738899  14.8683786  41.6135073  76.4518690
  13.8054943  42.6119947  76.0465479   9.2782205  73.2311583  60.4123402
   9.5952934  72.3313046  60.4894876   8.3969688  73.1442595  60.0489140
  11.4048529  66.8989563  69.9082422  10.5830240  66.6844702  69.4668579
  12.0498312  66.3136578  69.5111799  10.5916941  49.6272326  57.6196432
  11.1059034  50.4277325  57.7246332   9.9944264  49.8193121  56.8967247
  44.3134403  72.3812151  74.0462494  44.6183681  71.4760685  73.9833117
  43.5928297  72.3479939  74.6754122  21.5702152  65.4738951  86.0648441
  21.8111491  65.5507040  85.1416588  20.7699299  64.9487686  86.0606384
  19.4777513  58.0611467  73.9157009  19.8835611  58.4111309  74.7088337
  19.4234252  57.1181202  74.0705681  61.3574600  85.9649277  66.4101171
  60.7638216  86.5733242  65.9700298  61.6286278  86.4266300  67.2035503
  37.9829454  64.0739536  62.6150703  37.1151996  64.0707016  62.2110462
  37.9257059  63.4189606  63.3107233  71.7652512  87.5504208  61.8384218
  71.3849640  87.7490616  62.6940823  72.2801542  88.3269501  61.6190624
  48.5056496  60.6985235  88.1871033  48.7612391  59.8980284  88.6454964
  47.8407621  60.4136515  87.5602055  26.0468292 103.5841656  44.8923111
  26.6526914 104.2651939  44.6001625  25.4849577 103.4222794  44.1344690
  28.9737964  61.8247700  82.9412174  29.7314763  62.1925116  83.3961010
  28.2186699  62.2314358  83.3662319  34.7154188 108.1239033  57.6936436
  35.6431341 108.0119610  57.4861574  34.4667220 108.9344311  57.2493219
  37.5274730  73.9152288  64.0322685  37.5264359  72.9580307  64.0318823
  37.4250913  74.1552258  63.1113195   7.7852190  83.1779957  81.4215279
   7.8834504  83.5034943  80.5267429   7.0931703  82.5193787  81.3621902
  81.0534668  90.1219559  61.4993429  81.4976120  90.3630257  62.3122740
  80.6854534  89.2560005  61.6751814  42.5423431  85.2724648  71.5131187
  42.2915745  84.3541908  71.6137123  43.4781790  85.2885246  71.7135715
  37.6795530  85.5803585  92.2125244  37.4244738  84.9166203  92.8533268
  37.9813409  85.0786781  91.4552498  50.8415937  72.2733784  61.8222427
  51.7229891  71.9562721  62.0192719  50.6838417  72.9603004  62.4699211
  39.7956371  81.0256958  71.9515038  38.9828420  80.5270100  71.8683815
  39.7127056  81.7281055  71.3065386  44.8447227 103.6158848  42.2993088
  44.3484783 103.7983608  43.0972290  44.2577887 103.8728714  41.5881872
  47.1181536  74.1305733  66.9997692  48.0032015  74.4383669  67.1951962
  46.5464020  74.8327351  67.3100901  50.1826143  79.5496511  63.0288696
  50.8665419  79.0646076  63.4906101  50.0000954  79.0237141  62.2502136
  81.9780731   3.6872074  84.3584347  81.4687634   4.2583549  84.9334335
  82.8551769   3.6820880  84.7416973  23.3901262  37.5496221  11.5043283
  23.8540053  38.3662224  11.6892946  22.7738500  37.7766800  10.8079958
  39.3514252  76.3099813  80.8564377  39.0751147  77.2236013  80.9284496
  38.5701346  75.8049917  81.0818195  98.3469391  33.1599021  33.4577942
  98.0641270  32.2858191  33.1890440  97.5324631  33.6450267  33.5901403
   6.8435389  85.4573822  58.6142778   6.5017986  84.5671272  58.6973333
   7.1725529  85.6700897  59.4876242  16.3907909  47.6936388  68.7750721
  15.9101629  46.8724871  68.6704731  16.0328877  48.2684946  68.0985546
  29.0506458  48.6360550  78.2167864  28.2632375  48.2681084  78.6178255
  29.0102863  48.3506536  77.3040199  83.7655830   9.0036184   4.1145280
  83.0591774   8.9090359   3.4755605  83.6524868   8.2613575   4.7082353
  48.8627768  87.4777412  60.3345251  49.0618467  88.3287907  60.7248116
  49.0371704  86.8471432  61.0332155  11.4572537  39.7232032  22.9285789
  11.5605533  38.8734221  22.5002861  10.5816936  40.0147104  22.6743126
  38.9995432 108.7616825  73.1019640  39.0829325 109.3512821  72.3525238
  38.0641222 108.5640144  73.1482792  11.5050685  62.4357033  83.3378601
  11.3725686  63.2911444  82.9293346  12.1864033  62.5861645  83.9931297
  56.9221783  90.2614689  78.8150978  57.7534628  90.0259113  79.2270565
  56.9860744  89.9083328  77.9277182  37.1607280  76.7698812   7.2665477
  36.5163302  76.1110878   7.5253427  36.8519378  77.0864439   6.4176255
  43.7605524  88.7380886  74.5801210  44.6117067  88.3217812  74.4442511
  43.2215214  88.4236050  73.8543272  85.0295830  46.1569452   0.3329454
  85.5156517  46.7818689   0.8709337  84.5696545  45.6040382   0.9646034
  48.0247259  98.3919811  60.8709764  47.2873402  98.0823421  61.3969231
  47.9068184  97.9687119  60.0205803  53.1099939  16.4827693  65.8389139
  53.4275579  16.4472222  64.9366283  53.0869961  15.5683470  66.1209345
  66.1800194 106.9807625  48.8822365  66.9862127 106.6009903  49.2316008
  66.1072540 107.8302383  49.3173456  45.4504395  59.3594074  63.0517197
  45.2137661  58.7079096  62.3915911  46.2892008  59.0552855  63.3984470
  13.3180642  90.4298210  69.8079729  12.9389143  90.2326393  70.6644726
  12.8832245  89.8236084  69.2082500   2.5849876  28.6452484   9.8394710
   2.7899042  29.2002130  10.5919695   3.2095009  27.9222059   9.8979825
  43.6070681  72.2948837  60.8950377  43.5972929  71.3652802  60.6670523
  43.5771990  72.7484226  60.0526333   9.6746880   1.2106416  48.6820555
  10.3913212   0.6564998  48.3728695   9.6262437   1.0371810  49.6221590
  27.5512600  92.9164791  68.5758829  26.6075110  92.9771423  68.4279251
  27.9269600  93.5850906  68.0031395  43.3424377  12.8158903  62.1267891
  42.8422594  12.9869246  61.3287926  43.6209869  13.6817276  62.4250650
  39.9804091 106.3396931  73.5465622  39.7946858 107.2782803  73.5182524
  40.0414753 106.1356640  74.4797659  60.5324888  78.9391804  81.3259506
  60.9412146  79.7940445  81.1903572  60.7858181  78.6908913  82.2149944
  13.7784195  60.6595039  92.2715378  13.1264567  61.0111475  92.8777790
  13.7567115  61.2565756  91.5236950  54.8524666  97.8203201  67.2679520
  54.2873192  98.1545258  67.9644775  54.8078251  96.8685341  67.3592615
  39.1765428  87.1964073  78.1414413  40.0229359  87.3123646  77.7097034
  39.3929362  87.0878220  79.0675211  71.8565035   5.7143468  59.8241377
  72.3334122   5.5931407  59.0031004  71.0701656   5.1774609  59.7258759
  13.9528263  82.4729347  76.2315464  13.6667514  83.2942390  75.8317423
  13.1780970  81.9113636  76.2057114  31.0996938  39.1802168  86.7049122
  31.9464493  38.8747835  86.3794136  30.8316445  39.8537993  86.0798836
  18.0249202  76.0298681  57.2928238  18.2399404  75.6614399  58.1497097
  18.7877774  76.5598392  57.0617151  41.2194586  59.0149832  73.4901571
  41.9472599  59.2822838  72.9288340  40.4703522  58.9525127  72.8975677
  57.1114540  69.9082899  83.5132313  57.4756241  69.0942097  83.8609219
  56.3248301  69.6361589  83.0405807   5.5271876  84.5336723  73.3996582
   5.6016862  85.2046585  74.0782213   5.6338286  85.0117874  72.5773048
  18.3817327  69.7731543  87.2436047  18.2217681  70.0979567  88.1296921
  19.0531087  69.0997076  87.3529339  50.1242495  92.1197033  53.7952518
  49.4166660  91.9075012  53.1865358  50.1346159  93.0763435  53.8263464
  99.4533443   8.3770359   4.4479311  99.2315006   8.7062335   3.5769287
  99.4562435   9.1556537   5.0046879  33.2291627  58.0578852  61.1002350
  33.3325863  58.3205557  60.1856089  33.1514359  57.1043825  61.0682726
  48.9510679  96.8744469  85.8874226  48.6185122  95.9869194  86.0213375
  48.7807560  97.3216629  86.7164135 109.6474075  49.5464420   7.1865660
 109.0112495  50.1364660   6.7823321 110.2189636  49.2806053   6.4662242
   6.9526970  59.5179796  90.9143162   6.2862897  58.8419914  91.0374928
   6.7702353  60.1617289  91.5988064  55.9360266  70.6866837  61.4926243
  56.6293144  70.0268030  61.4807034  56.2384748  71.3628197  60.8863306
  44.5291233  49.5905638  67.3435020  43.9652109  49.2610312  66.6437578
  44.3857145  48.9858437  68.0714941  74.5114756  74.5103359  76.8869543
  73.9905453  74.8780775  76.1730766  73.9299011  74.5379639  77.6467180
  20.7380605  91.6358662  39.2545724  21.3882923  91.2845039  39.8628283
  20.6100893  90.9384346  38.6115789  29.9845839  52.7094221  65.1722288
  29.6495652  51.8159342  65.2475834  29.3095779  53.1776810  64.6809721
   6.9282317  44.8763847  49.5099497   7.5332117  44.9056959  48.7687492
   6.1084473  45.2293301  49.1640902  42.7597857  65.1562929  57.1838188
  42.3411942  65.7152414  57.8384829  42.2206306  64.3656254  57.1639585
  58.8709879  80.7657909  80.2424908  58.5294390  80.7391071  79.3486977
  59.3896103  79.9654818  80.3247070   4.2167956  19.0313745   7.4109143
   4.4137263  19.6248317   8.1356615   4.5216626  18.1756043   7.7124876
  44.4127226  92.0554829  56.8041086  44.4361258  91.1021137  56.7217541
  45.2242041  92.3515034  56.3916779  30.6375861  45.3548336  62.6840162
  31.3983274  45.3456163  62.1031427  30.3046703  46.2505531  62.6284838
  16.5828562  52.7544975  48.3807898  16.3764739  53.4717464  48.9801168
  15.7807434  52.6274061  47.8741407  26.8067741  86.7472839  84.9106216
  27.7122855  86.4843178  84.7459221  26.5073562  86.1556911  85.6009865
   3.4947422  10.7307076  64.3385935   2.6056778  11.0715330  64.2404366
   3.3942440   9.7803319  64.2845869   2.2567528   8.7626022   0.2874993
   2.8384590   9.2640710  -0.2837965   2.4082640   9.1243958   1.1606439
  59.6144962  73.3615971  79.9905968  60.4886580  72.9718065  79.9787998
  59.7497606  74.2620516  79.6954393  24.4529223 106.7274952  65.7142782
  24.6682739 107.3490810  66.4096022  25.2164268 106.1525440  65.6620693
  49.0149212 103.0841923  88.4160042  49.7989798 103.3347893  88.9045620
  48.3395243 102.9767990  89.0857315   6.6138321  68.1516314  39.7850037
   5.7484162  67.7775574  39.6196103   7.0081478  68.2360935  38.9168954
  54.6220446  88.1855106  73.5783625  54.7287512  87.9411030  72.6590633
  53.9148092  87.6235867  73.8950491  34.1943669  96.0879230  51.3810825
  35.1307893  95.8897686  51.3899231  34.1489625  97.0358944  51.5056705
  47.8616619  52.8166103  86.4053535  48.3483791  53.6371374  86.3274479
  47.2247601  52.9810190  87.1007347  64.8945475  79.9718428  59.8403597
  63.9615011  80.1370525  59.7048712  65.2138186  80.7549667  60.2887154
  59.0062523  82.0409775  85.9724998  59.1590595  81.2534809  86.4947224
  59.1344786  81.7568302  85.0674820 112.8830242  50.9167337   3.1849101
 112.7943897  50.4191875   3.9978221 113.8173103  51.1167526   3.1271809
  68.1982470  69.0591478  54.2294312  68.9403009  68.7523365  54.7504425
  68.4062862  69.9720907  54.0307093  52.3149776  86.4953995  66.5729952
  52.8663063  87.2652149  66.4328241  52.8150082  85.7709980  66.1969042
  24.9240828  96.8088913  59.7577572  25.2573872  97.6993561  59.6472645
  25.4585528  96.4385319  60.4601908  33.9871335  53.6221886  76.9159746
  33.2924414  54.2012596  77.2295237  34.1891336  53.0625916  77.6658297
  48.4575653  90.0987625  80.7442093  48.3018494  89.2995358  81.2474060
  48.1285906  89.8980618  79.8680115  93.7240696   4.1299808  80.1673317
  93.0088806   4.6015742  80.5943394  93.4108829   3.9759135  79.2760372
  45.3626776  85.5160999  66.6144514  44.9676943  85.5222893  67.4863386
  45.9761429  86.2508106  66.6241980  47.1244907  59.3355179  74.9168062
  47.7377224  59.0460157  75.5923557  46.7720032  60.1603603  75.2508926
  27.3585701  10.8307445  10.7058430  27.1687293   9.9134493  10.9027195
  28.3109784  10.8981359  10.7737231  59.2828321  84.6005917  94.4819736
  60.0192308  84.1863918  94.0320969  58.6821556  84.8492432  93.7794209
  43.4029198  56.9495773  83.0847931  43.2862902  57.2737503  82.1917439
  42.6756287  57.3323870  83.5754490  18.9709878  55.7033443  57.6273108
  19.7007692  56.2719011  57.8730679  18.1936371  56.1571598  57.9528999
  45.1192713  48.7424803  76.4618683  44.9544621  47.8075123  76.5839481
  45.0928593  48.8684988  75.5133677   2.8107303 101.5051651  59.2879152
   3.3513680 101.0235310  59.9139881   3.3657643 102.2299194  58.9999914
  64.9881268  97.3589325  69.7860146  64.7401047  98.1082630  69.2445230
  65.8304262  97.6071072  70.1670313  15.4246950  78.5744953  57.5028706
  15.1780534  77.8773308  58.1106186  16.1699152  79.0049696  57.9218817
  45.8776188  73.6195326  57.3214293  46.0947514  73.3152676  56.4402294
  45.2450418  74.3243265  57.1823740  38.0861926  78.6838198  81.5423203
  37.2312427  78.2538366  81.5221405  38.0520177  79.2487192  82.3143005
  47.3708248  56.0005474  78.7829924  47.9484272  56.6421032  79.1965294
  46.5569353  56.4785480  78.6238337  44.8329639  74.6876097  84.0740490
  45.3367949  74.5426989  83.2731819  44.1974211  73.9720201  84.0899658
  46.9380093  61.4970684  65.4562044  47.4111605  61.9635582  64.7671890
  46.3671684  60.8896303  64.9856853  40.9292126  63.7699604  75.7365561
  40.6314516  64.4500160  76.3407898  40.1306963  63.4676504  75.3038740
  33.4325242  47.3438168  59.4464684  32.4870563  47.2215843  59.3605566
  33.7486863  47.4073601  58.5452318  42.6023817  34.9961472  19.3277979
  42.9707432  35.8203506  19.6459591  42.1343851  34.6362925  20.0812674
  15.3719389  89.1331863  92.8223896  16.0807300  88.6957550  93.2940960
  15.0796866  89.8244381  93.4165287   5.6822860  37.7866125   5.5737561
   6.1516064  37.2912836   6.2450391   4.7574812  37.6624775   5.7872015
  28.1680083 104.5789337  90.5710888  28.0145788 105.2415562  91.2446117
  27.3566341 104.0717697  90.5448246  31.8122101  92.3372078  47.8497553
  31.6830730  91.5422153  48.3669901  30.9743714  92.7969074  47.9038954
  39.9296093  84.5619202  84.3697548  40.7125330  84.3167686  84.8628712
  39.3065763  84.8496151  85.0370598  45.9125900  87.3361492  74.8859787
  46.3534641  86.9379997  74.1354227  46.5866327  87.8731918  75.3024817
  20.8074927  93.2202530  81.2143707  19.9723887  93.6825848  81.1431313
  21.3188553  93.7431812  81.8318462  52.8853655 100.9935284  70.8333158
  52.2124529 101.6705322  70.9046221  53.1951571 100.8683300  71.7303038
  49.0411758  63.5202122  60.9561920  49.6817780  62.8610325  60.6890965
  49.4917154  64.3557310  60.8330870  43.3466530 100.1586533  55.0122929
  43.7952614 100.9189701  55.3822803  43.1721497  99.5937634  55.7650757
  23.0158877  20.1672149   9.3939602  23.3324385  20.6755495  10.1407003
  22.5737333  19.4145763   9.7867286  25.6953406  78.7821150  38.7636065
  26.2210131  78.1314659  38.2982492  25.0502229  78.2668638  39.2479348
  22.8983331  35.9691834  16.5436184  22.0846772  36.0991311  17.0307636
  23.0337214  36.7949510  16.0788536  63.9006615  76.3844252  56.6505766
  63.8004494  76.0256624  57.5323200  64.0847158  77.3134375  56.7894840
  48.8429976   9.8251086  76.3329363  49.1661692  10.6923914  76.0887814
  48.3938313   9.9629086  77.1669006  53.5802412  72.9980803  75.2449131
  54.3128204  72.4684095  74.9302626  53.7893295  73.8882494  74.9618626
  53.1513405  74.2117500  85.3746796  53.9910555  73.9519787  84.9956894
  53.2675123  75.1334763  85.6052303  34.4594383  61.1136246  70.5966663
  35.0224423  60.3572893  70.7616472  34.3181181  61.5000629  71.4609146
  77.2018671  83.0581951  61.5551853  76.6956711  83.6861515  62.0706129
  77.9156351  82.7925491  62.1350145  52.6195526  45.9496832  67.7935266
  52.2935343  46.8279266  67.5969887  51.8876410  45.3698349  67.5830269
  36.7072272  49.8909950  74.9681473  35.9838772  49.5009518  75.4589272
  37.2078729  50.3758717  75.6242561  14.6858263 102.0670033  88.8700676
  14.7662711 101.6177082  89.7114277  13.7783837 102.3706913  88.8465118
  80.9596825   7.1504843  93.4580040  81.7731380   7.0432007  92.9650307
  80.2677441   7.0246202  92.8086853  93.9829826  51.6096067   1.7841439
  93.2047939  51.1258125   1.5073635  94.0110588  51.4948988   2.7340308
  67.3526525  72.5857544  91.1501789  67.1716213  71.6629601  91.3288116
  66.6908979  72.8394794  90.5068016  33.1536341  88.1540775  52.7069378
  33.6984301  87.4040604  52.9454994  33.4026408  88.8382721  53.3283138
  49.6198225  72.7646828  80.6789494  49.7214031  73.5171700  81.2617683
  50.4675102  72.6842308  80.2417088   4.5501146   5.2634740  58.7517262
   4.0386748   5.6120521  58.0215549   5.1185590   4.6045929  58.3530045
  32.1457148  99.3478870  38.5542583  31.6445208  99.5398331  39.3468451
  31.4903188  99.0531826  37.9219294  37.2645593  91.4188194  55.7491159
  37.9209924  91.2855721  55.0653219  36.9800735  92.3255634  55.6345987
   1.4886338  92.2562408  62.9012775   0.8749675  91.9061947  63.5471201
   1.1190909  91.9999981  62.0562840  61.8788147  85.3478718  87.6801300
  62.2945547  85.7897568  86.9397640  61.1653519  85.9317303  87.9376316
  13.9541376  53.6032915   2.0856854  13.6341381  53.8866520   1.2292159
  13.3436835  53.9942217   2.7107859 102.0253086   1.7036766  80.3971958
 102.7791500   2.2042909  80.0851917 101.4258003   1.6835782  79.6512651
   5.4070240  61.9889975  22.3471665   5.5013371  61.1410666  21.9131708
   5.7246220  61.8389559  23.2375884  51.4194965  67.6421404  78.7594223
  51.1339474  68.3890629  78.2333088  50.6824923  67.4652243  79.3440247
   1.5591350   8.3514255  81.1719990   1.7569426   9.2681336  81.3636971
   2.4087512   7.9115999  81.2026215  46.7961550  87.5959015  58.5791874
  47.1991301  87.3320484  59.4063663  47.0320988  88.5183907  58.4813356
  19.6533918  63.3383656  16.1352181  20.2743769  63.9997578  15.8299780
  19.6547210  62.6729345  15.4471540  72.8174686   8.3563811  60.9254217
  72.3760176   7.5244343  61.0963488  72.6182652   8.8949907  61.6912222
  52.3543406 107.9370975  50.6170654  53.1984949 107.9243183  50.1659870
  51.7366028 108.2582378  49.9601746  15.3349650  48.6379623  87.7335262
  15.0312483  48.2522488  88.5552406  15.0304329  49.5447874  87.7676296
  49.3579531  93.9716053  24.3545008  49.6045589  93.9031124  25.2768493
  49.1071177  93.0816555  24.1069150  30.8083415 100.9967995  40.6387424
  30.6017208 101.6072178  41.3465023  30.3334570 100.1972961  40.8657217
  45.6509781  97.9973221  63.0408144  45.1512289  97.6934719  62.2830820
  45.3648233  98.9016342  63.1694794  57.8482723  80.1739502  77.7847624
  58.5445833  79.8848629  77.1950054  57.4738741  79.3630314  78.1289530
  89.3022633  28.0279636  71.6895056  89.8109627  28.1219673  70.8841372
  89.5148754  28.8094687  72.1996784   4.4961163  18.0298114  80.0438499
   3.9323294  18.1116652  80.8130550   5.2646625  17.5546014  80.3596783
  49.7175694  99.9384594  79.9173021  50.4055357  99.2952061  80.0880814
  49.3666363  99.6923161  79.0614462  25.6042480  24.1966629  17.0551074
  24.9826694  24.4696593  16.3803148  26.1969638  24.9421954  17.1505010
  87.8970528  66.4022732  49.7261906  88.1768608  67.2657299  50.0301218
  86.9999790  66.3141012  50.0482559  77.1924257 100.9899998  74.2890072
  78.1288671 100.8712673  74.4477940  76.8131733 100.1231098  74.4335747
  35.5647922  77.9088593  67.1503162  35.9308434  78.5142803  66.5055656
  36.1681628  77.1657753  67.1506977  63.9953279  83.0234241  57.1446133
  63.8514280  83.4642315  56.3072300  64.7330093  83.4901524  57.5373220
 106.9511318  10.6223226   2.1814789 106.3215446  11.2541878   2.5287437
 107.5994110  11.1572063   1.7233662  57.3572683  95.5995369  24.1055155
  57.8688574  95.0712204  23.4928274  57.9976416  95.9128189  24.7442722
  53.8998175  98.9850807  51.3677692  54.2555046  99.1029263  50.4869604
  52.9908466  98.7208748  51.2256432  78.5066175  99.0343380  14.3915427
  79.0179348  98.2899666  14.7088718  79.1621113  99.6740341  14.1134214
  31.9029498  85.9711075  47.2375154  31.5148735  86.6780853  47.7530861
  32.7652192  86.3027859  46.9870806  30.3937125 103.3036804  50.1232910
  29.4842076 103.5599327  50.2761650  30.4542279 102.4148846  50.4734278
  44.5436573 101.1147213  60.7939339  44.6585894 101.1012173  61.7441130
  45.4046440 101.3554859  60.4519320  46.4208603  76.2131739  60.1340151
  46.0256720  76.4841843  60.9626389  46.6293383  75.2874279  60.2595425
 108.8219070  23.2241702  63.2495594 107.9476833  23.2569194  62.8611088
 108.8890171  22.3417425  63.6143208  69.4763231   7.7515435  85.8291054
  69.4235516   7.9376811  84.8916626  70.4141951   7.6801980  86.0066986
  65.3304005  74.2105198  76.7740870  64.4702673  74.5832205  76.5804482
  65.1435375  73.3228159  77.0795155  58.6494637   8.8423485  19.9615991
  58.7187290   9.4104803  19.1943574  59.5418310   8.7928462  20.3043175
  14.7497046  12.8754580  14.3301213  14.2535806  13.5983098  13.9459610
  14.1585207  12.1244931  14.2773414  43.7344551  75.0308943  92.2071838
  44.6709013  74.9712706  92.3962593  43.3558226  74.2580652  92.6262283
   3.1199917  48.6834812   3.6678162   4.0264413  48.5973406   3.9630476
   3.0742186  48.1481600   2.8756225  66.5935993  77.8195906  59.3917847
  65.9912586  77.2293282  58.9390135  66.0680914  78.5959053  59.5851946
 107.3138332   1.5173171  86.0472393 107.1949768   0.8248464  85.3971672
 107.7861214   2.2062258  85.5797100  68.2836866 101.3755989  66.4701939
  68.6184645 101.5364361  65.5879879  68.1441069 102.2489357  66.8363190
  71.1191797  90.3947830  74.2857838  70.9205055  91.0761356  73.6435127
  71.5742731  89.7182941  73.7843037   5.5329114  70.1237726   6.0042131
   6.1735982  69.5387745   6.4086008   5.7774788  70.1439619   5.0790048
  85.9934139  94.7908306  85.9631443  85.7450581  93.8825417  85.7911873
  85.5478001  95.0101662  86.7814064  36.6115522  68.8160753  64.4197989
  36.9523692  69.4478178  65.0530291  37.3829579  68.3314133  64.1260862
  50.3928280  82.3594093  58.1791782  49.9287462  83.0811691  57.7550030
  51.3157606  82.6094055  58.1352758  40.4283047  93.6819839  66.7213011
  40.9016180  93.8739109  67.5308514  39.5254254  93.5319805  67.0015430
  28.6665773  87.0832729  35.0295305  29.5896649  87.2806549  34.8708510
  28.2030416  87.5105095  34.3092275  79.8838329  73.5019016  55.0236511
  80.8315372  73.6252022  54.9699116  79.6310997  73.2042122  54.1497326
  75.3473091  95.8387089  84.5902061  75.4923964  94.9581051  84.2442131
  76.1495590  96.3151550  84.3766117   1.6863739  27.3237920  81.2709904
   1.4280368  28.2192469  81.0526943   1.2508316  26.7817426  80.6131840
  88.8590431  61.9839668  41.6474104  88.5055161  62.6728535  41.0846567
  88.3205509  62.0206070  42.4379301  50.9873676  77.6397800  90.3327847
  51.7985487  77.1319056  90.3159714  51.2491798  78.4983635  90.6652260
  71.8214464  93.4859180  60.7302809  72.3800421  94.2616749  60.6812811
  70.9318829  93.8345814  60.7880783  54.2460537  89.3164635  52.4732065
  54.3813705  89.3602180  53.4197807  55.1239491  89.1965485  52.1110535
   2.1087734  30.0341177  83.3283806   1.5764242  30.4758072  83.9900017
   1.5817934  30.0752950  82.5303650  28.6604667  22.6087046   4.5089632
  28.6841273  23.4214997   4.0039527  27.8449988  22.1844888   4.2419702
  53.0025482  93.3770275  69.1861105  53.8287020  92.9454517  69.4039154
  52.3466158  92.9169273  69.7098398  38.4733915  98.8113117  66.6179371
  39.3494701  98.5065174  66.3816833  38.3710551  98.5582161  67.5353813
  46.6305065  69.4475269  84.8382378  46.1787176  69.9647093  84.1714191
  47.4711657  69.2237663  84.4389153  80.6785393 101.8804836  60.9278584
  80.4101181 101.9675064  60.0131941  80.1817799 101.1295795  61.2528419
  62.9983759  80.1220226  54.9433231  62.9045630  81.0446930  55.1801968
  63.4325743  79.7239923  55.6978273  40.4744482  84.3444347  58.6330223
  40.7062817  84.3632698  59.5615292  40.9781837  83.6133862  58.2751703
  98.0064106   8.6901015  82.4224567  98.8313293   9.1214401  82.1995449
  97.6055813   8.4882224  81.5769863  53.3518314  73.1981945  65.1102638
  52.8135300  72.4067736  65.1210356  54.2500687  72.8780508  65.1934338
 103.2649422  10.6318617  92.6592255 103.7494278  10.4889977  93.4722996
 102.6666069  11.3514590  92.8602314  37.1446800  88.8686180  47.6488781
  38.0204487  88.6935043  47.3045015  36.9095802  88.0706978  48.1224680
  27.4440789  89.3789482  46.4770269  27.3417950  88.5720444  46.9816875
  27.9668093  89.1217899  45.7175159  90.1917839  75.0916529  86.9158649
  89.3021393  75.0113201  87.2598267  90.4177189  74.2074251  86.6272068
  55.5571556  97.5168228  52.9200077  55.1275110  97.7847290  52.1076918
  56.1518478  98.2381439  53.1255960  37.6972747  89.1422462  72.0143127
  37.9651856  89.5121288  71.1730957  38.5036707  89.1087341  72.5289297
 115.1409912  33.3292270  49.7408867 115.2744865  33.8272882  48.9344454
 115.9973335  33.3318591  50.1685524  64.7783232  91.5477562  64.0893650
  64.2861223  91.7322826  64.8893166  65.6894779  91.4894962  64.3768311
  41.9344759 104.7594070  81.5528870  41.8985176 104.0419102  82.1854591
  42.7979088 105.1512337  81.6839600  36.6827321 104.5138836  57.4111128
  36.1655402 103.9863777  58.0197859  37.3363304 103.9069080  57.0637941
  16.0504460  12.8578925  48.3343601  16.5067112  12.8637719  47.4929190
  15.5368936  13.6656642  48.3339977  52.8875923  96.6942787  58.8052034
  52.7722549  96.8655205  57.8705359  52.2143412  96.0470009  59.0149784
 115.1424503   1.9345267  75.8515310 114.8577023   1.7678279  74.9529982
 114.9753189   2.8672948  75.9865952  66.7754602  88.7704849  88.7379932
  67.2221088  88.5638428  87.9169941  66.3070917  89.5854759  88.5573006
  24.1793180  94.1962337  46.1658287  23.3169246  94.6007729  46.2599230
  24.2109299  93.5358906  46.8580627  66.1160326  86.6827393  70.2368784
  66.6289854  86.5913105  71.0398388  65.9808254  85.7843590  69.9354410
   2.1088862   9.8362201  68.0859947   1.5822315   9.0709013  68.3165503
   2.9873294   9.6269047  68.4034157  52.8744221  80.1481724  87.6343536
  52.2948217  79.7012281  87.0174789  53.6507511  80.3662300  87.1185970
  23.5940266 102.9978275  89.5203018  24.3778419 103.1634140  88.9964294
  23.9126849 102.5124168  90.2812767  26.4948630  37.2151971   5.6846356
  27.4493957  37.2622561   5.6309569  26.2572479  36.4958143   5.0996059
  36.7229295  93.0417442  80.3291035  36.9846678  93.4772682  79.5179033
  37.5444174  92.7320290  80.7104969  77.0244026  13.1658089  45.8132124
  76.7781115  12.2433794  45.7446718  77.9698563  13.1730056  45.6639004
  13.5116351  40.0581741  19.1551399  13.2652962  39.2038321  18.8006675
  13.9060867  40.5198002  18.4151816 107.8176308  47.7320290   8.7140644
 108.5795021  47.9965258   8.1984925 107.2650051  47.2531128   8.0964226
  58.4311628  83.1372547  65.0573635  59.1039848  82.7373219  64.5063639
  57.7329302  82.4835968  65.0952816  25.4610991  85.2895546  37.8989863
  25.0304151  85.2153778  38.7505960  26.2885427  84.8207188  38.0074000
  50.5053949  71.7161274  93.9011097  49.6003294  71.4923906  93.6842537
  50.4514027  72.1195221  94.7674751  42.1259356  81.3647461  65.9950781
  42.2248268  82.1015263  65.3920841  41.3659906  81.5935421  66.5302134
  75.0282192  98.7077045  46.7210150  74.3423223  99.1602325  47.2119141
  75.3428602  99.3585587  46.0936260  42.4281549  88.0861473  72.2909260
  42.1083593  88.6144543  71.5595913  42.4836206  87.1979141  71.9385052
  69.2581701  78.5882807  82.9924202  68.4461594  79.0935898  83.0315304
  69.1382313  77.8918695  83.6380672  31.6626525  91.3411903  80.9331989
  31.7172408  90.7962513  80.1481628  32.5000167  91.2065125  81.3769531
   8.1024212  89.6349049  71.9160318   8.7374288  89.9033451  71.2520027
   7.9354906  88.7112617  71.7282629  45.8622456  85.3398228  56.4366484
  45.2691364  85.6874657  55.7706165  45.3983974  85.4727650  57.2633266
  61.5601969 105.4426670  77.0567083  61.3620853 104.5602417  76.7431641
  61.6064787 105.3538322  78.0086517  43.3543301  93.2200718  77.2459269
  43.6061716  92.3252583  77.0176363  42.7167034  93.1166077  77.9522991
  30.0622916  64.9931669  74.0768337  29.5611334  65.5135775  74.7047234
  29.4158149  64.4100142  73.6790419  27.6797175  92.6607609  75.6267548
  27.9669666  91.7640400  75.7988262  28.3857131  93.0424881  75.1051378
  51.0104895  35.5667496   5.4207462  50.0928974  35.7461286   5.2156007
  51.0816908  35.7287264   6.3614511   4.0877393   1.6404463  90.0443172
   5.0279409   1.6506790  89.8650265   3.6896360   2.0107815  89.2565441
  82.7416897 106.3860607  31.6746259  82.0825958 105.7171059  31.4893723
  83.5713100 105.9087086  31.6843081  28.1976628  41.4815378   1.1028608
  28.8541317  42.0940447   0.7710262  27.5055361  42.0404434   1.4561562
  64.7697353  13.7622881  38.5013199  63.8772345  14.0357351  38.7132144
  64.7004223  12.8209591  38.3421755  90.7308006  97.1114635  66.5262699
  90.6813622  96.3020897  67.0349026  90.5777645  97.8063965  67.1664858
  70.4855490  92.1631622  71.8032694  70.4305220  91.8865585  70.8885622
  69.6015263  92.4617195  72.0168066  44.7637510  79.1211748  68.2982588
  45.5833292  79.3146229  68.7533379  44.0806198  79.3363142  68.9333057
  60.3451729   8.4925556  54.8726273  60.2037382   8.6100727  53.9332533
  59.7123766   9.0802199  55.2854776  21.3060331  31.8288541   8.9547873
  20.7607222  31.0624599   8.7772882  22.2038388  31.5123463   8.8547790
 108.0164909  58.7303686   5.8886242 107.4408722  57.9760551   5.7625139
 108.1017303  58.8104296   6.8386543   1.7498590  45.4326820  72.1963930
   1.5905292  46.2222385  71.6792393   1.2079993  44.7613621  71.7817259
  22.9323030  94.5418739  40.2369404  22.7888346  94.0040684  39.4582176
  23.7814927  94.2551327  40.5729294  86.9584656  91.0042858  90.9100437
  87.1654892  90.7432365  91.8073845  86.7431355  91.9347000  90.9749126
  98.1073666   5.4016739  77.6556540  98.1471920   6.3578260  77.6761532
  98.8741875   5.1192760  78.1541252  55.2589846 100.9838009  69.1467905
  54.5191145 100.9230423  69.7510529  55.0036621 101.6635704  68.5231209
  83.2402134   5.5980992  49.8222971  82.4538326   5.6116146  50.3678799
  83.2190228   4.7429654  49.3927240 115.3161335  41.3376474   4.7869882
 114.4733429  41.5149260   5.2047241 115.5259323  40.4393959   5.0426435
  31.6400647  78.1901503  78.7149048  30.9291935  78.1911850  79.3559122
  31.8236995  77.2631884  78.5623980  74.0914583  15.3499126  81.9812870
  73.9578438  16.2503159  81.6852188  74.0138960  15.3971028  82.9341698
   3.9492762   7.9153597  93.3657551   3.5642114   8.5611004  93.9581871
   3.6562023   7.0710659  93.7085533  14.3400168 108.1053829  91.3670063
  13.4912455 107.8633785  90.9965324  14.2246461 109.0094376  91.6595840
  59.1251612  97.5758171  52.5508928  60.0472069  97.3345947  52.4621153
  58.8682508  97.8662872  51.6757631  83.7169456  22.0335007  77.2796583
  83.0152225  22.1322799  76.6361809  84.5145130  21.9621468  76.7552280
  69.0386009 103.4835148  77.2491407  69.6492910 103.5304832  77.9847240
  69.3141174 104.1889000  76.6636896  66.9550991 109.5035744  53.3582401
  66.9147539 108.6992264  53.8755751  66.4890671 109.2917633  52.5494242
  78.3838606  74.5105410  80.7205963  78.6241770  75.0032759  81.5052605
  77.4396181  74.3762827  80.8019257  83.9134789  93.2826233  72.4283934
  83.1225204  93.8010693  72.2806549  83.5916233  92.4426079  72.7555275
  61.0358381  73.3903694  59.9799681  60.8526611  74.2536402  59.6092367
  60.8914089  72.7826691  59.2546606  63.6182356  76.9631863  77.4556017
  62.8939247  77.0918894  76.8431950  63.5732079  77.7184391  78.0419445
  48.8389587 103.5478497  64.2384481  49.0723467 102.7846527  64.7669363
  49.4387579 103.5155869  63.4931755  47.1075821  85.6436253  80.0383282
  46.4475298  84.9746895  79.8564291  46.8318987  86.0326767  80.8683109
 112.4841499  42.1856451  21.1314249 113.0693531  41.8620539  20.4465461
 113.0644703  42.3940754  21.8635559  68.0542183  10.0008166  89.2146683
  68.8658524   9.6560150  88.8423920  67.6628733  10.5104995  88.5052299
  31.1106563  69.1741753  77.1744108  31.0542011  68.7273598  78.0190420
  30.8082056  70.0644541  77.3537302  46.0196352  68.6351538  68.6181259
  45.1348877  68.7328815  68.9701366  45.9095430  68.0843735  67.8430414
 112.4796200  21.2958407   6.8953717 113.0788898  21.6154575   7.5698733
 111.9408226  20.6436467   7.3432243  15.5905664  17.5320685  35.6900549
  15.3027833  17.9010975  36.5250564  15.4272187  18.2267928  35.0521612
  70.4480696  96.0003471  81.7086029  70.9616566  96.8059921  81.6503429
  69.8909569  96.0146523  80.9303665 107.8841400  74.2344522  13.3849239
 108.3386517  73.5222435  13.8348246 108.3373642  75.0270891  13.6722398
  85.6048393  93.2311344  61.3607836  85.3013229  93.4266186  62.2472858
  86.0156727  92.3695850  61.4328146  16.9562292  92.3793507  62.5143671
  17.0742846  93.3023643  62.2900057  17.8335881  92.0025063  62.4475431
  50.9810638 102.2494888  66.9118118  50.7302046 101.9191837  67.7744818
  50.3505898 101.8526363  66.3107729  24.9174976  94.3642235  79.0813065
  25.4417944  93.8932228  79.7289944  24.0679908  93.9233112  79.0943766
  79.7382736 102.3343563  72.0651722  79.7310781 101.7978191  72.8578329
  80.0393295 103.1937027  72.3603392  16.9250309  59.5280218  11.4678741
  16.1601412  58.9601231  11.3747907  16.8214846  60.1841497  10.7786691
  51.6396904  97.2977352  92.1788979  51.0954189  98.0046749  92.5256443
  51.5035057  97.3329830  91.2320900   1.5528458  13.5394824  83.1745243
   2.0753184  13.3472288  83.9531708   0.6603293  13.2941878  83.4183979
  54.2239046 106.1373138  93.8996315  54.8832273 106.8102169  94.0691090
  54.5451880 105.3647232  94.3645191  52.0339727  99.0575027  40.4835749
  52.9658508  99.1889572  40.6583834  51.9838762  98.9280319  39.5364952
   4.4232094   3.7721127  76.3712835   3.9899564   4.0652677  77.1728992
   5.1253188   4.4076940  76.2323236 115.2708054   4.4127777  66.3237476
 115.4246902   4.5642695  67.2562695 115.5372810   5.2293169  65.9012747
  53.0082369  84.0222359  86.3635731  53.7724972  83.4594727  86.2393665
  53.3071136  84.7022629  86.9672775  51.6740847  41.4540195   4.3799335
  52.5753880  41.1318064   4.3721783  51.6459370  42.0691729   5.1127541
  67.8234482  89.3889523  80.5250931  68.3316469  89.3015862  81.3315201
  68.3840227  89.0123558  79.8467398  37.7266049  78.4727859  62.8787708
  38.3067966  77.7199602  62.7653694  38.3180189  79.2213964  62.9565477
  51.5617657  85.5869865  84.5227814  50.9663057  85.5269623  85.2698135
  52.3127317  85.0479317  84.7711658  17.2566772  41.9275522   0.7164005
  16.8311274  41.5604591   1.4912461  16.5584028  41.9849300   0.0642103
  67.7506208  73.2115555  78.4625673  68.1483459  72.5418663  77.9061842
  66.8612528  72.8947020  78.6202431  18.4435093  56.1702871  64.6894646
  18.7638497  55.9057140  65.5517960  17.7297676  56.7802477  64.8758841
  48.0892467  66.6437244  72.3823643  49.0287638  66.4877748  72.2863436
  48.0091238  67.5958443  72.4396229  16.2209380  93.8473320  75.9911633
  16.8451142  94.5535183  76.1583042  15.6767631  93.8174248  76.7780638
  33.7162495  99.4439983  88.9817142  33.9911962  98.7168598  88.4232426
  32.8459597  99.1926670  89.2910099  18.6334550  40.4838657   4.3441623
  18.9214623  40.0351477   5.1391059  19.4367754  40.8430338   3.9674613
  46.5368462  51.3395357  76.0740423  46.0786438  51.6777086  75.3046751
  46.1661720  50.4674768  76.2094736  38.9063001  97.1302986  72.7379274
  39.6159577  97.4434948  73.2987547  38.3087873  96.6813183  73.3359480
  87.2220325  66.2207651  46.8717527  86.3466263  66.5973330  46.7817831
  87.4546337  66.3715839  47.7879286  54.0363979  92.8271770  65.5573463
  54.4147539  92.4436188  66.3485193  54.7894764  93.1581116  65.0678682
 102.1585464  78.8517666  78.2789516 102.4581814  78.0728531  77.8101778
 101.7430496  78.5098362  79.0705824  58.6890554  83.3786392  69.5947409
  57.9336309  83.0910397  69.0820456  59.3777132  83.5235691  68.9459133
 100.9958839  54.8385143  22.4956441 100.0389767  54.8610735  22.4884748
 101.2252140  54.1914558  21.8285918  65.1658964  98.4536839  18.1184411
  64.8914909  97.9527760  18.8865769  65.7076502  97.8447914  17.6164544
  42.7007961  90.0683308  55.1872349  41.9479561  90.6579685  55.1448774
  43.3422518  90.4557419  54.5916843  41.6460657  95.1484203  62.1052504
  40.7799721  94.8292637  62.3587370  41.4847183  95.6922245  61.3342237
  79.3599749   1.2775500  67.9774094  79.6668911   2.1822581  68.0368948
  79.1866779   1.1442029  67.0455170  41.2450171 104.3957233  58.2195568
  40.4053068 104.0872955  57.8789806  41.1488342 105.3468132  58.2685471
  47.2812557  92.6382160  81.4240265  46.6924620  93.0098248  80.7671642
  47.4713516  91.7564297  81.1038017  26.5460348  95.7056141  46.1359024
  25.6511807  95.3659534  46.1457491  27.0746374  94.9986839  46.5061188
  22.9554391 105.5680466  58.6621952  23.1981063 106.3115120  59.2141056
  23.3350539 105.7705307  57.8071356  65.4753304  61.2892485  57.3841095
  66.1124611  61.6883850  57.9765463  65.2447271  60.4603386  57.8035784
  94.3618584   3.7812039  86.9615746  95.2974987   3.8536251  87.1501827
  94.2488003   4.2416862  86.1300659  35.6467223  48.0292749   7.4420589
  35.5528212  48.0079603   6.4897144  35.2041125  47.2361517   7.7441865
  10.8737874  74.5226002  42.7474165  11.4318895  73.9369249  43.2590246
  10.1102591  73.9906263  42.5232267 109.7438049  27.8013086   3.0898860
 109.6526241  28.7488008   2.9890111 110.6823158  27.6632810   3.2178617
  99.7447586  10.0239170  64.8038054 100.1017380   9.9477822  65.6886816
 100.3818989  10.5620337  64.3339872  45.6702566  50.4807377  60.9929276
  46.2440205  49.7249508  61.1186695  45.2117491  50.5749130  61.8278742
  84.9493122  75.5691195  82.0546913  84.7968578  76.4750910  82.3233986
  84.0849018  75.1596403  82.0916939  78.3299780  71.3001966  87.8140163
  77.8502655  71.6542053  87.0651722  78.8374186  70.5739021  87.4517536
  70.0032377 104.8604298  90.2765942  69.7193670 104.9511814  91.1862183
  69.1892862 104.8225975  89.7743130 114.4575882   6.9781333  49.3302155
 115.1123333   7.6685327  49.2258739 114.6024418   6.3959599  48.5843468
 114.4890213   5.1072508  79.0130997 115.3204060   4.6562871  78.8659096
 114.4220543   5.1814526  79.9650669  40.0694132 101.8897247  85.1447010
  39.8259974 102.8150272  85.1165104  39.5132327 101.5164757  85.8285046
  93.6432457   2.4177378  58.1699896  92.8361988   2.0740631  58.5531282
  93.8136673   3.2252306  58.6549091  58.1572342 101.0683537  44.7063398
  58.5411310 100.7980251  45.5404711  57.3801374 101.5704250  44.9518490
  30.2292967  30.4945660  -0.1025400  29.5313573  30.9945941   0.3206412
  30.7783508  30.1907182   0.6202663  73.4744978  16.3644385  58.4627533
  73.5099411  15.5730426  57.9254723  73.0199432  17.0051038  57.9157972
  10.3575349  90.0066185  74.2278719   9.7733223  89.2559719  74.1208076
  10.0113428  90.6670666  73.6277199  43.5589170  95.7808971  73.0053425
  44.2158175  96.3950634  72.6774406  43.9953136  95.3251362  73.7251186
  63.6561060 103.3257008  78.9140749  64.5419359 103.5900021  79.1624308
  63.4377003 102.6191902  79.5218277  61.1108637 108.1229591   2.2762269
  61.7036724 107.9440689   3.0061638  61.6439486 108.6113262   1.6488917
 115.3746891   6.0582989  54.4274473 115.2305794   5.9668916  55.3693104
 116.2858009   5.7950163  54.2978859  41.8652773  54.3277836  89.4157791
  41.7412472  54.1887617  88.4768867  41.4892673  53.5484457  89.8250294
  34.6359587  44.0719366   4.5786449  33.9035058  44.6860170   4.5271459
  35.2258229  44.4565392   5.2270055   3.4106582   0.7247932  44.3228579
   3.9160678   1.4142832  44.7534323   3.0140364   1.1557977  43.5657835
  41.9533682  98.6493492  57.1656513  41.8226528  97.7087498  57.0456076
  42.7160740  98.7137413  57.7404261  23.6100745  51.0482550   6.6022062
  24.0934157  51.1162424   5.7788038  24.2211413  50.6235790   7.2042698
  88.1139755  11.4482725  65.7890511  88.8949871  11.3293397  66.3295126
  87.4847984  11.8777990  66.3685942  75.7576132  26.8550205  60.4663467
  75.4624557  27.6770902  60.0747919  75.6214666  26.2008190  59.7809887
 113.5975170  29.7729182  19.6246231 113.2183933  29.8765850  20.4974031
 113.4074974  28.8653064  19.3872070  58.1699371 100.8287525  41.9920397
  58.5327768 100.8850193  42.8760147  58.3900261  99.9446201  41.6986227
  77.7765226  20.7297349  54.4460726  77.5202417  20.3817368  55.3001499
  78.7300587  20.7995605  54.4922209  97.9420471   2.9065675  82.4253368
  98.5546207   2.9440704  83.1598949  97.1035099   2.6744825  82.8243637
  46.3827229  95.4246712  69.0520811  46.4194918  95.0456333  69.9302626
  45.4769707  95.2927589  68.7720060  96.9166470   4.4217271  85.2952194
  97.0149803   3.7293613  85.9488201  96.3081264   4.0588436  84.6515942
  74.8869991  24.9095082  86.4847279  74.9202490  25.8491611  86.6641140
  75.4952097  24.7830200  85.7565022  57.0958471  65.2870417  91.3770294
  57.0263386  66.1550045  90.9794903  56.8727541  64.6813154  90.6702328
  83.3379841   1.6931370  74.3238497  83.6281681   0.8930701  74.7619343
  82.6126766   1.4113757  73.7663841  26.4095759  32.3204327   7.2347522
  26.2282872  31.5467978   6.7010355  25.5598140  32.7508259   7.3290789
  76.5899897  97.9952717  73.4857655  77.0753336  97.5446892  72.7946424
  75.7454777  98.2056236  73.0872869  55.4332638 107.9125977  85.2828217
  54.5212221 108.1221581  85.0816059  55.4204035 107.6449490  86.2017536
  79.9345160  18.3943713  72.1137667  79.6514940  17.6551437  72.6519823
  80.8860779  18.3036053  72.0635176  77.7928257   1.6964708  77.7126789
  78.6324596   1.3985251  78.0626440  77.2535896   0.9063469  77.6786423
  83.6365223  99.1176128  77.7763414  82.7019978  99.0270901  77.9625893
  83.7914658  98.5296440  77.0370722  67.9783964  87.7773094  67.8639317
  67.4660826  87.5290394  67.0944309  67.3318768  88.1169128  68.4827328
  10.9195054  10.6358242  38.1843185  11.0333812  10.9904635  39.0660763
  10.7482266  11.4028692  37.6379347 101.8738461  -0.2310166  36.0234928
 101.9131947   0.2980606  36.8202114 102.5255299   0.1617306  35.4427361
  64.3397808  73.0744696  59.5773268  63.4738111  72.6789427  59.4778919
  64.6866322  72.6920795  60.3833675  49.8900127  78.9980698  82.6406288
  49.0121508  79.1364574  82.9962158  49.7594357  78.9459419  81.6938114
  41.4773655  91.5959549  93.5509968  42.0722198  91.4671707  92.8122234
  41.9173765  92.2424984  94.1029072  82.8693008  12.6647830  41.0423946
  82.5903511  11.8134677  40.7052231  83.4638405  12.4541175  41.7623758
  52.5507212  99.8838806  73.2444859  52.6839638  98.9753628  73.5148191
  51.9533682 100.2437210  73.9001656  89.3778229  17.0223665  83.5581970
  88.7156773  17.4257255  82.9968643  89.7141171  17.7445388  84.0888596
   7.0726681  12.8072405  86.5404224   7.3759782  12.7483690  87.4463844
   6.2639463  13.3167696  86.5912342   5.7914674  22.7841401  75.0671721
   6.1824346  22.3033643  75.7967138   5.3763229  23.5436273  75.4759073
  74.6163416  14.8173237  60.4392910  74.3895006  14.9315071  61.3621855
  74.0298939  15.4130650  59.9730253  36.4712143  13.1573141  74.8267460
  37.0466518  12.3983121  74.9217176  36.0299325  13.0199242  73.9885187
  95.3047562   9.0730840  32.8317094  94.4263172   8.9509594  32.4716401
  95.2063751   8.8984454  33.7676859  60.8893585 105.9245396  57.5030518
  61.3972759 105.1333141  57.3235798  61.0792542 106.5036201  56.7649221
   1.6239300  84.0964413   5.2032900   1.6093275  83.5208797   5.9679747
   0.7009567  84.2531967   5.0038385  43.5729837  93.4190178  61.3581800
  42.8713560  94.0426159  61.5454531  43.4152937  93.1453133  60.4546022
  36.8337607  88.9949989  86.9396782  36.1434531  88.5084438  86.4891529
  36.5348148  89.9041939  86.9246960  64.9884939 106.1686134  78.5481930
  64.9579525 105.6425667  79.3473101  64.2293453 106.7479515  78.6136580
 107.0268631  29.0454578  71.7045259 106.1814308  28.7754273  71.3459730
 106.9574738  29.9961638  71.7915630   3.1484535   6.9788122  35.5985737
   2.9877365   6.4008546  34.8526740   2.2850177   7.1099126  35.9903955
  22.9415536  35.6890869  13.4871149  23.0918097  36.4132762  12.8794944
  22.0827007  35.8708334  13.8686538   3.5596153  41.3021851  50.2572870
   3.0760199  41.0879755  49.4594908   3.8577414  40.4560757  50.5911255
 100.4802036  52.2074604  53.6837626  99.7598648  51.7195463  54.0828753
 100.7881069  52.7904129  54.3777275  69.0206528  67.7998829  73.0550241
  69.7033167  67.9645205  73.7054825  68.2011223  67.8730440  73.5441542
  77.1288586  27.2227097  78.0100155  77.7722073  26.5316010  77.8528357
  77.6532507  28.0124426  78.1425667  66.4516497 104.7484493  59.4319534
  67.2957039 105.1949692  59.3653917  66.0780144 105.0639534  60.2548075
 110.5897331  23.0704975  55.1520348 111.3395691  22.6900148  55.6094313
 110.1529980  22.3225236  54.7445631 100.9544849  46.3672304  94.7055435
 101.8512535  46.6054726  94.4704247 100.4849529  46.3492632  93.8716030
  48.4223795  62.8070831   2.3079470  48.1234312  63.7141895   2.2445045
  49.3093395  62.8215027   1.9483326  22.3816967  51.5324640  87.7980423
  21.8987298  51.6889238  86.9865608  21.9245362  50.8001184  88.2114506
  17.9621255  18.3119822  72.9370689  17.8236413  17.9268956  72.0717573
  18.0911183  19.2449296  72.7661848  59.9916410 103.6734581  51.8437815
  60.2819347 102.9191589  52.3566103  59.7658968 103.3087444  50.9880638
  16.9516408  23.7179971  79.7801161  17.8161252  23.4727263  80.1098728
  16.8781400  23.2645869  78.9403248  45.1134062  70.9497833  86.3216877
  45.8069897  70.6330490  85.7430172  44.4804287  70.2323866  86.3518524
  52.1262980  81.2383270  69.4195223  51.4079332  81.7584515  69.0594578
  52.7929974  81.8827820  69.6570539  46.2270880  96.4889336  46.4173651
  46.7490816  96.2726021  45.6447315  46.0304499  97.4206829  46.3203621
  72.8855324  99.2537594  90.9270000  72.6999283  98.3208656  91.0342407
  73.3581638  99.3100071  90.0965214  49.7447109  69.0635920  90.5486107
  49.3470192  68.2495070  90.2398300  49.6087646  69.0522623  91.4960480
 109.0847397  16.0045719  62.6556969 109.6597672  16.7268157  62.4028349
 108.6911869  16.2892461  63.4805059  31.5413666  84.6951294  69.7407532
  30.6348467  84.5895958  70.0293922  31.8894029  85.3936863  70.2949476
  86.3003826   4.1829678  46.2486506  85.7798100   4.4835156  46.9935703
  85.8739376   3.3726490  45.9698009  66.8734932   2.0285438  59.1948271
  66.0809469   2.1848409  59.7083235  67.0904016   2.8834525  58.8229227
  89.3174171  97.3184490  63.6663055  89.2335033  96.3651371  63.6465311
  89.7477818  97.5037479  64.5009804 107.4738407  30.8321261  91.1407852
 106.9743919  30.1756382  90.6551838 107.0597458  31.6646123  90.9133625
  81.2813663  34.9320269  44.3621492  80.7117367  35.6495261  44.6395397
  82.1622849  35.2187562  44.6029997  63.4982967  70.4272509  72.6235485
  62.7480030  70.9742069  72.3908854  63.3133841  70.1339531  73.5157442
  74.9510288  90.8304977  24.8495674  74.3210316  91.0057545  24.1505575
  75.7656670  90.6237125  24.3914866  82.4339962  99.1344166  68.2077837
  81.5401745  99.4265747  68.3865404  82.7733612  99.7721481  67.5797987
  70.3570366  17.7501929  81.2517643  69.5695829  18.2883799  81.1711502
  70.7520103  17.7715540  80.3801155   7.2731084  10.0650537  85.5997372
   7.5615561  10.8936369  85.9824657   7.3774284   9.4263011  86.3049698
   1.2585433  17.0792544  34.8885155   1.1310289  16.2409985  35.3326988
   1.2108796  17.7307439  35.5881739 101.5757179   0.9416012  77.2314215
 101.6781330   0.0035037  77.3917913 100.6379700   1.0574533  77.0783567
  16.7771041   9.4593453  47.6329517  17.2213256   8.6157721  47.7182913
  16.5882206   9.7227675  48.5335970  82.2229385  82.5413322  64.4453907
  81.9571304  82.7267170  63.5447168  81.4495945  82.7472019  64.9705410
  94.5268536   1.0623924  41.3334084  94.3062019   1.9559389  41.5963173
  95.2344608   0.8064789  41.9250345 107.6806545   9.1107458  80.7586670
 107.1104527   9.4556791  80.0715542 108.5414410   9.0452969  80.3451538
 115.9611130  12.4134374  73.9389038 115.8762550  11.4822090  74.1434669
 115.1502705  12.8048825  74.2637730  16.2425411  33.4783149  90.3860283
  15.7906723  32.7285910  90.7732773  17.1469617  33.3950973  90.6882381
  90.9695053  89.9117279  77.5853109  91.3660049  90.6432438  77.1121216
  90.2778530  89.5967865  77.0033693  41.9510269  89.4097519   2.5817063
  42.1751547  89.9751282   1.8425536  41.0759354  89.6949005   2.8446415
   9.8779875  14.4220674  59.7484303   9.8989344  13.5797632  59.2942095
   9.1397238  14.8877466  59.3555641  75.0746346  33.1914163  57.0279408
  74.9498701  33.8439727  56.3388586  76.0182905  33.1899571  57.1884012
  77.0665503  13.7084985  72.2508049  76.8399000  14.5778513  72.5810909
  78.0199480  13.7250948  72.1672344 107.7941704  85.7344055   7.8625989
 107.6656151  84.9575710   7.3183286 108.3651638  86.2996006   7.3422527
 113.6166763 106.7391586  60.8232594 113.6668873 106.1224365  61.5535736
 114.3768597 106.5300465  60.2804708  55.4416847   3.1618327  77.4097443
  55.3799677   3.9430305  76.8600607  55.4410744   3.4987387  78.3056927
  40.7696819  70.6471157  77.6121855  41.3659668  70.4446936  78.3330870
  39.9823499  70.9838152  78.0399466  73.3232021  94.6752644  76.0504055
  72.8210211  94.6422958  76.8646288  73.4583235  95.6092072  75.8899927
  46.3712740  78.3815432  87.1475506  46.4336348  77.6377535  86.5482807
  46.9366360  78.1448030  87.8827763  93.1531143  92.8100300  69.4278908
  93.1098557  93.4287262  68.6987972  92.2381496  92.6249027  69.6395254
  41.7256260  44.2912579   4.3558553  42.4297953  44.8957634   4.5902583
  41.0686159  44.8422766   3.9304781  53.0194378  12.3436892  62.7275801
  53.6617041  12.6349044  63.3748245  52.1725225  12.4810994  63.1519461
  98.2614136  77.8547621  61.0197973  98.0597496  76.9492960  60.7838058
  97.4414158  78.1980848  61.3747215  63.3257008  95.0094223  65.2504873
  63.0765009  95.0688934  64.3282080  62.7475119  95.6291962  65.6952524
  68.2698011 106.3223934  73.9541292  67.8483438 106.0996342  74.7841740
  68.5649204 107.2255421  74.0701580 104.5354652  11.6161287  68.2714558
 105.3296280  11.9027984  67.8205013 103.8565922  12.2184289  67.9671669
 105.6277466  75.8205891  14.1466522 106.1880207  76.5844440  14.2839587
 106.2337780  75.1184750  13.9100230  13.7046969  14.6626806  58.9712095
  13.2943559  13.7979472  58.9805937  14.6346509  14.4849849  58.8303471
   6.9152999   4.8000133  50.3976011   6.1077815   5.1379818  50.0104046
   7.5111973   4.6956244  49.6558189  55.8237743  97.2435760  70.4100466
  55.1834202  97.7271366  69.8881817  55.3019714  96.8006134  71.0791826
  59.2355299 102.7977848  49.4667053  59.8807764 102.1353340  49.2196465
  58.5304499 102.6955032  48.8274622  67.6843452 104.3430901  50.0178099
  67.4151278 104.7821331  50.8246517  68.5990763 104.1048050  50.1685429
 106.5953922  64.9223423  62.5854301 107.0343018  64.3091106  61.9959068
 105.6687450  64.6898556  62.5262547  64.3271780  93.2264900  79.1902447
  65.1613808  93.1521988  78.7267542  64.2191267  92.3810673  79.6259260
   3.7675273   6.9710469  82.2217178   4.1888922   7.6526070  82.7453136
   4.4936210   6.4986336  81.8144703 105.1828575  14.4013119  61.5104342
 104.7109318  14.8416817  60.8036137 105.1963520  15.0397110  62.2235250
   3.2874832  19.4088864  69.2009592   2.7097079  19.4795871  68.4410858
   2.8640381  18.7612081  69.7643757 107.6787186  24.6777534  60.7540274
 108.5437107  25.0875878  60.7615089 107.1427441  25.2594137  60.2149248
  53.3655787  98.5440254  69.2857695  53.0194759  99.2075539  69.8825693
  52.5885582  98.1095028  68.9341068  31.0364056  46.2426233  31.1449862
  30.2978897  46.1444187  30.5440021  30.9639454  45.4945421  31.7377424
  25.1422453  28.0028367  62.5516224  25.8641052  27.4588442  62.8666210
  24.4286275  27.8334856  63.1666851  76.1606789  64.4842529  64.5326376
  75.8059072  63.9699125  65.2577782  77.1078062  64.4710302  64.6704769
  21.2510896   8.2405156  64.4520187  21.3834119   7.4015129  64.8933744
  20.3269196   8.4438628  64.5961952  99.7383785  22.9543948  36.7107630
  99.8501682  22.6906252  35.7974410  98.8923168  23.4016848  36.7290473
  10.3156030  16.0404599  51.3839054   9.6682262  15.4413581  51.0121393
  11.1376858  15.5508196  51.3581038  78.7667894  94.9888706  40.1271200
  79.0845776  95.4273796  39.3378472  77.9296827  95.4128647  40.3161049
  92.1993637  12.7281284  44.9978685  92.6094246  12.7393734  45.8627129
  91.6508102  11.9437206  45.0030708  82.8521633  19.2064464  75.2453327
  82.3006535  18.4641886  75.4925728  82.3994827  19.9705672  75.6023121
  95.1919746  44.5297146  43.8262510  95.5442333  45.0296831  43.0899286
  94.6841240  45.1675510  44.3277359  57.2652721  41.2369394  18.6626971
  57.9707384  41.5146828  18.0783999  57.5599432  40.3953886  19.0108216
  26.0667539  88.3105183   5.6419271  26.6490960  88.9107609   6.1075652
  25.7451558  87.7152920   6.3190615  61.8769550 107.5659561  59.9564600
  61.8406868 106.7957783  59.3892336  62.1713877 107.2271252  60.8018780
 115.4370022   1.9688903  64.9982548 115.3715706   2.9091045  65.1654291
 114.5705318   1.6258754  65.2169037  73.4633112  88.1393528  82.9515839
  72.7800560  88.1957817  82.2835922  73.6590719  89.0501499  83.1715012
  97.4303055  36.8567109  83.7096882  96.4753056  36.7921972  83.7025642
  97.6207066  37.5184989  84.3745232  27.6206923  91.6853142  45.0840759
  26.8177629  92.1910667  44.9585867  27.4252844  91.1041737  45.8191395
  55.9104252   1.2099110  72.6628017  55.6576395   2.0645210  72.3135519
  56.2421846   0.7297334  71.9041204  86.2765598  96.8182278  80.0356579
  86.3888264  97.7424240  79.8131943  85.8184910  96.4445877  79.2827940
  98.7982559  21.0232377  58.1904316  99.0020370  20.5712748  59.0092325
  98.8498211  21.9532609  58.4109592 113.4360790  51.3089800   7.5957203
 114.1174889  51.8411970   7.1850407 113.1964779  51.7942142   8.3852571
  70.1044703  90.4571533  65.4935360  69.6385002  89.8305798  64.9399042
  69.8526525  91.3142014  65.1496172 101.0282421   4.5605654  82.1968174
 101.8974590   4.8321444  82.4916744 100.4637623   4.6969315  82.9577351
  46.4989281  31.0373330  65.6350231  47.1432400  31.7419410  65.5670595
  46.7276478  30.5809116  66.4447117  71.7611408  10.8716130  67.7604294
  71.6425610  10.0086534  68.1572580  71.2101030  11.4536345  68.2837248
  57.4366999 107.2078896  67.1061707  57.4845791 108.1610870  67.0329380
  57.2264242 106.9099426  66.2211609  89.7185230 100.1291561  71.9326019
  90.3981495  99.9028111  72.5675058  89.7797203  99.4478035  71.2630892
  82.2565365  20.7310009  38.8601494  81.4117050  20.3831768  38.5746622
  82.8424168  19.9740982  38.8515925  92.4820709   1.5121156  50.5261707
  93.0186081   2.2149663  50.1596165  92.4090195   0.8723417  49.8179436
  60.8950949  87.5755787  46.4072180  59.9828148  87.5821018  46.6969204
  61.3467216  88.1504726  47.0250845  10.9880757  12.5017893  23.8259602
  11.8494606  12.0848691  23.8465881  11.1250496  13.3550441  24.2375755
  99.9221039  78.7938643   0.2040395 100.2472591  78.7770796  -0.6960842
 100.2554131  79.6158743   0.5638130  96.2741661  13.5464776  55.6597662
  96.6001987  13.7555456  56.5351105  96.6956425  12.7158332  55.4392624
  85.0585270  90.2308273  61.3989735  84.2920494  90.4658031  60.8759785
  85.4456425  89.4877434  60.9361553  74.4701767  87.7862072  34.9212933
  73.8980150  87.1760845  34.4558716  73.8889074  88.4930611  35.2018499
  87.1008110  83.6656570  67.8607845  88.0353069  83.5745525  67.6746464
  87.0243263  83.4838867  68.7974501  90.4633141   3.5903457  51.3338757
  90.9486580   3.6995858  52.1516418  90.9417343   2.9096994  50.8605099
 106.3160610  27.3997688  48.9134264 105.7593918  27.6759005  48.1853485
 106.5631771  26.5003943  48.6982679  55.5859661   4.7168416  75.0961494
  55.1423168   4.1104019  74.5031548  56.4620018   4.3469679  75.2056170
  78.4500551 107.6257420  82.7129269  77.6065111 107.5593090  82.2654247
  78.2905197 108.2324505  83.4358978  62.2853374  91.2902927  47.1037340
  62.6885796  91.3456059  46.2373829  62.4904823  92.1287727  47.5173807
  94.3283367  46.3017082  30.4560041  94.4556522  46.4539051  29.5195961
  93.8381577  45.4807615  30.5007577 114.6570015  12.2043931  60.2703094
 114.0104866  12.2687566  59.5673847 114.3000317  11.5441418  60.8643341
   2.1242513  40.9996223  24.4776559   3.0489439  40.8058310  24.3239689
   2.0789425  41.9556522  24.4912696  85.9777927   2.7488688  82.9395485
  86.4112759   2.0481873  82.4523354  85.8343792   3.4382144  82.2911072
  56.7240047  71.7048645  85.5645847  56.7777681  71.1079550  84.8182297
  56.5745497  72.5653362  85.1728153   2.7843061  18.6356044  87.1668148
   3.1523755  18.1694818  87.9174709   2.8619289  19.5611954  87.3980808
  29.8811507  68.3562708   0.8947629  30.6117439  68.3104801   0.2780227
  29.9628735  67.5617456   1.4222899  73.0619001  40.4530287  51.8136358
  72.3362446  39.9170494  52.1336079  73.6973143  39.8204350  51.4785099
  85.9834003  76.4159632  71.8835878  85.2126312  76.5013027  71.3224554
  85.9941292  75.4929876  72.1370363  35.9494591  74.2690992   7.0803922
  36.3609838  73.4968996   7.4684459  35.0258851  74.0318632   6.9969541
 113.9476776  34.8081255  26.1647868 113.5472679  33.9678741  26.3881326
 113.8045216  35.3545904  26.9375205  74.8826694 105.6385803  91.4611626
  74.1853762 105.8154297  90.8297062  74.4449759 105.6553936  92.3122597
  61.0536528  98.3070374  87.4583530  61.0073090  97.4816513  87.9408646
  60.9838820  98.9828682  88.1325912  19.6860504  87.5492382  50.6871080
  18.7519431  87.7569103  50.6637049  19.7657549  86.7458439  50.1728773
 111.7951965   0.8124588  84.2009926 112.6584911   0.8166037  84.6144390
 111.5796185  -0.1152907  84.1059113  74.5824194  27.6802635  76.8825769
  74.4157076  28.6019373  77.0799494  75.4851294  27.5342226  77.1654606
  21.8038845  91.7231560  45.0177145  22.2477508  91.2922192  45.7481289
  21.1297512  91.1002922  44.7460175  48.5348606  78.8930750  71.5086937
  48.0366850  79.0442801  70.7054615  47.8763819  78.6360931  72.1541405
  24.6906018  61.1561632   1.6810599  24.9241209  60.3237104   2.0918208
  24.1363835  60.9105682   0.9402774  16.5346289  37.3697734  14.4362748
  16.5984511  38.3188438  14.5431638  17.0169413  37.0118356  15.1815844
 111.4077091   7.2193927  86.7622375 110.4555511   7.2530913  86.6701412
 111.6849327   6.5472960  86.1396122  85.4553127 105.2921677  69.4294167
  85.0268650 105.7714844  70.1385927  85.7907295 104.4980621  69.8454952
  85.3420448  21.7127872  91.9037628  85.0421333  21.5686750  92.8012753
  84.5414448  21.7028618  91.3791943  92.8154945   2.9468676  38.0387950
  92.7044201   2.5286403  37.1849918  92.5434685   2.2800478  38.6693382
   7.2782260   1.0887806  89.7403049   7.5081664   2.0166594  89.6913147
   7.7385634   0.7685811  90.5160618  23.3181429  41.5237951   0.6873609
  22.8038168  40.7291698   0.5449905  22.8660750  42.1962166   0.1777380
  88.7936974 100.7385159  68.0522203  89.0427589 100.6528473  68.9724731
  88.3264637  99.9269485  67.8539991  55.1174831  77.5827503  63.2697821
  55.8491850  78.1721783  63.4525824  55.5127239  76.7113590  63.2433414
  75.3604603 100.9759426  80.8430290  75.6136942 100.4275131  81.5855408
  75.3099060 100.3698921  80.1038647 104.8790169  65.0454283   2.0048906
 105.5189133  64.9020958   1.3075879 105.4079247  65.2286196   2.7813762
  44.3701220 104.5675182  64.5031452  45.1363564 104.0673065  64.2222404
  43.6677313 104.2764854  63.9216185  99.0317059   8.4906018  60.5822086
  98.7651443   7.8117096  59.9623060  99.5909214   8.0344963  61.2110806
  91.6549683  76.4648151  56.6823292  91.3401413  75.7601023  57.2484493
  92.3708153  76.0702133  56.1842442 111.8210793  16.3934195  60.9834957
 111.7749500  17.2829795  60.6330872 112.3378181  16.4781272  61.7847729
  10.9971714   2.8879058  60.0964546  11.0073888   3.7740815  59.7347641
  10.5212855   2.3697668  59.4473839  10.8124137  49.8400831  19.4283879
  11.1684906  49.4988441  20.2487516  11.1089182  49.2199230  18.7622654
  80.8420563  29.0925980  39.9613667  81.6461945  28.5794139  40.0403261
  80.5518627  29.2235160  40.8640766  84.6974850 104.2352867  76.7356443
  85.3726196 103.5582256  76.7806149  83.9244652 103.8291168  77.1276665
  75.8872843 101.2286091  63.7796688  76.2556505 100.5031967  64.2839575
  76.5988016 101.8663692  63.7227154 106.5326691  10.8641088  78.8921118
 105.9256649  10.2941191  78.4199953 106.5005493  11.6942942  78.4167242
  93.8476944  22.5608945  88.7909889  92.9616261  22.5807714  89.1525364
  94.3588448  22.0726585  89.4364262 106.8114948   6.4598143  68.1341314
 106.4176846   7.3006296  67.9013824 107.6923275   6.4964932  67.7612686
   3.2734737  47.6687336  10.7651150   2.4128008  47.2574425  10.6856465
   3.1085399  48.5999107  10.6170201  -0.3109976  15.4045129  40.3188372
   0.2529673  15.0186110  39.6485662   0.1597933  15.2607584  41.1397648
  80.4230213  90.7376480  71.5539360  79.6952677  90.3348732  71.0802507
  80.2547073  91.6781998  71.4967728 108.3658695  41.4659405  52.4303579
 108.2972050  40.5191135  52.3077393 108.4193993  41.5813303  53.3790684
 100.8378410  20.4464030  81.9923878 100.0485897  20.7422018  81.5387154
 101.5499878  20.6334329  81.3807583  36.2194824 101.1183453  90.2614689
  35.3738546 101.4716721  90.5377007  36.0065746 100.5195332  89.5456982
   3.7458390   0.7214045  80.3113842   4.2406175   1.2494192  79.6847820
   2.8421909   0.7625598  79.9983978  96.1989403  98.9172840  75.1687956
  95.6853962  98.1744957  75.4862356  95.5916691  99.4097996  74.6166229
  61.9675255  81.6177464  74.6866083  62.4747705  82.3861122  74.4248009
  61.0771227  81.9479942  74.8063993  58.1016970  96.8976021  59.1450262
  58.3817482  97.8101921  59.0745211  57.2315788  96.9440079  59.5412302
 110.9630203  17.9777324  63.8185024 111.7693901  17.6570308  63.4145880
 111.2466049  18.3592820  64.6493053 100.2889919   4.8134577  69.8413372
 100.9603596   5.4422200  70.1061964 100.4713154   4.6434522  68.9171696
  51.3688183   3.5219389  42.0496798  51.2937975   2.8010905  41.4243937
  51.9000769   3.1666043  42.7622366  60.2871418  96.8518448  72.6559019
  59.6215105  97.5260735  72.5195789  60.2395391  96.3061142  71.8709612
  69.3641996  82.5390530  90.5865955  69.4573355  83.4115982  90.2042007
  69.3085861  82.6953793  91.5293026  97.8914833  19.8436010  49.0490818
  98.7639332  19.6907544  49.4119835  97.2935009  19.6327269  49.7661448
 105.0721359  99.8454189  45.7995844 105.4557896 100.3320885  45.0700712
 104.6784210 100.5179214  46.3554335  68.4488440 101.2892914  40.8595848
  67.8904343 101.2375069  41.6352987  69.3412495 101.2742424  41.2054396
   6.8694901  17.0174050  55.7272816   6.8263417  16.1254406  56.0719109
   7.6323670  17.0141554  55.1491451 101.4011478  99.3036461  91.2692356
 102.3458195  99.4550896  91.2990856 101.0606003  99.7627735  92.0370007
 104.7419071  54.1516399  88.1063747 104.7561073  54.6215868  88.9401531
 103.8120747  54.0637493  87.8967953  41.5967274   5.1666969  74.3836308
  41.3193560   4.9993199  75.2843428  40.9805489   5.8246112  74.0616035
  79.5588684  14.3476570  75.7454014  79.5552778  13.3943141  75.6596422
  79.2824459  14.5080149  76.6476822  92.7592945  39.1009712  59.1471004
  92.0554829  39.7119260  59.3653297  92.4803352  38.2683110  59.5280075
 114.1057587  49.9060297  71.2687492 113.8706303  50.2117491  72.1448135
 114.7377586  49.2036200  71.4218044 100.0226879  15.8876061  64.1253281
 100.6625175  15.6658459  63.4488106 100.5232716  15.8769166  64.9411345
 103.9641285  26.0744071  71.8434763 104.1226578  26.6110039  71.0668421
 103.0176640  25.9314680  71.8467188  67.9975033 105.8832073  52.3230362
  68.3500814 105.0089169  52.4889565  68.5590124 106.2414074  51.6355515
 100.7912922 105.8674145  76.3513803 100.3037453 105.4167938  75.6618261
 101.0556126 106.6974163  75.9545708  53.4588814  19.0910172  35.9861541
  53.3298922  18.5855174  35.1836181  53.2513332  18.4779429  36.6913462
  26.0955596  50.1373816   7.8651702  25.6834555  49.3523932   8.2259971
  26.4876938  49.8453188   7.0422703 108.0493927   4.2948994  88.9753151
 108.8082027   4.2087698  88.3982372 107.3195267   4.4819552  88.3849525
 104.6952343  90.5582905  76.3773775 104.9357986  89.6734715  76.1026859
 105.5296326  91.0216808  76.4500856   2.0304206  80.7763195   0.4271307
   2.1630140  80.1621437  -0.2949770   2.8945327  81.1597729   0.5771467
  20.6847882  61.5972376   8.4176159  21.3263917  61.8426847   9.0842003
  21.1406565  60.9577656   7.8703600  98.7913322  30.0486350  60.1007891
  97.8637314  30.2820420  60.1369667  98.7948513  29.0990829  59.9800634
  70.5133533  92.0487690  50.2125120  70.4639816  92.0741558  49.2569208
  70.8454609  91.1734867  50.4120207  58.8422489  57.4931049   3.0347937
  58.9972401  58.4256124   2.8843361  58.6795950  57.4260998   3.9756900
  29.3256187 106.8155575  72.2792292  29.2752934 107.1442223  73.1768227
  29.9805403 107.3714542  71.8569851  85.1548576  14.3620133  63.8704681
  84.4939518  15.0452280  63.9829540  85.7295609  14.6958065  63.1816053
  96.9564056  14.9277246  60.9219885  97.2987270  15.7743943  60.6352901
  96.3098145  15.1456881  61.5932941   1.5380758 101.6404343  54.7902775
   2.4134305 102.0156097  54.8863554   0.9506825 102.3960686  54.8050880
  37.1150064  22.8634000  90.1241207  37.6288605  23.6644340  90.0215149
  36.2258935  23.1156349  89.8749447  13.5921967  43.7295055  41.5094757
  14.2781615  43.0648041  41.4473486  13.9199352  44.4614792  40.9869480
  84.6216011 102.0893192  28.5351253  84.4629669 101.1468983  28.4812808
  85.5562019 102.1857357  28.3522201  64.7953749 102.5980186  64.5996666
  64.0350151 103.1720924  64.6920061  64.7134590 101.9741440  65.3209925
  65.0817585  85.4320717  74.1689444  64.8654556  86.2219620  73.6734533
  64.2364359  85.0999069  74.4711304  16.1395371  15.3845394  77.8815460
  17.0352161  15.2003753  78.1645203  16.1973977  16.2315786  77.4394941
  97.5743866  10.0126195  70.9913301  97.5202370  10.6888688  70.3160620
  98.3077431   9.4608152  70.7194328  96.9801998  32.4613571  69.2037964
  97.1796799  32.0982862  70.0667095  97.8144741  32.8131986  68.8932896
  80.6134892  11.6649508  56.6321516  81.5444565  11.8131018  56.4660645
  80.3897953  10.9111607  56.0862637  68.4149456  28.4039736  87.7171421
  67.8510237  27.6998019  88.0370808  69.1665983  27.9529238  87.3326874
  62.9966593  92.2782898  66.3072634  63.6604834  92.4148846  66.9832134
  62.5926685  93.1382370  66.1910582 113.0695820  45.6447363  80.7140732
 113.2651329  46.5228558  80.3871155 112.5830460  45.7938623  81.5247917
  71.2687826   3.5015312  73.7365484  71.9688225   3.5190111  74.3891335
  71.5447187   4.1331035  73.0723143  32.0583940 101.5083408  66.2931490
  31.7446017 102.3308659  65.9173679  32.1177864 100.9114742  65.5471897
   1.1641411  22.6892138  67.4392939   0.8243225  21.9784522  67.9829597
   0.3837911  23.1010008  67.0681906  12.9714298   9.3273634  69.0199804
  13.3212793   9.7346854  68.2275629  12.6218402  10.0577664  69.5304012
  92.6591206 107.9765701  77.6575327  91.9647312 108.5993767  77.8723812
  92.8384972 108.1285381  76.7296553  11.4178491   0.5999707  61.5593100
  11.1292851   0.6795473  62.4685001  11.1110711   1.4036080  61.1394453
  85.8286762  85.3037262  71.8055105  86.5515327  85.5786324  72.3695469
  85.4599762  84.5374870  72.2450256  13.6350179 101.5113926  14.3473947
  13.6849236 101.5378857  13.3918643  13.4255934 100.5998707  14.5511115
  99.2434597  30.6208086  91.7637348 100.1316547  30.9594941  91.6513252
  99.0211201  30.8282089  92.6713562 115.3213215  32.1740437  88.5566616
 116.2667847  32.0358539  88.4997749 114.9659157  31.3121533  88.7736034
  29.8705697  92.5482655   2.9099989  29.0549660  92.7343655   3.3751741
  29.7655368  91.6516781   2.5916854  69.0757275 104.2994213  63.8165379
  69.9370241 104.4857883  63.4428072  68.7543821 103.5497570  63.3155727
  49.5842123  82.9058647  53.6751699  48.8435984  83.1621838  54.2247391
  49.1834974  82.4883270  52.9127264  20.4434323   2.2341236  75.5042934
  20.5611634   2.5209814  74.5987082  19.9701381   2.9527578  75.9235620
 100.6832504  36.6367483  45.5755997 101.4088535  36.0532117  45.7974386
 100.7300758  36.7259860  44.6237183   5.7080114   3.3626756  57.4729967
   6.3390148   3.8355747  56.9303799   5.7217193   2.4683642  57.1320391
  60.8823204  53.6116457  28.1316781  60.0451088  53.1619024  28.0175042
  60.6704617  54.5401573  28.0356860  96.3209343   4.0792015  69.5474672
  96.7958355   4.7906798  69.1179419  95.4202461   4.3968463  69.6115351
  49.6537399 103.2724953  59.8868942  49.9679041 103.7485790  59.1182089
  49.5629168 103.9434052  60.5635548  35.8154058  60.1669741  12.4472618
  36.3881874  59.4018126  12.4989939  35.0860882  59.9601650  13.0316901
  34.4040656  40.4105997  33.5049295  34.7886586  41.1316824  33.0065703
  34.7855067  39.6222401  33.1186342  14.5204902  61.0591078   1.1275701
  15.2035344  60.6151485   1.6301456  14.9618506  61.8141365   0.7385159
  21.6373634  96.5339470   5.1527786  22.3207998  95.8790779   5.2952039
  22.0947957  97.3730659   5.2063495  73.3997393 105.6946945  69.3315792
  74.0272188 105.6392097  70.0522852  72.6286316 106.1108398  69.7168732
  55.9058189  27.4677038  83.4134960  56.2786627  26.6437459  83.0999470
  56.6478968  28.0717349  83.4397888  26.6799188  19.6322072  64.6112442
  27.0552492  19.6586561  63.7310982  27.4372125  19.5630777  65.1925898
  72.1599293  92.7778721  90.3058529  72.3397493  93.2447529  91.1218929
  71.3514948  92.2955036  90.4790211  22.7518439  14.0725601  75.4640007
  22.9781389  13.1794477  75.7235622  23.1607771  14.1834247  74.6056795
  28.4814978  36.1211634  65.6868029  29.4311905  36.2407994  65.6857729
  28.1457329  36.8743920  66.1727476   6.6675538  19.6376383  44.8662567
   6.1919355  18.8890886  44.5061302   6.6739696  19.4852114  45.8112240
  83.4352112  37.6328659  49.0001440  84.0577888  37.1093178  49.5046425
  82.8164387  37.9627872  49.6516848   2.1217813  62.6668501  40.2121592
   2.7042365  63.4214497  40.2990866   2.5602901  61.9685555  40.6982946
  29.4843268   3.7344605  55.2629566  29.6020412   4.4720706  55.8615446
  28.6178422   3.8724303  54.8803329  99.4092178   5.4616660  87.6301765
  98.6249828   4.9337900  87.7803707  99.1151428   6.1698455  87.0572567
 112.0375919  32.2241974  35.8261490 112.5137329  31.6459274  36.4220715
 111.4291286  31.6457844  35.3663135  72.8218318 109.3900655  68.7381887
  73.0641413 108.9448473  67.9262161  71.8729926 109.2790253  68.7982750
 114.0854645   4.3173614  61.5744781 115.0201607   4.1130328  61.6030407
 114.0244198   5.2083135  61.9190216  81.4615536  27.9670787  56.7616653
  81.2982273  28.3766961  57.6112318  80.7362080  27.3528218  56.6485310
  17.5300586  53.2476568   0.0583654  17.5042176  54.0507841   0.5785124
  17.8507364  52.5798988   0.6645793  90.9500694  17.2766495  76.1528826
  91.3764954  16.4765024  75.8460331  91.2282562  17.3617101  77.0648098
  66.7435598  91.7167187  81.2987232  65.8387756  91.6328430  80.9977913
  67.1505499  90.8811474  81.0698032  98.6303902  11.4532602  59.7896767
  98.8157558  11.3833880  58.8532019  98.8265133  10.5836034  60.1381969
   4.3969616  38.8742924  50.9738874   3.9994088  38.3130479  51.6396093
   4.5495182  38.2919645  50.2296734  66.1819172  41.3855743   1.2503223
  65.8241701  41.8150520   0.4732756  66.1209917  40.4502010   1.0564297
  25.3297591 101.2415886  54.4873047  24.8029590 101.3553905  55.2783585
  24.6879339 101.1236000  53.7870407  78.7248898   1.1186522  74.8334217
  78.1997108   0.8729472  75.5950308  78.3833933   0.5767750  74.1220999
  52.3430490  46.0688210  59.5070696  53.0731440  46.4537907  59.9918270
  52.5802994  46.1822844  58.5867023 114.6643257  25.2544975  87.3216629
 115.6080341  25.0949883  87.3075581 114.3828106  25.1060700  86.4189148
  13.0303085  12.8930891  47.0631790  13.3187580  12.0633471  47.4433899
  12.0841026  12.7927196  46.9590044  10.3007352  18.8412189  60.9035969
  10.9977496  18.8481474  61.5596104   9.7648084  18.0815852  61.1315680
 109.7693253  25.6918311  63.4435415 109.5728779  24.7573566  63.5098791
 110.0056362  25.8222938  62.5251913  84.1540623  97.8554153  56.7253876
  84.7577667  97.9016972  55.9840202  83.7830448  98.7355995  56.7874527
 108.2027054   1.1180446  32.1743059 108.9628220   1.6590475  32.3882389
 107.8933144   1.4605770  31.3357472   1.5399379  25.3352737  73.8615084
   2.4720407  25.5024981  74.0009832   1.4465377  24.3895292  73.9758587
  30.3622532  13.0540097  59.1952801  31.0167170  13.4931517  58.6520815
  30.8745289  12.5263703  59.8079777 113.7144279  17.4689484  52.7789593
 114.1666031  18.2999456  52.9246140 113.8851070  17.2612154  51.8602943
  25.2606678   6.4407092  50.0802517  24.5789790   6.1435938  50.6829596
  26.0337067   5.9310746  50.3229713  72.6081038 104.3997002  28.3293581
  71.8530703 103.9139748  27.9973483  72.2907448 104.8179340  29.1297293
  79.6036482 106.9640255  55.9647179  80.2158928 106.9862270  56.7001772
  79.8684788 107.6980495  55.4103708  99.6117592  96.0344601  75.9037971
  98.7321949  95.6792545  75.7756281 100.0758743  95.8229160  75.0938082
  91.6647816  88.4894753   8.8778192  90.7764816  88.2294655   9.1218603
  92.0681286  88.7656593   9.7007829   6.3587821  16.0622334  48.3357286
   6.9560254  16.2192833  47.6043797   6.8091249  16.4302242  49.0959930
  99.1270447  19.9590337  65.9030390  98.7956429  20.7940507  66.2334156
  99.1785526  20.0800467  64.9549198  42.1636868  11.1165893  83.7603855
  41.5612078  10.8959210  84.4707108  42.4548721  12.0060945  83.9609432
  21.7574239  33.7632632  21.9783735  21.0198164  33.2063174  22.2273254
  21.9345093  34.2890382  22.7583957  96.8820667  31.8729496  91.2248135
  97.6187420  31.3116789  91.4667130  96.6416740  31.5861797  90.3437901
  26.2654185  47.4075699   5.1450664  27.0816135  46.9392490   5.3203720
  26.1819148  47.3946714   4.1916025  79.7545671  90.0247765  75.3424835
  79.7785234  90.9780216  75.2589703  79.5807552  89.8699760  76.2709570
  70.1367950  95.3633976  71.5341997  69.2248917  95.2098179  71.2870646
  70.1196909  95.4204464  72.4895430  94.7808743 106.2563515  28.6475110
  95.0681591 106.0843086  27.7507949  94.0409470 106.8558884  28.5510993
   3.8652393 108.4313869  46.8458605   4.7533494 108.3368206  47.1901703
   3.6112550 107.5442410  46.5914869   9.2608202   7.1291459  55.4887915
   9.8240411   6.7150801  56.1426735   8.6160129   7.6161063  56.0019445
  38.7331724   9.2187172  43.2085276  38.0900788   9.8319787  43.5642958
  39.0667319   8.7506258  43.9739418  56.7464733  64.9447393  19.1907382
  57.0430040  65.5265617  19.8905814  57.4593830  64.9555635  18.5520840
  27.9530764  16.7228103  47.8025293  27.7751446  17.0156240  48.6963034
  27.6316094  17.4344110  47.2488880  13.7650108  38.8335991  32.7994370
  13.7996852  39.4647455  33.5182452  14.0266991  39.3352699  32.0273781
  20.1609230  19.4013536  88.4971046  19.8558974  20.2084565  88.9115620
  20.9461021  19.6614277  88.0153465  58.5003567  36.1933565  51.9133854
  57.9008055  36.4760566  51.2228394  59.3721008  36.3043213  51.5339327
  68.0544662  47.9259729   0.7401668  67.2614813  47.7413797   1.2434926
  67.7836275  48.5830402   0.0989579  52.7888298  29.0360188  89.7581291
  53.3549356  28.6871648  90.4466438  51.9789124  29.2717957  90.2105331
  10.4591298  28.0985570  34.6033049  10.9664845  27.3461795  34.2987514
  11.1152053  28.7110066  34.9360251  20.8763289  17.2770572  50.7022333
  20.4621243  17.4990749  51.5361261  20.1547313  16.9797397  50.1480389
  45.3638792  45.5351877  30.3401661  45.7371187  44.8334932  29.8067379
  44.8838854  45.0804424  31.0322952 109.2021370  51.9655609  57.6126432
 108.7449551  51.1928415  57.2807884 108.7777710  52.7022266  57.1727943
  94.9196434  98.5725689  14.3651605  95.6499195  97.9541683  14.3425107
  94.5935249  98.5911369  13.4654188  47.9327297  42.8965616  19.7122252
  48.8420773  43.0753469  19.4727349  47.9194975  41.9627666  19.9221766
  82.0537376 101.4728737  41.2926865  82.8541183 101.9781780  41.4351368
  82.2944450 100.8244419  40.6309986 102.5995541  42.1561909  58.3815193
 102.1117306  41.6058588  58.9942122 101.9834805  42.3252916  57.6687098
  46.6688395  14.2297566  64.9711704  47.3133516  14.1227007  64.2716122
  46.7137146  13.4113026  65.4654884 100.2513599 103.5248375  79.4800901
 101.1294270 103.7169743  79.8092031  99.7702980 104.3453121  79.5879507
  25.4732084  14.8061574  53.9660978  24.6014428  14.4427848  54.1217136
  25.8852267  14.8185802  54.8299932  78.0399132 107.5671577  71.8577051
  77.2998047 107.6690578  71.2593031  77.6928282 107.0453835  72.5812531
  95.5360317  87.4309540  67.7822018  96.0881996  86.6541862  67.8715324
  94.8664474  87.1770763  67.1470308  75.9082270  67.7258730  31.8025494
  76.7873383  67.3780012  31.6529346  75.7445335  67.5711250  32.7328658
 112.2690868  33.6026192  38.8622332 111.9464302  32.7514601  38.5661745
 111.6551590  33.8662791  39.5476651   2.8361383   9.2402971  73.8618708
   3.1835684  10.1237679  73.9843655   2.1674906   9.3377471  73.1838989
  16.8751776  32.8334260  71.7075014  17.2007394  33.4549856  72.3585796
  15.9555912  33.0709529  71.5884447  28.7334871   1.1465666  56.4616871
  29.2000699   1.9096471  56.1207485  28.4227371   0.6874877  55.6813574
 108.6686516  11.4402270  63.9869452 107.8772449  11.3351119  63.4588861
 109.3201923  11.7845678  63.3760834  35.1808262  15.8331561  44.0504122
  34.5867610  15.1552749  44.3725872  34.6432877  16.6242433  44.0121412
  75.4169178  87.6461601  60.3590679  74.8305130  87.5081730  59.6152115
  76.2100887  88.0177879  59.9730539 111.8090534   4.2369097  51.4675236
 112.3267174   4.9747795  51.7897129 111.0329723   4.6404132  51.0788012
 109.5758533  98.3199787  55.2980185 108.7046909  98.6090374  55.5695915
 110.1582336  98.6308289  55.9911537  83.7640667 101.2916088  80.6923962
  82.8705406 101.3310814  80.3513908  83.7211990 101.7523003  81.5303516
  43.2812595  92.7315712  71.5933990  42.6494503  92.3828888  72.2222710
  43.5328245  93.5821533  71.9531965  35.2850556  44.9211407  56.6098118
  34.7549486  45.1708555  55.8529329  34.9633741  44.0526056  56.8514633
  28.9429259  84.2983818  71.0220289  28.8519931  83.4224701  71.3971710
  28.5925317  84.2166042  70.1350307 105.7365322  25.3640270  51.3904524
 106.5408134  24.8507953  51.3132238 105.2122593  25.1030898  50.6332970
  36.2623382  11.8489575  51.0918570  35.6602240  12.2204661  51.7365837
  35.9578514  12.1945560  50.2527618  38.8439846   6.0450047  59.4777012
  39.6994328   5.7914180  59.1310978  38.3390164   5.2319008  59.4877338
  12.3948729  29.0268564  71.5882158  13.2158244  29.4665480  71.3669920
  11.7677486  29.3511415  70.9418535  72.2647047  15.0381470  68.9021349
  73.0385733  14.9661160  68.3434200  71.7974710  15.8032572  68.5666752
 106.1862373 101.2172890  68.3292294 106.9250298 100.6735706  68.0557632
 106.2917137 101.3058281  69.2764711  11.9482684 102.4126339  48.7924051
  11.2363863 102.8658962  48.3407307  12.6567662 102.3790836  48.1496477
  14.6425247   3.4681353  24.1715527  14.7676992   2.9915351  23.3509326
  15.3453529   4.1178891  24.1807699  23.2312036  21.9402981  20.3092289
  23.0956078  21.1945033  19.7247326  24.1548634  22.1660542  20.1991320
  22.8029585  38.3456969  67.1933031  23.0688810  37.6723123  66.5671492
  22.7537966  39.1488314  66.6748524 107.4278259  25.5039239  75.5704832
 106.8999386  25.5386353  74.7727633 106.8154812  25.7235360  76.2726498
   6.2604904  51.1018801  31.2018681   6.9723046  50.6646538  30.7345557
   5.9206563  50.4351187  31.7986679  62.4489594  95.0845242  62.5877857
  61.7249060  95.6383324  62.2957420  63.2360315  95.5785847  62.3583221
 115.9893608  99.3269253  75.9601974 115.8026123  98.4703541  75.5759621
 115.3299522  99.4305992  76.6462421  16.9494724   7.1004289  66.3878775
  16.0391581   6.8068099  66.3511944  17.2141469   6.9473314  67.2949314
  39.2092824  16.4948428  53.6034155  38.2754087  16.5088844  53.3938551
  39.2556739  16.0754240  54.4625854 101.4288521   6.0402185   3.6239699
 101.0033798   6.0108590   4.4809061 101.4976692   5.1229507   3.3591777
  49.1998672  21.4755344  51.3158846  48.5840607  21.0991836  51.9446707
  49.6454477  20.7189202  50.9348011   3.2174060   9.3871450  29.1665196
   2.2653691   9.3417716  29.0782070   3.5496172   9.1593999  28.2981873
 110.8691120   2.1259521  79.3648911 110.8181667   1.3580881  79.9341202
 110.0012493   2.5254801  79.4234037  25.6943607   1.5695167  45.8006001
  24.7760558   1.3357374  45.6653357  26.1400247   1.2545834  45.0141954
 113.8726902   1.3186623  70.9550953 113.0981064   1.4985971  70.4222965
 114.5580578   1.1126550  70.3194380   4.5129889   8.2080394  43.8078833
   5.2933961   8.1090832  44.3532324   4.8501265   8.4806365  42.9545021
  91.8832874 106.7270756  86.7145538  92.3635006 107.3199749  86.1365509
  92.3337269 106.7961884  87.5563145   3.9093164  14.8067534  87.0944023
   3.4524351  14.1247857  86.6020489   3.9088526  15.5650055  86.5102100
  23.8127208  17.5920212  70.4367352  24.1293192  17.1848226  71.2430763
  24.4138503  18.3212256  70.2846336   2.2287022  28.5954857  31.2634802
   3.1438851  28.5492635  31.5401316   2.0076446  29.5250082  31.3213587
  73.8367939  45.6396770  58.4300756  73.8146591  44.6843958  58.3736324
  74.3107843  45.8207321  59.2417288  44.0563536  41.3475037  74.5456362
  44.5084286  41.1962509  75.3756809  44.6798372  41.0619593  73.8778257
  16.2976933  20.3693485  26.5631747  16.2242043  20.3926754  27.5172663
  16.1654508  19.4491482  26.3351965  56.9093561  18.8516271  71.1144686
  57.5781250  18.3897126  71.6200542  56.9940138  18.5003448  70.2280903
 105.6398582 100.1094055  63.2275486 105.0704861 100.8428860  63.4600449
 105.7011890 100.1469898  62.2730541   8.3443677  37.2299218  82.6488686
   7.7199954  37.5637317  82.0046902   8.4695321  36.3120651  82.4078178
  58.8428879  85.9670353  14.8570704  58.3968115  86.7889214  15.0613797
  59.7742224  86.1858654  14.8880482 101.0395527 108.1145287  70.0651360
 101.5754890 108.8397884  69.7441816 100.9595966 108.2737064  71.0056114
  17.8119910  39.0000796  73.9412546  17.1402216  39.3327141  73.3460140
  18.6357617  39.1375875  73.4735727  24.0065598  41.4106655  46.3502359
  24.1118288  41.3851118  47.3012877  24.5801187  40.7158327  46.0270214
  28.5829473   5.4961008  89.1244984  28.8288021   6.4175987  89.0430832
  27.6539755   5.5154735  89.3544292  93.7649727  11.5427589  26.5759301
  93.4889126  12.0792389  27.3190379  94.7015572  11.7195415  26.4877248
   6.1503792  29.1138148  52.9346704   5.8058941  28.4042621  53.4769773
   5.3911579  29.6684957  52.7553892 105.6189728   2.3483290  37.3417449
 105.9544277   2.4178702  36.4479518 106.4027309   2.2822995  37.8872681
  19.2578971   3.8670185  51.0295725  18.8910723   4.5511800  51.5895700
  18.9834499   3.0476847  51.4414024  29.0475941  21.5921640  62.1646547
  29.8885894  22.0480323  62.1308661  28.5979080  21.8594217  61.3630390
  26.1600757  49.0229702  47.3178530  26.0187769  48.0852365  47.4479294
  26.9500756  49.2183208  47.8218079  86.5795135   9.5960742  64.4808626
  86.3097477   9.1558236  65.2868652  87.4034119  10.0273049  64.7077227
  82.6575947 105.1339054  45.9340668  82.7262688 104.5034409  46.6510248
  82.6802921 105.9888458  46.3639307  48.1225920  38.4263730  52.4699783
  47.6308393  37.6181984  52.6157904  47.9475403  38.9568090  53.2472992
 106.1932182 103.3641243  64.0736246 106.8996811 102.7532196  63.8639975
 106.4251041 103.7121010  64.9346542  22.4367929  32.4791288  33.7540197
  21.6688919  33.0305338  33.6039782  22.9780197  32.6049995  32.9746222
 112.5400639  17.5270498  78.9711046 113.2088566  17.4401081  78.2918501
 112.8215504  16.9278705  79.6624660   5.7010055  93.9974117  22.5358391
   6.2295568  93.1993675  22.5356126   5.3079933  94.0241432  23.4082270
  13.9238238  40.9150934  47.8414583  14.4254303  40.3999901  48.4733534
  14.4544840  40.8998394  47.0449686   0.1873333  99.5441055  38.3744764
  -0.5634522  98.9504814  38.3872128   0.5322318  99.5132446  39.2668462
  10.6998146   7.8751004  39.1171575   9.7680068   7.7655685  39.3068075
  10.7757866   8.7756115  38.8016582  29.4605398  98.7409878  41.1775589
  28.6721492  98.2497692  40.9465265  29.8399758  98.2545090  41.9094086
  60.3124189   4.3441653  25.2159357  60.6068468   3.5020068  24.8690748
  61.1059046   4.8781809  25.2538729  40.5057573  11.8970060  36.6761541
  41.2869024  11.5766764  36.2251234  40.7759714  11.9845998  37.5902367
  41.3250256  18.7686265  48.1008720  41.5740824  18.7503731  49.0249205
  41.8468571  19.4782007  47.7261353  52.5140762  44.6300554  52.1754122
  52.5033712  43.8345194  52.7076149  53.4387779  44.8722172  52.1252155
  10.0604784   7.6113379  60.0399733   9.1608655   7.7052498  59.7267532
  10.0746977   8.0833262  60.8725929  28.5930848  28.1654978  70.6747723
  27.9689288  27.4684668  70.8767748  29.3014431  28.0432916  71.3068485
 100.1120663  19.4139695  60.6642056 100.6458569  20.1938725  60.5123901
 100.6963062  18.6817884  60.4672241 111.1839008  11.7370224  28.9414263
 110.8315468  12.6192820  29.0584493 111.3944912  11.4436901  29.8279023
  26.3145518  11.7448115  62.7263546  26.4661264  12.1802366  63.5651970
  26.4358068  10.8140993  62.9142475  95.0652027   3.8649639  40.0120258
  94.4991112   4.5715553  40.3226566  94.5747948   3.4627688  39.2951131
  18.6731625  14.7299397  35.1540685  19.2434871  13.9794624  35.3206348
  19.1142046  15.2159464  34.4572830   1.1879855   9.6048182  38.7182236
   2.0705393   9.9679053  38.6440706   0.8784126   9.5413530  37.8146911
   6.9319916 100.0236034  62.0709324   7.6860619 100.4065418  61.6226435
   7.2971541  99.6382904  62.8674412  47.1378851  14.1025317  61.3115931
  46.4242506  14.5178652  61.7957973  47.3725605  14.7399902  60.6372023
  18.4994209  32.7236366   7.3233348  18.0469179  33.0807376   6.5591669
  18.5743773  33.4642696   7.9250646  61.8440771  27.7336860  54.4889593
  62.4980879  27.4187469  55.1129103  61.6081619  28.6046195  54.8084068
   9.1158980  16.8428874  85.1867485   8.3811283  16.3073075  85.4859066
   9.5656353  16.2947536  84.5436954  40.3142786  22.5413871  86.3415623
  40.7835960  21.9069529  85.7998371  39.7289324  22.9904771  85.7317066
  85.6797314  16.6535735  85.6095695  86.4823437  16.1453581  85.7268810
  85.3893471  16.4413214  84.7225189  98.9870167 108.8373470  68.2469702
  99.6438313 108.3646679  68.7582493  98.1508827 108.5822773  68.6368942
   5.8311719  43.1724215  69.3337011   4.9540472  42.8027344  69.4347811
   5.8474314  43.9180422  69.9337149  40.5553722  25.1265717  92.4402237
  40.2223492  25.4052758  91.5871906  40.4678059  24.1734219  92.4317551
  10.8907831  27.6853085  73.3317471  10.0322509  27.7402711  72.9120684
  11.4824331  28.1319475  72.7261925   2.5060663  12.6099932  67.4561548
   2.3659049  11.7090523  67.7475166   2.8023830  13.0719769  68.2403755
  26.7326403  25.1231980  46.2889099  27.2469020  25.4608536  47.0222282
  27.3768139  24.9586773  45.6002855 112.5239658 108.5172844  74.6177387
 112.6029205 108.7197208  73.6855268 112.9142189 109.2709446  75.0603867
   5.4385120   4.6136159  61.9803190   4.5585325   4.9871546  61.9319773
   5.5249876   4.3209973  62.8875828  14.7066307  36.3555408  41.2175465
  13.9542103  35.8798909  41.5694761  15.4455960  36.0634804  41.7512703
  40.6577158  17.2023213  25.1220107  40.2823067  16.9272757  25.9584618
  41.6010427  17.0828927  25.2320313  28.0245543  39.8498011  40.4676104
  27.9841304  38.9996481  40.9055996  28.5562587  39.6922421  39.6874189
  33.4742355  44.1838217  76.9132233  33.3789325  43.2340527  76.8418741
  32.9769039  44.5307493  76.1725950  15.0894785  26.0068154  70.1273346
  14.3118906  26.0627222  70.6827259  14.9767542  26.7084813  69.4860935
  35.1682591  39.9879193  82.7314281  35.9854841  39.5443034  82.5043106
  34.5066786  39.5670152  82.1824455 113.8281059  32.7601862  85.8908749
 114.3006802  33.1822634  86.6083431 114.2985344  31.9395590  85.7442474
  42.6947021  50.7207775  44.8986959  43.5903692  50.4700375  45.1248455
  42.7891731  51.2718201  44.1217422  96.6450882 109.0801811  61.3362932
  96.8794155 108.4183979  61.9869566  96.5632343 108.5920811  60.5169725
 102.4655914  96.3148117  36.5120506 102.7199936  97.1765900  36.8419719
 101.5938759  96.1658955  36.8783355  40.8313179   6.8947458  57.0136976
  39.8897743   6.7761070  56.8885994  41.0232687   7.7375007  56.6024160
  19.8835194  28.8335371  29.2894292  19.1783392  29.4807148  29.2787480
  20.1697803  28.7761593  28.3778405   5.2089381  96.3909721  73.2850647
   5.9120464  96.9918823  73.0385351   4.4271326  96.9416237  73.3274794
  30.1743937   6.7435503  30.0806117  29.6440125   7.3694867  30.5736947
  29.6894789   5.9203416  30.1390743   2.3502108   5.9074622  53.9349651
   2.7238107   6.4974511  53.2803106   2.2779571   5.0655943  53.4852171
  17.0258033  65.6598425  50.2274895  17.1132934  64.8611784  50.7477951
  17.8231990  66.1555481  50.4136848  92.7907181  96.5941620  46.7191744
  92.4032784  96.8969440  45.8979225  92.5892162  95.6588745  46.7485762
  38.3833718  17.2013354  57.0075417  37.9980040  17.6430392  57.7642584
  38.8997054  17.8793621  56.5717506  19.6247518   6.9309568  54.4063902
  19.4844377   6.8158984  53.4665489  19.6392155   7.8797680  54.5320129
   3.7860194  33.7289166  46.4830875   2.9701945  33.3013582  46.2225962
   4.1139933  34.1297555  45.6781101  45.5907822  44.6919060  60.1437426
  46.2796688  44.1067362  60.4587793  45.7794380  44.8041964  59.2120600
 114.9598885  36.6062689  81.2466812 114.0886879  36.4854908  81.6243744
 115.4266262  35.7976484  81.4576817   8.0961388   6.5935391  52.1120739
   7.7650666   6.0506558  51.3965988   8.9434886   6.9107872  51.7996883
  44.5195961  27.7204728  42.0630550  43.7712145  27.2441530  41.7035007
  44.8315430  27.1696711  42.7810669  24.8023033  58.3595705  90.5295944
  25.5653906  58.8212633  90.8771133  24.7669864  57.5445175  91.0302639
  45.6581688  37.6412368  35.4449964  45.8407116  36.8033600  35.8702874
  46.1236715  37.5924683  34.6100378  27.1135807   6.7413354  92.2483063
  26.7031789   6.6486067  91.3885307  27.3991513   7.6543885  92.2801685
  12.1984208  18.2464051  35.1980257  12.2532415  17.2919440  35.2452588
  13.0526686  18.5190988  34.8631668 113.5216808  21.5158415  48.0408716
 113.1786442  20.6610560  47.7802992 114.3206310  21.6208982  47.5242662
   9.5095170  53.6960316  27.3860288   9.6866649  53.1020355  26.6566348
  10.2533591  53.5783291  27.9768562  44.4715738  38.3156276  74.8005486
  44.3652821  37.8897572  73.9499235  43.6225510  38.7229538  74.9722290
 103.4109402  14.2969382  67.9952192 103.3672142  13.9490068  68.8858747
 104.1433430  14.9129307  68.0144072  18.6216998  16.0004079  78.6829185
  19.1415763  16.5504766  78.0969286  18.6047947  16.4811730  79.5104504
  38.0515957  59.3394089  28.4184289  37.7112818  59.3125534  27.5241709
  38.4036064  60.2243614  28.5142636   9.5960647  33.3366990  76.6926956
  10.2560115  33.5273147  76.0260868   8.7661082  33.5861778  76.2862921
 101.2970066  12.0229721  48.8152695 101.6877365  12.8664935  48.5871601
 101.1926079  11.5728498  47.9769802  55.3626490  30.8022666  32.9333234
  55.2126360  30.8443975  33.8777542  54.6718168  31.3472462  32.5565290
  21.6395211  33.0206537  63.3884811  21.1498880  33.8227057  63.2062674
  21.1604929  32.3362255  62.9212332 107.4745941  25.2045488  65.6022406
 106.7829514  25.7852101  65.2849197 107.8247452  24.7945762  64.8113251
   5.8273929  41.8612003  77.2689199   6.1036426  42.5995064  77.8118896
   5.1946801  41.3892317  77.8103542  21.4909172  23.6360645  65.9238338
  20.8760071  24.2072582  66.3841152  22.3485804  23.8744354  66.2757254
  50.9515238  45.0567532  33.0863810  50.5080748  45.0222349  32.2388005
  50.3523350  45.5456638  33.6504507  97.0001221  31.0049677  86.2928295
  96.9442844  30.9844255  85.3374767  97.6128960  31.7156458  86.4817047
  16.3767242  44.5989037  26.7071605  16.6449285  43.7777519  26.2948465
  16.5126014  45.2622128  26.0305548 100.8699226  34.1116810  29.8540401
 100.1037121  33.5673904  29.6726179 101.4458561  33.5494447  30.3721333
 114.8569298  20.1033401  63.9506245 114.7581482  19.1526401  64.0020132
 114.4197559  20.3457904  63.1343317  13.3063591  14.7013211  92.9572582
  14.0539503  14.7778225  92.3643875  12.9581428  13.8251913  92.7918053
  11.1537850   5.9539139  45.0418329  10.6999290   5.1690358  44.7348928
  10.9140885   6.6317415  44.4099092  20.2660704  44.8973751  35.4909825
  21.1958408  45.1248837  35.4906440  20.1270437  44.4565916  34.6527600
 104.4918251  11.6162002  29.8243523 104.5937061  12.5538504  29.9876428
 105.2476215  11.2148786  30.2532339  26.8556833  22.3509622  57.0928144
  27.7344298  22.5607872  56.7765760  26.8272853  21.3942480  57.1040869
  14.7221386   6.0712552  38.8825679  15.3271222   6.3319230  38.1881046
  15.1060891   6.4309871  39.6821976 100.2407455  28.5160160  89.9618149
  99.8833179  29.0192485  90.6934166 100.2010918  27.6057506  90.2552032
  26.7142892  25.8180785  42.9242945  26.4838052  25.1954269  42.2347927
  27.3387098  25.3455448  43.4747887  23.7883019  46.9205379  29.4556832
  23.6225343  47.6900959  30.0002289  24.3457699  46.3604736  29.9958611
   2.1740718   5.7275230  14.0458655   1.5436018   5.0672990  14.3336904
   3.0282447   5.3527975  14.2608106  53.3549023  55.5390930  31.7705321
  53.4465647  55.9414577  32.6342058  53.3856344  54.5975924  31.9404483
  69.8034620 101.2187576  64.1520357  70.7428551 101.0732937  64.0397120
  69.4728661 101.3464546  63.2628632 104.5402622 105.2963734  22.6326489
 105.4709053 105.0987434  22.7378821 104.1132164 104.8271179  23.3493519
  22.1612811  12.1110463  44.3904161  22.7794456  11.4804029  44.0211010
  22.6832128  12.6256788  45.0060225  75.1038170 107.8435898  41.0553169
  74.8575497 107.4493408  40.2185631  76.0358620 108.0406666  40.9621334
   3.9486831  19.3851197  47.0650816   3.7860250  20.2940559  46.8128777
   4.8409092  19.3887377  47.4117088  66.3513565  35.6380892  34.4978046
  67.0414782  35.6306314  35.1610613  66.2480354  34.7194958  34.2493224
   9.0313786  39.0935898  63.0618477   9.5535356  39.4596076  62.3479700
   8.7124878  39.8579907  63.5416698 109.8609543 109.1826439  70.1810598
 109.0773106 108.6334133  70.1589346 110.2608013 108.9953423  71.0303402
  36.0778379   8.1569380  34.9137616  36.8431401   8.5372597  35.3449178
  35.3521585   8.7275684  35.1667523   8.7559038  38.8341188  33.3410025
   8.4761345  38.6585879  34.2394185   8.3638334  39.6812725  33.1292415
   2.6006275  24.2925477  28.4723997   2.5554699  23.8948679  29.3419075
   2.1949679  25.1526999  28.5810661  85.8572102  14.0061688  58.6696434
  86.0209274  14.9091613  58.9417315  85.7870293  14.0523112  57.7161360
  43.4564686  13.3177650  78.0482340  44.1207981  13.5520482  77.4001503
  42.6410723  13.2705820  77.5490999 100.9458447  53.8003349  41.6916418
 101.6582298  54.1007233  41.1272764 100.8747101  52.8633499  41.5093470
 111.7482853  14.5133400  78.5387230 111.5956593  14.6330440  77.6013803
 112.6953125  14.3963027  78.6141586  15.0659299  14.6810472  31.9005299
  14.8865235  14.1876888  32.7009320  15.2418375  14.0106702  31.2403154
  12.4655855  38.7545109  35.8241224  11.9279277  38.0062437  35.5647922
  12.2658467  38.8830543  36.7513847   9.5616478  46.3571358  43.5750771
   9.0751600  45.6193447  43.9428139  10.3832555  45.9733677  43.2686186
  92.9542923  21.5088296  32.0774412  93.7350178  21.9787121  31.7843390
  92.4154091  21.4255500  31.2907362  42.8638840  54.7294378  61.1988592
  42.4036169  55.3974152  60.6907272  43.5881233  54.4567299  60.6355333
  36.5980029  89.9136257   8.0789042  37.1014905  90.6815720   7.8087306
  35.7231951  90.0623608   7.7199888  19.6960771   2.8284311  37.4205828
  19.4705117   3.3583382  38.1851411  18.8534701   2.5262502  37.0815682
  38.4666181   2.4447171  42.7253294  38.7435508   2.4678579  43.6413002
  37.6667619   2.9700649  42.7035952  16.7129993  14.2290461  68.7003326
  16.8496573  15.0709414  68.2658577  15.7726502  14.0686142  68.6213589
  43.1279564  18.1155384  69.0655422  43.1834316  18.9803612  69.4720364
  44.0381670  17.8698480  68.9000463  19.0296435   7.0627397  25.5955720
  19.4024980   6.4063579  26.1841083  18.2614672   7.3932481  26.0612965
  80.7915497  94.8044968  81.1266708  80.4152489  95.6421375  80.8565044
  80.0497150  94.1996193  81.1331177  29.3493938  65.7834244   1.7505027
  30.1935935  65.8904028   1.3121931  29.5609713  65.3428745   2.5735348
  71.4439201  75.6152058   3.3830550  71.2778616  76.3347054   3.9921343
  72.2810841  75.8355618   2.9745960  42.4972725  58.1772804  62.3895693
  41.7550945  57.9997492  62.9673958  43.2566023  57.8390884  62.8642082
  40.2217865  41.9721079  41.4379311  40.2282953  42.6884031  40.8030224
  40.7852650  42.2772121  42.1490145  36.7700791  18.0876684  69.2332363
  36.2636948  17.6407719  69.9115372  37.1256399  18.8613915  69.6704531
  31.1006999  40.0959301  61.1881447  31.6486335  40.4165411  60.4717588
  30.7136989  39.2881203  60.8506441  45.3271437  36.9450164  60.0953054
  45.1356411  36.0229445  60.2665997  46.2673473  36.9652367  59.9168634
  54.2116404   3.7941593  70.9185982  53.7747240   3.8383436  70.0680780
  55.0135040   4.3038762  70.8027124  26.3654542  37.3141360  23.8202667
  26.2346387  37.9163170  24.5527244  26.3902664  36.4469147  24.2246723
  29.0224218  35.3248215  45.4514885  29.5863628  34.5778298  45.2509832
  29.6250725  36.0075998  45.7462025  14.9390709  10.5498886  81.3162804
  15.7585275  10.1759517  80.9924030  15.0312197  11.4913881  81.1702633
  89.9848366  90.9055996  51.6193056  89.5420647  91.1729050  50.8138609
  89.3735218  91.1396980  52.3176813 113.1207180   6.3975269  52.8815222
 112.4750042   6.5211707  53.5772181 113.9474678   6.2596995  53.3438301
 110.8359528 105.6350517  71.3325500 110.5544281 106.5483475  71.2789536
 110.4799271 105.3230953  72.1645117  14.6275556   3.7743199  72.2136211
  14.2625177   4.1103587  73.0321932  13.9662266   3.9818075  71.5534544
  14.5371389  29.0538788  69.9499607  14.3587029  29.0155840  69.0103197
  15.2727616  29.6611357  70.0295067  14.8238754  26.3781023  43.1262445
  14.2620742  25.6740355  42.8023577  15.5136323  26.4565110  42.4672174
  22.1054935  46.1412239  79.8505735  23.0607367  46.1926079  79.8837423
  21.9142103  45.2045584  79.8984671  23.7582636  64.5089340  70.3858709
  23.5613275  65.3112555  70.8693218  23.9353442  64.8047209  69.4929075
 112.6988602  18.9141464  38.5811615 112.3840141  19.5338738  37.9231024
 113.1766605  18.2538986  38.0791616  34.8320341  43.7605667  23.2399559
  34.5780396  43.1497622  22.5481224  34.4180822  43.4131765  24.0300155
  59.8222017  10.1406026  90.5797291  59.4421196   9.5276690  91.2090778
  60.2526188   9.5826089  89.9319458  26.2156129   5.8349216  47.4612331
  25.3779984   5.3765935  47.3936415  26.1703849   6.2941021  48.2998896
  19.3581927  39.2601418  42.9495192  19.5916963  38.3502078  42.7658749
  19.8355436  39.4727349  43.7514973  30.0927854  40.9035397  57.8303289
  30.1114058  40.0537205  57.3902225  30.9239888  40.9467077  58.3030605
  20.0916076  20.2318239  23.1390095  21.0303283  20.4187346  23.1289101
  20.0246072  19.3631566  23.5354424  57.2298098  35.6691647  56.2522125
  57.8983355  35.1689887  55.7840967  56.7341852  36.1105943  55.5624819
  31.4294004  24.7482991  60.1105595  31.8311071  25.5783057  60.3673792
  31.2435985  24.3057609  60.9387302  11.8891907  47.0627594  53.0740023
  11.3346922  47.8422642  53.1076908  11.8052554  46.7478371  52.1739960
   4.7353974  39.0737104  34.1176391   3.8901758  38.6403871  34.2362213
   4.5450908  40.0049543  34.2307925  26.4610124  59.7330332  13.7170196
  25.7370591  59.7598410  13.0913949  26.2495017  59.0014172  14.2968762
  14.2646778   1.3044478  82.0912647  14.7020328   0.5380549  81.7203331
  14.5393789   1.3165924  83.0081272  36.9707441  50.0594616  72.1295500
  36.2644219  50.6350660  71.8362617  36.8674827  50.0188875  73.0803013
  21.5018845  21.7501330  90.0692368  22.3842263  21.9004798  90.4084969
  21.3256574  22.5103307  89.5149136 106.3440609  63.9129543  37.8249907
 106.2237740  64.8527956  37.6891255 106.2300014  63.7906647  38.7674689
  28.3543754  61.3484335  64.3707085  28.5004091  60.9214544  65.2148581
  27.4872971  61.0487795  64.0975523 112.4566174   4.8918825  44.8421049
 113.2547855   4.3983650  44.6534061 112.1333790   5.1622647  43.9826584
  35.6958485  29.7671294  82.9106045  35.9885955  30.2790689  82.1566486
  34.9853325  30.2843142  83.2899666   4.7182184  23.1263757  60.9496784
   4.8500457  23.0615973  61.8955421   4.2835042  23.9701033  60.8256626
   4.3436119  10.9247875  17.9476750   3.8157505  10.5677497  17.2334492
   5.0075936  10.2553391  18.1125939  35.6888127  27.4855113  58.0478573
  36.4405441  27.6917744  57.4923515  35.9800053  27.6997447  58.9341640
  50.7164335   6.1036617  18.8103259  50.5127859   5.4562831  18.1352985
  51.3301945   5.6568378  19.3933189  26.0102844  22.8581595  76.1685085
  26.9534159  22.7296734  76.2696505  25.8656478  23.7724996  76.4120102
 110.1055908  23.6491704  77.6375484 110.6473827  24.3024206  77.1948767
 110.4533672  23.6136079  78.5286236   5.4159755  27.1416593  55.0915480
   5.0993699  26.4923763  54.4635153   4.6459621  27.3640537  55.6148577
  23.1453848   5.6664455  51.6025829  22.5773025   5.5084586  50.8485556
  23.0596066   4.8767763  52.1367121 110.5220127 101.3536739  56.8021011
 109.6110058 101.4461422  57.0809174 110.9769726 102.0820808  57.2247982
  17.6296592  15.1374316  39.9580288  17.8036189  15.9883273  39.5556045
  17.6764536  14.5151579  39.2322087  11.4342463  31.0734153  29.6173692
  10.5457354  31.0861993  29.9732018  11.4979839  30.2336740  29.1623926
 101.3979626   0.9121207  38.7249756 101.4651299   0.0975455  39.2231607
 101.8603039   1.5582120  39.2588687  31.7300129  18.1921518  53.3103752
  32.4614763  18.4805751  53.8562775  31.7441201  18.7844503  52.5585699
  30.2849865  16.7803192  27.2354341  30.5506897  16.5256655  28.1190538
  29.3517733  16.9783711  27.3136687 110.5920792  14.9963248  68.6714792
 110.7715988  14.0654933  68.8039780 111.4369106  15.4250252  68.8082457
  17.2984028  20.6527138  83.4130859  18.2230175  20.9002638  83.4069157
  16.8420124  21.4387178  83.7133121  27.5860786  45.5806541  75.8581018
  28.0202651  46.3994122  75.6186390  26.7728758  45.8557177  76.2815046
  33.4872508  36.4038467  35.7762647  34.2792153  36.2753057  35.2542520
  33.0271077  37.1213198  35.3406787 112.3356247   8.9580655  73.5293245
 112.7324009   9.3885738  72.7720499 112.6364994   9.4694662  74.2804432
  24.1745996  41.8143606  49.6198320  24.1690326  42.7395821  49.3745327
  25.0803947  41.5361118  49.4843960  11.5121567  76.9734240  15.2360475
  11.0880828  77.5158978  15.9009635  10.7977962  76.6944265  14.6632636
  42.4765110  51.7752934  29.2546272  42.8843832  51.4626360  28.4470892
  43.2062149  51.8863869  29.8640728  37.5775266  16.6051090  88.5738754
  38.5174799  16.7661655  88.6562347  37.3294854  16.2034369  89.4065666
  60.4447699   4.9885502  90.1221275  61.1169672   4.3721461  89.8315620
  60.6100035   5.0993103  91.0584354  20.7132030  46.3497496  21.0439491
  20.2952099  45.6860828  20.4952598  20.1062751  47.0897865  21.0290289
 113.0854511  36.3713646  58.4620523 112.4082088  35.8587837  58.0206537
 112.6177216  36.8432593  59.1510963  33.7121320  68.7478399  62.1252346
  33.7752676  68.9265585  63.0634785  33.5792255  69.6076250  61.7260551
  97.1010494  12.1593320  75.4097319  97.1119118  12.7608597  74.6652317
  96.2391663  11.7448115  75.3701782  14.0816307  19.4709265  54.5804977
  13.8031411  20.0970531  55.2488089  14.7615588  19.9317753  54.0890217
 103.7092876   3.0306867  53.6953259 103.8363838   2.9571724  52.7494526
 102.9338932   3.5837868  53.7905312  77.8654909  17.2256994  68.8863373
  77.4004364  16.4838374  69.2731190  77.9276657  17.0105553  67.9557037
  53.5470963  56.5272379  46.0684013  54.1718435  57.0884800  46.5276766
  53.9460611  56.3757992  45.2115870  45.1261330  19.0661097  40.1563406
  45.0851488  19.1398537  39.2028666  44.4070625  18.4760082  40.3820562
  27.5532413  45.8861017  40.0635386  26.8983102  46.5131664  39.7567940
  27.6768184  45.2887297  39.3259048  61.4467859  18.1290710  71.0735941
  61.7314196  17.5695741  70.3509760  61.7735052  18.9994347  70.8456612
  24.7309303  37.2191739  65.5469322  25.1692939  37.8301406  64.9546576
  25.3965449  36.9976926  66.1981916  19.4249547  12.2526824  23.9250326
  20.2204275  12.5682211  24.3538570  19.7405839  11.6765356  23.2288527
  28.7723589  18.1875980  58.4524488  29.2951846  18.5944140  59.1433764
  28.9675140  17.2531736  58.5231447  10.0012183  60.6281185  76.4516449
  10.5246079  61.0424709  77.1376562   9.8086184  59.7544813  76.7920732
  35.3359318 101.2863922   5.4102784  34.5523596 101.2626076   4.8610231
  35.4695821 102.2156811   5.5967766   8.8051409  25.8757114  42.1137428
   9.6850926  25.8083844  42.4843931   8.9496636  26.0331154  41.1807013
  40.4259396  26.3150287  13.5102308  40.8545399  26.7642593  12.7817214
  39.7650242  26.9350600  13.8184309  30.3293633   9.0079308  45.2129126
  30.9496450   8.2964367  45.3718328  29.9347162   8.7970924  44.3667221
  17.4782693  21.5607810  63.1658220  17.7775931  21.6457558  64.0710402
  17.5341868  22.4479437  62.8107882  55.8551216  27.6353621  67.7602386
  56.4979839  28.2930446  67.4948788  56.3808918  26.8957591  68.0648470
  80.4464626  43.7284565  46.8881178  79.8775434  43.4139252  47.5907040
  81.1122799  44.2511845  47.3349619  72.8315592  26.6738272  28.3145070
  72.7566576  25.8185244  27.8913283  73.7658453  26.7682648  28.5000348
  44.4972992  12.7164829  31.3880539  45.1985455  12.0937526  31.1964965
  43.7270737  12.3512292  30.9526539  14.4182050  31.3597107  48.2194805
  15.0246143  32.0483041  48.4921312  13.8279963  31.7911720  47.6016426
  42.7388334  43.6222076  22.8746223  42.6143074  44.3746805  22.2962546
  43.4284830  43.1085253  22.4542117  18.4780979  16.2566614  25.7212615
  17.8340638  16.1883271  26.4260888  19.1446376  15.6060874  25.9419632
  21.1229062   2.7099249  70.0808764  20.2630615   2.4021028  69.7942734
  21.6794348   2.6204497  69.3072510  43.8971472  17.6706386  59.6484947
  44.0361452  18.6159849  59.5916367  44.7711802  17.2935641  59.5479345
  52.7238131  28.1588387  26.5901327  52.5527334  27.6273036  25.8126807
  53.4588146  27.7228785  27.0213413  34.5270538  59.9889469  62.7064276
  34.0277171  60.7980824  62.8168535  33.9416146  59.4111204  62.2169304
  20.9088349  50.4558372  58.4924889  20.1633453  50.4493237  57.8921270
  21.3966584  51.2459183  58.2600403  17.8163445  10.7042849  82.0666218
  17.6455164  10.1198161  82.8051662  18.5431087  10.2929676  81.5987968
  15.4861307   1.4177501  45.2090693  16.1950171   0.7976533  45.0382137
  15.9307611   2.2218475  45.4773331  52.1873808  10.2166450  49.2923212
  52.8536606  10.8555579  49.5454931  52.3590469   9.4578308  49.8499632
  17.1849990  83.8291836  48.9277840  16.4943755  83.1689739  48.9859962
  16.7175782  84.6644306  48.9168835  28.2723236  38.4566498  70.9370089
  27.7569914  37.7990103  71.4040995  28.5789728  39.0512156  71.6216183
  17.8718674  61.7043352  18.9084756  17.5093162  62.3298264  18.2811415
  17.2875023  60.9479284  18.8574624  48.2547092  41.9577503  23.3608651
  47.4624109  42.2307253  23.8234496  48.9677620  42.1625042  23.9657307
  12.3859370   9.9699783  44.9397564  12.8784406  10.0273120  45.7585239
  12.0811307  10.8632731  44.7805405  87.3296833  97.0407295   1.5662897
  86.6773701  97.6855373   1.2925406  87.3843288  97.1438026   2.5163537
 100.4592323   8.4517938  48.7274742  99.5350170   8.4304446  48.9756918
 100.9314919   8.4181470  49.5593786   7.7481341  66.6693020  37.0996666
   7.5312597  66.1306620  36.3387036   7.6687866  67.5701332  36.7859173
   4.5170856  18.5406733  62.2126722   4.6970233  19.4797218  62.2578621
   5.2676219  18.1319678  62.6438141 104.2370892  40.4384089  45.2866220
 103.4964848  40.8166552  44.8126411 104.6758461  41.1902380  45.6847191
 100.4174232 109.2395401  54.5623684  99.7374630 108.7262154  54.9987030
 101.1494446 109.2407417  55.1791096  93.3930111  89.7725487  73.7020826
  93.6703968  89.1960526  74.4140816  93.3435822  90.6406689  74.1022587
  33.4107709  26.1253119  57.6930809  32.7628326  26.7904973  57.9253149
  34.2508388  26.5135980  57.9375315  42.2194672  48.3276415  13.0175054
  41.8655157  47.4383688  13.0054665  43.1671524  48.2091141  12.9536688
  51.9960451  56.7775536  29.7805858  52.1699524  56.7449713  28.8398790
  52.4271679  55.9980822  30.1309967   1.6064876  44.2695475  50.0393248
   0.9762447  44.9846983  49.9522400   2.0523179  44.4428301  50.8684444
  34.2743611  11.5786517  15.7328188  33.9551473  10.6923413  15.9024906
  33.6559057  12.1477616  16.1909199  29.7077799  12.5923121  51.5267944
  29.5180106  11.6550517  51.5687752  28.8477373  13.0084419  51.4685249
  11.3347816  53.2478523  43.9702511  10.8564925  53.9578199  43.5419798
  12.0510793  53.0446243  43.3687115  32.9139733  30.1153040  59.5901823
  33.4042668  30.4377365  60.3464127  33.3068776  30.5634856  58.8411903
  59.5342970  20.3308344  39.1485000  60.0278521  19.6027410  39.5260143
  59.1131639  20.7494926  39.8992348 110.6226730  20.1579142  66.2269211
 110.9736252  20.8984447  66.7215776 110.1707077  19.6253490  66.8813944
  30.4918981  22.7705598  45.1908731  30.4359508  21.8232727  45.0653696
  31.4263964  22.9663730  45.1230431   1.1925849  45.4372692  79.8412180
   1.5048549  45.0910282  80.6771851   1.9901735  45.6163406  79.3432045
 107.0288467  51.8981314  59.8221540 106.3340664  52.2596025  59.2718315
 107.0599270  50.9700537  59.5899105 104.9812317   1.2341691  69.0649605
 105.2877998   2.0292699  68.6289978 105.5705452   0.5474814  68.7528658
  42.2987843  32.6571560  17.1771765  42.6786137  33.3634019  17.6998377
  41.9692755  33.0918550  16.3906074 115.2739906  35.6504393  64.0066910
 116.0811710  36.1582136  63.9239073 115.0346756  35.4324961  63.1058788
  15.5105364  41.8870831  45.3956985  14.7115409  42.3368645  45.1208639
  16.2203884  42.4534464  45.0930882  37.8277516  40.8014870  65.4574919
  38.3426571  41.2938595  64.8182154  37.3588061  40.1497221  64.9364090
  60.1528358  74.6466970  83.7697124  60.1527929  73.7551355  83.4213638
  59.8235512  75.1850605  83.0500126   9.6948719  40.9501743  74.2135096
   8.8816506  41.1622620  74.6716785   9.8504579  40.0277281  74.4162846
  17.1451521  37.4847436  84.3641567  17.7323043  37.2198105  85.0721741
  17.4390757  38.3639026  84.1255760  22.1956873  38.0581164  72.9939938
  21.8257189  37.2492456  72.6403236  22.8567171  37.7649808  73.6211634
 106.0016346  47.7933168  64.0027666 105.5604649  47.3570061  64.7316217
 105.8005428  48.7215137  64.1221380  22.6165295  57.9439688  69.7325420
  22.2987700  57.1445036  70.1521969  22.9031301  58.4979534  70.4586267
  91.3714600 100.7782173  46.1982012  91.2622738 100.3244781  45.3624773
  91.2785339 100.0908566  46.8578482  29.7778058  45.4545689  54.7573662
  28.8627338  45.2352142  54.9327421  29.7399521  46.2999201  54.3099451
  29.1266274  43.5510635  57.7423763  29.3052483  42.6293755  57.9289532
  28.2025790  43.5703230  57.4933815 113.5947514  56.7457104  75.7835817
 113.7910175  57.3962927  76.4577150 113.6196041  55.9075260  76.2451649
  68.5891294  35.5967379  42.4747944  68.3957291  35.5386400  41.5391397
  68.6114931  34.6870184  42.7716875 108.2742023  43.9704704  42.7390099
 108.8411713  43.6861563  43.4559155 107.4159431  43.6045647  42.9528666
   4.9067146  31.5300417  60.2460146   4.8159033  30.9939575  61.0337925
   5.6368566  31.1344457  59.7699547  46.6557074  10.0760901  47.4843740
  46.4861202   9.1340351  47.4865150  47.5606728  10.1558578  47.1828556
  35.8697891  41.3432455  48.1990576  35.3860354  41.1750793  47.3903990
  36.7533135  41.5679502  47.9072952 107.1133900  55.7462740  58.8429356
 106.4737034  55.3073025  58.2822800 106.8548489  55.5081558  59.7332668
  17.2845089  51.0029984  69.7880077  17.0609868  51.0104275  70.7187128
  16.4437890  50.9071445  69.3405342  58.1881094  34.5586419  46.8305063
  58.4372234  34.8440146  47.7095604  57.8163958  35.3400874  46.4213562
  39.9618554  41.3073015  51.1298943  39.2112255  41.8888235  51.0089684
  40.4493237  41.6935873  51.8574858  24.7458148  35.9218454  50.8232307
  24.6348405  36.7196226  50.3060532  25.1720262  36.2156963  51.6283512
  41.7841434  46.4969492  28.8997960  41.0730410  47.1372747  28.8763642
  41.5356112  45.8391428  28.2503700  61.6466141  18.8985288  65.2008677
  60.7028103  18.9882517  65.3328609  61.7379522  18.6619997  64.2778587
  20.8853698  54.1060114  47.8076220  20.6294417  54.7556305  47.1528482
  20.8949995  54.5895004  48.6336803  19.7700918  23.4966207  83.5270500
  19.5817542  23.5948682  82.5937271  19.2815793  24.2052698  83.9458656
  35.6332850  62.1837521  68.5518694  35.1431990  62.5554323  67.8184557
  34.9600196  61.8932152  69.1671181  28.2272005  66.3113546  75.9056664
  27.5924492  66.0115433  76.5563822  27.8650665  67.1352720  75.5797052
  19.8297083  51.5446997  39.2463255  20.2205420  50.9442997  39.8811483
  20.5649018  51.8334293  38.7056279  44.1106272  11.3562775  90.7636929
  44.8658085  11.0025275  90.2938080  44.1298103  10.9163797  91.6136074
  59.1163731  35.3815889  41.9919538  59.8027992  35.9604621  42.3235464
  58.4817362  35.9712863  41.5848637  71.4775419  65.3176022   0.9654606
  71.7215252  65.9569263   1.6347650  70.7330275  65.7155132   0.5142410
   7.9750329  71.8946266  52.9263258   7.2874242  71.2672424  52.7031422
   8.4453988  72.0367575  52.1048737  98.8078594  82.8292274  71.9322348
  98.5946655  82.3349857  71.1407089  98.4389496  82.3090363  72.6460552
   6.0291576  47.9354382  73.4187937   5.5430633  47.2370243  73.8571548
   6.0834211  48.6347485  74.0701389 110.8687878 103.5097313  14.4898963
 110.6695366 102.9733753  13.7225270 110.5558586 104.3842793  14.2586422
  14.4453502  46.6117144  63.5823345  14.2464423  46.7139769  64.5130396
  13.7075007  47.0239353  63.1330204  34.1633773  51.3800573  57.8149891
  34.4715810  51.6290331  58.6863375  34.8452377  50.7997751  57.4765062
  69.1930723  29.9732351  45.9270525  69.7020721  29.5538688  46.6207981
  68.5784292  30.5416274  46.3911343  27.3812509  51.7046165  67.5875330
  27.7109504  52.4260664  68.1232882  26.4495969  51.8945503  67.4771738
  51.4291143   7.4827683  49.3080187  52.1867752   6.9479454  49.0710640
  51.5182734   7.6198953  50.2511406  65.1027107  58.2746363  21.6004753
  64.3837118  58.0673409  22.1973801  65.8784962  58.3023834  22.1604991
  46.1237097  50.9553432  41.1963463  46.6706896  50.1716900  41.2504244
  46.7218637  51.6456509  40.9101343  74.5287752  21.7290950  43.1318665
  75.0156355  20.9768057  42.7953243  75.0757122  22.0715261  43.8388538
  61.1198044  39.4377160  60.7045794  61.0050011  40.3875256  60.7346964
  61.9170237  39.3089962  60.1906681  38.8911295  40.0815964  75.4195213
  38.0070305  39.8204374  75.6772041  39.1226125  40.7799721  76.0318327
  51.6887665  44.9337053  39.2075300  51.8972206  44.0114164  39.0586567
  51.2784815  45.2212048  38.3919072  30.6717801  28.1331778  30.9390235
  30.5673003  28.4907222  31.8207717  29.8035645  27.8009558  30.7108569
  38.4119654  51.9560862  92.4466515  37.7250171  51.3007689  92.3246384
  39.1268826  51.4782238  92.8670979  49.0601444  33.8397074  62.5947237
  49.8954248  33.7245131  63.0477858  48.9762402  33.0604291  62.0452547
  34.2845345  29.8918819  62.5490427  33.8264394  29.2193508  63.0531073
  35.1826882  29.5684123  62.4788857  30.8596134  53.9224958  46.4536381
  31.7231822  53.9001036  46.8659258  30.4763484  53.0685568  46.6539621
  19.3645918  60.4190207  52.0785809  18.5013461  60.1560736  52.3977900
  19.7456706  60.9174395  52.8014851  13.7196779  60.1137161  51.7465591
  13.5303390  60.7262611  51.0358047  13.0223227  60.2643490  52.3847103
 114.0971565   7.7336365  58.7369728 113.2206345   7.6382661  58.3643532
 114.4544125   8.5135162  58.3122492   9.2317182  32.1865416  68.0259132
   9.1319281  33.0810308  68.3517361   9.0485543  32.2512174  67.0886278
   8.3181709  67.4781752  77.4721622   7.7222025  67.6192188  76.7365265
   9.1532391  67.2502327  77.0635891  42.6321125  10.0036538  70.0630474
  43.3827496   9.8595113  70.6392431  43.0116606  10.3602040  69.2599010
  97.3411942  53.0098915  40.7725096  96.8772030  52.7053881  39.9926233
  97.6383972  52.2081232  41.2027025  10.6033754  19.4894135  42.2707415
  10.4326189  19.3143892  41.3453007  10.0433171  20.2367973  42.4804640
  27.2842073  24.1107702  24.7349358  28.2075310  23.9518070  24.5388818
  26.8575454  23.2684326  24.5779109  50.8664751  22.6895404  47.4499416
  50.6600571  22.3359561  46.5847254  50.3956509  23.5221171  47.4869967
  14.7885096  18.2757926  47.6817846  15.7395458  18.3401215  47.5944710
  14.6011138  18.6505127  48.5424232  28.4329462  31.4882088  54.3738842
  28.0085659  32.3362803  54.5039082  28.8725901  31.3103986  55.2053452
  24.9161410  34.9125075  55.4259443  24.8586011  35.6697512  54.8432779
  24.0166926  34.7671914  55.7193851  29.3214679  25.5981994  40.1553631
  29.2605925  25.3068399  39.2456198  29.3843627  24.7887588  40.6623983
  21.9958186  61.4804649  64.5663643  21.6849566  60.5798006  64.4747162
  21.5276098  61.9657421  63.8870096  16.7424941  37.5175166  48.5142040
  17.4244702  36.8563819  48.3957052  16.8266749  38.0880475  47.7502394
  22.4028134  50.1705360  67.9484272  21.4641237  50.0706387  68.1068993
  22.5383830  49.8048639  67.0742750  53.8714695  24.9747181  68.9493752
  54.4844580  24.4151592  68.4725380  53.8280058  24.5906019  69.8250437
  28.8861132  52.9008389  82.0931911  29.2266154  52.0435095  82.3486710
  28.0063820  52.9309082  82.4692249  20.2448606   9.5927542  16.5405560
  20.1989508  10.5020511  16.8360269  21.1273766   9.5019621  16.1811745
  50.0828934  41.3591909  51.9697332  49.7571564  42.0500898  52.5466061
  51.0145235  41.5530443  51.8661928  47.5854254  46.7668772  63.2093239
  47.6773453  47.7153301  63.2999516  47.4570608  46.6272497  62.2710991
  40.9927511  12.2785378  33.5539436  41.2631702  11.5117478  34.0590572
  40.8950663  12.9725432  34.2058992  19.7464991  11.4794278  49.8860884
  20.2032232  11.2052274  49.0908241  20.3409696  12.1051085  50.3000498
  21.5445232  51.5203524  55.0659847  21.4948535  52.4049997  55.4281569
  20.9976792  50.9923410  55.6477022  42.8034878  50.8387995  71.7992353
  43.3800936  51.2711334  71.1692810  42.0433569  51.4169121  71.8641663
  47.8295088  89.2123222  75.5737829  47.6030397  90.0912285  75.2696991
  48.3695030  88.8479614  74.8724413  60.4591990  48.1020832  22.3667955
  60.1189184  48.8939238  22.7832437  59.9260998  47.3936892  22.7276397
  43.9227724   3.1907880  34.3529773  43.6653757   2.5809219  35.0443840
  44.6004343   2.7251178  33.8629174  27.5591016  78.9120436  90.3325462
  26.8107748  78.3349562  90.1801968  27.9825091  78.9860535  89.4772720
  25.8695483  60.7572317  62.9537106  26.1348033  61.3190508  62.2255421
  25.5121398  59.9744844  62.5344324  37.9226327   8.3237839  75.4782772
  38.0058074   7.3766953  75.5893469  37.4373031   8.6138129  76.2506580
  22.6002479  57.2992468  66.8998241  22.5998807  57.5276327  67.8293753
  23.3267593  56.6833019  66.8048096  15.1810718  29.0309215  88.8954163
  15.9279335  29.3360829  88.3803368  14.4153702  29.3651056  88.4282398
  51.5345001  63.3796358  94.0901852  50.6354570  63.4332514  93.7660217
  52.0747757  63.3860302  93.3000660 110.9731293  24.9434614  91.2974548
 110.1884651  24.7528696  91.8114662 111.2584591  24.0902281  90.9706402
  24.3765831  42.6672506  60.0850010  25.0644422  42.0184660  59.9361181
  24.5476913  43.3507252  59.4370651  38.7995720  44.3768787  45.3247929
  38.3311343  43.5710669  45.5426550  38.4184790  45.0388813  45.9016418
  56.3763905  32.3456788  22.8209829  56.3598490  31.5049314  22.3637056
  55.6729603  32.8526974  22.4155855  77.7051449  86.1584091  11.9940817
  78.2293415  86.7395020  11.4429140  77.7097464  86.5764618  12.8551543
   1.9674031  76.2762928  61.5868235   1.7050000  77.1967602  61.5759754
   2.5009754  76.1886406  62.3766613  29.5362759  50.7409477  56.9251871
  29.6857405  51.6761494  57.0640564  28.7031555  50.6986570  56.4557695
  61.4514160  18.6319304  53.1291628  61.6646433  19.2597401  52.4387884
  62.1611643  18.7245774  53.7647009  48.9064789  44.7205400  61.3363218
  48.9841413  44.4258070  62.2437000  49.4770193  44.1309166  60.8433104
  38.1171298  39.2826629  45.2981043  38.0714226  38.6255574  45.9926224
  37.8889441  38.8047075  44.5007801  25.3258061  19.4160593  43.3270311
  25.5309510  18.6690426  42.7647924  25.0728130  20.1109242  42.7192593
  42.9940844  38.2332683  45.0865841  43.7097788  38.8162780  45.3397894
  42.2033167  38.6786366  45.3908205  27.4486184  50.7257938  74.3063593
  26.8229270  50.4613686  74.9807644  26.9040465  51.0344362  73.5821915
  30.3674555   9.7931927  50.4002619  30.8908653   9.1119081  50.8223104
  29.6173143   9.3257576  50.0328016  31.9521403  20.9354115  78.0507040
  31.9635272  20.1206493  77.5484467  31.1868715  21.4079928  77.7231932
  12.7292025  58.2573318  35.9560370  13.0740535  57.4323750  35.6143355
  12.1191037  58.5589886  35.2829742  43.4903812  43.4982634  60.6642199
  43.5767841  43.5622931  61.6153622  44.2327595  43.9963961  60.3222132
  20.9286833  52.7691412  62.1320724  20.7861757  52.0898676  62.7912426
  20.2130055  53.3898211  62.2691536  12.9613543   2.0607011  64.8942757
  12.1069515   1.8215847  64.5350409  13.5876966   1.7899773  64.2229795
   7.4485672  57.8168821  55.1989317   8.1090432  58.5003996  55.3120995
   7.8137374  57.2396374  54.5283556  27.4691343  33.3245516  79.8109388
  28.2911777  33.6347938  80.1907158  27.2501278  32.5436163  80.3192806
  32.4280167  55.5086851  77.9725313  31.5607500  55.1736069  78.2001352
  32.6717091  56.0647917  78.7125206  30.5724001  34.3752265  76.7862654
  29.7256804  34.0217948  76.5135288  30.5206704  34.4107628  77.7414083
   5.1498139 104.4407082  49.3212414   4.8222762 103.7335682  49.8770285
   5.0346553 104.1162777  48.4280920  54.2784548  60.9928560  15.3694344
  55.2007103  61.1781025  15.1923347  54.0730667  60.2434397  14.8104823
  13.5593677  41.8051529  70.1723766  13.0022252  42.5445223  69.9291563
  14.4503987  42.1103191  70.0015879  10.7625163  16.0322678  33.4318542
  11.3343263  16.5627754  32.8770351   9.9332005  16.5100050  33.4471631
  28.0429316  33.4935021  75.7111502  28.0491567  32.6500320  75.2586555
  28.3423543  34.1206408  75.0529099  31.4559317  75.3541470  80.8144855
  30.7328939  75.1086426  81.3916969  31.8277574  76.1390305  81.2168980
  14.0850914  68.0322933  23.5328269  13.6764956  68.6366367  24.1525459
  14.0772104  67.1870422  23.9819646  45.0123692  40.3786325  35.8271480
  45.3070116  39.4687772  35.7874250  45.5818415  40.8418417  35.2128410
  50.0934124  53.6153078  37.4574828  49.4112778  53.4273291  38.1021452
  49.6920109  54.2477179  36.8615222  21.4570236  44.2776823  84.3950462
  20.5206323  44.1361713  84.2558384  21.5340686  45.2155399  84.5703125
  41.1723089  48.8513565  40.5770302  40.9676170  49.5795107  39.9904108
  40.6051826  48.1390858  40.2816200  33.0104160  53.4374428  74.4580698
  32.1148300  53.6527205  74.7184753  33.4832859  53.3399248  75.2845764
  20.3145027  66.2955618  64.2228174  19.6585476  66.6885805  64.7985697
  21.1525846  66.5134859  64.6306896  16.4134765  43.1737280  72.0154858
  15.9926224  43.0967903  71.1592150  17.1419346  42.5537395  71.9808960
  27.6881361  10.2877867  67.7575731  27.8286862   9.3409634  67.7557468
  26.7955136  10.3980494  67.4300098  27.0470905  27.8713369  44.8980236
  26.3758969  27.3852777  45.3770638  27.4847460  27.2101665  44.3617916
  24.2798018  34.5872355  69.4346857  23.4758687  35.0470448  69.1928196
  24.8157072  34.6085787  68.6418533  13.7891853  55.3342772  69.8560381
  14.5338356  55.8308983  70.1952982  14.0619266  55.0622940  68.9797592
  31.4805245  61.1863852  35.0065041  31.8369603  61.9918299  35.3812623
  32.0714760  60.4981184  35.3119421  44.2596436  61.1062956  84.4403267
  44.0596533  61.5121555  85.2838421  43.4356451  61.1446047  83.9547443
  20.6579256  72.2101974  73.2908344  20.1842093  73.0415583  73.3167171
  21.3754106  72.3238564  73.9141560  29.4634271  23.3360529  69.7370481
  29.0645266  22.4665856  69.7032833  29.4502735  23.5697269  70.6651926
  11.8816113  51.0419273  30.6790328  12.0318711  50.1040411  30.7974339
  10.9644663  51.1700153  30.9212518   7.6510030  25.1018405  51.1070967
   7.1217525  24.5738006  51.7048454   8.2284772  25.6060529  51.6802692
  52.8408861  13.0826712  52.2460747  52.2933340  12.6236570  52.8830385
  53.6000967  12.5119114  52.1274805  67.3812389  28.9098406  33.5708594
  67.9929924  28.1740975  33.5967994  66.5794563  28.5416913  33.1995893
  43.6097145  40.6264019  59.9338627  43.2748318  41.4254284  60.3408575
  44.4071865  40.9034872  59.4827557  50.4239273  37.5796485  64.6291351
  50.5340433  38.5152292  64.7988272  51.1177444  37.3660970  64.0052414
  54.2989063  37.5590634  63.2253027  53.9229870  36.8265271  63.7134695
  53.6018372  37.8323245  62.6289320  35.2273059  42.5776863  60.6693125
  35.6025910  42.0576191  59.9587297  35.8759117  42.5272131  61.3714457
  39.3789029  45.3411198  49.7539711  39.4086385  45.0105619  50.6517887
  38.4918809  45.1416731  49.4545603  21.4445925  44.9012470  66.2919760
  21.0701132  44.5718765  67.1089888  22.2164774  45.3970861  66.5650558
  74.6081686  27.1810961  46.0199738  74.2939615  28.0476856  45.7620382
  75.4528522  27.0914674  45.5787230  43.3569860 100.8555317  19.2383707
  43.6561775  99.9731064  19.0191841  42.7418232 100.7274055  19.9604440
  54.3168783  42.3761559  57.1364212  53.9070559  41.9638491  57.8968668
  54.7902536  43.1260777  57.4966574  92.9343414  26.0367513  51.4194632
  93.6926556  26.2246513  51.9725418  93.0142975  26.6483879  50.6875229
  21.3004112  42.2327805  71.3253164  21.0656905  42.3076248  72.2502708
  21.3153291  41.2905264  71.1574841  35.1337767   3.8024163  50.9539652
  35.8758354   4.3631417  51.1801720  34.3741155   4.3835366  50.9919977
  19.8302889  23.2807589  49.6083403  20.4576516  23.9987612  49.6927309
  18.9912271  23.7132430  49.4497013   9.2966318  50.0827169  73.5888052
   8.5080910  50.1154518  74.1304350   9.6808702  49.2263889  73.7766790
  34.4452310  39.0299678  18.5875046  33.5031033  39.1942716  18.5471272
  34.6371365  38.5387135  17.7887106  43.3537245  34.7965527  72.6257467
  43.4490252  35.4372215  71.9209814  42.5606489  35.0662088  73.0889416
  36.0192227  37.6681542  49.0304565  35.3752470  37.5770855  49.7327614
  36.7025280  38.2255173  49.4028425  60.4352856  25.4164004  53.8795996
  60.0051880  25.5248666  53.0313778  60.8061981  26.2775993  54.0719366
  37.9679823  35.7643509  70.8888531  38.5153461  35.1415181  71.3670826
  38.5911345  36.3519192  70.4614496  22.0721364  19.9302065  69.5653105
  22.7140021  19.2777491  69.8455572  22.5640297  20.5201697  68.9941597
   6.1988223  44.0474701  87.8076363   5.7393491  44.3953705  88.5718918
   6.9812369  43.6301231  88.1680298  24.5274949  98.5671806  82.1127415
  24.7080040  97.6788330  81.8053532  23.7619328  98.8439274  81.6092014
  58.1145096   2.5180656  23.9975476  59.0244007   2.2210674  23.9864755
  58.1470871   3.3738586  24.4250870  37.9182029  30.0499010  42.4777508
  38.2684326  29.9508357  43.3630514  38.4874654  30.7002282  42.0663548
  72.9051542  24.0229917  67.8563023  72.8410006  24.9458194  67.6103258
  72.7896166  23.5472775  67.0337582  17.7919042  56.9950867  47.5185537
  17.5445235  57.5042057  46.7466497  18.7489116  56.9850254  47.5022221
  35.4686809  23.4981585  50.7199717  34.8254108  24.0936446  50.3354836
  35.1009417  22.6255655  50.5800438  36.2970877  55.6989527  61.0901499
  36.3930154  55.4960537  60.1596308  37.1868706  55.6481171  61.4393425
  31.4570689   3.4481084  53.2080269  30.9321713   2.7362993  52.8419113
  30.9365582   3.7770823  53.9408827  23.5439634  54.9587297  62.1923971
  22.8138494  55.5420351  61.9852209  23.5650063  54.9317837  63.1489849
  31.2767720  32.1912813  61.0793018  31.8526936  32.5922155  60.4283047
  31.2042522  32.8480840  61.7718220  24.6917558  25.2659345  55.5289745
  24.4338322  26.1179399  55.1771307  23.9408398  24.6980977  55.3560019
  44.5466614  51.7827702  74.0624237  43.6255312  51.5970802  73.8800144
  44.6538925  52.7068615  73.8370705  51.9559765  18.7941766  60.2074909
  51.8859339  19.4080377  60.9385872  51.4196968  18.0462229  60.4705477
  16.6507733  60.5417776  90.5274963  16.5811622  60.4474783  89.5774937
  15.8766174  60.0949335  90.8699036  46.2267113  48.6625147  50.3573513
  46.1738539  47.9539442  50.9987354  45.7863855  49.4005060  50.7789135
  54.5654345  12.9873657  74.4146061  55.2373886  13.5269594  74.8311996
  54.9840498  12.1352160  74.2928171  14.9424636  46.8166447  89.7453785
  15.3703380  47.4696207  90.2992535  14.0178025  47.0639420  89.7542286
  24.0889502  76.6121721  68.3774710  25.0304055  76.6459990  68.5470343
  23.8784719  75.6784010  68.3803177  50.4636192  30.4502463  74.4798422
  51.3303137  30.0557137  74.3827724  50.5331516  31.2939763  74.0331650
  53.6131716  60.5497456  59.3257284  53.1713200  59.7167397  59.4903421
  54.1570759  60.3842831  58.5556507   5.6440395  56.6105080  70.4614782
   6.2031788  56.7279291  69.6934891   5.1236266  55.8322668  70.2621222
  15.5542111  69.8931789  40.9698391  15.9515166  69.0382290  40.8041954
  15.0953257  70.1055527  40.1570940  43.5645294  71.7967939  65.0264168
  43.7902069  72.3373079  65.7834864  44.0537024  70.9845638  65.1576662
  25.8693385  46.3929939  68.7517738  25.7247567  47.2736073  68.4055805
  26.7806315  46.1967897  68.5343266  17.7502358  59.2069149  64.1741610
  16.8451691  58.9098263  64.0802288  17.6762629  60.1385784  64.3809557
  63.8708353  36.8427920  57.5292873  63.4471464  36.0810399  57.9248285
  64.6616268  36.4914441  57.1200943  68.8600636  25.9400225  77.4164248
  68.6259079  25.6292486  76.5418816  68.0236292  26.0156584  77.8756475
  20.8343387  63.0764294  69.8883295  21.6774035  63.4660435  70.1200056
  21.0422230  62.1679068  69.6701527  49.9475527  47.1456242  60.4852247
  50.7634020  46.9367933  60.0302315  49.6506214  46.3081074  60.8410740
  32.5078607  64.0508986  67.1741056  31.7187524  63.5091496  67.1812296
  33.0122352  63.7295914  66.4267111  53.0648994  57.7570581  59.2861748
  52.6901865  56.8769312  59.2515898  53.7153959  57.7681875  58.5840654
   9.7204489  30.4003668  54.6793938   9.9397653  30.2428198  53.7610769
   8.7858814  30.6070900  54.6703863  38.0962801  54.2506313  54.0711403
  37.5467587  54.7679234  54.6599245  38.2022882  53.4110069  54.5183802
  52.1800375  55.8668184  56.0443354  51.7894745  55.5306292  55.2376938
  53.1179523  55.7055521  55.9416389  20.0402284  37.5039959  56.1579990
  19.6844101  38.3923769  56.1378670  20.9388494  37.6129031  56.4692068
  33.8762450  79.8485947  71.6334486  34.2880416  80.5172062  71.0860825
  33.1732035  80.3116512  72.0890141  82.8906441  44.4098568  40.1462317
  82.0979023  44.2408609  39.6370840  82.9949093  45.3609562  40.1184750
  51.3292742  54.8704433  87.8514671  51.4828491  54.6961212  86.9228935
  51.5800285  55.7868624  87.9677963  41.2581396  61.1112595  60.5463362
  40.6452417  60.3872490  60.6743765  41.1685753  61.6435337  61.3368368
  13.4741867  33.0413270  51.7160845  13.2277048  32.2843385  51.1846304
  12.6404095  33.4206820  51.9938183  37.3986602  64.6855879  55.0727367
  37.3630953  65.5343723  55.5137968  37.0560575  64.8569489  54.1955328
  35.1466179  36.7710090  87.7708530  35.2358961  36.1872172  87.0175552
  34.5314312  36.3217497  88.3504581  26.1087799  10.4619396  24.3013239
  25.3349900  10.5226493  24.8614979  26.0229540   9.6141040  23.8653874
  59.7224474  73.3866978  75.8474398  59.2837524  72.7232027  75.3149414
  59.6973658  74.1791916  75.3111935  32.3154163  57.9687357  66.0648155
  32.5253940  57.1472549  65.6206131  31.6575742  58.3820248  65.5056477
  40.8617401  53.0057383  61.9720221  41.5943336  53.6095572  61.8497753
  40.5805159  52.7873707  61.0835075  44.6552896  59.8775005  81.2729168
  44.2720985  60.0778246  82.1268845  44.4096899  58.9671993  81.1077785
  19.8863220  54.6478128  76.9951057  19.3736684  53.8414431  77.0515251
  19.3122709  55.3224564  77.3578119  43.8406897  45.8718348  48.1644678
  43.5590076  45.0378799  48.5405159  43.0254650  46.3305712  47.9614878
  46.3713074  53.9788532  66.0024261  46.9361544  53.4032774  66.5180731
  46.4813232  53.6772633  65.1006651  63.6290026  36.4010835  63.8197851
  63.9872122  36.3660026  64.7067404  62.6893520  36.5328479  63.9460087
  30.9179854  54.7160435  62.1802664  30.4952598  54.4633579  61.3594818
  31.7693877  55.0632572  61.9141960  39.6634769  26.7318392  59.5966673
  39.5820999  26.8717313  58.6532497  39.2704630  25.8719254  59.7460699
  27.2704720  46.3989496  84.9170685  27.4417591  47.2092915  85.3969002
  26.3931727  46.1364460  85.1957703  65.3502321  92.2456169  71.0712147
  66.2615776  92.3407555  70.7943964  64.8433733  92.3469543  70.2655697
  74.6982765  41.1504030  44.2764616  74.9873924  40.5942535  44.9998808
  75.4752159  41.2511730  43.7265110  70.4678917  32.0854306  63.9342737
  69.8389006  31.7837811  64.5897198  69.9520350  32.6309538  63.3405256
  36.8674469  55.9796715  55.7240677  36.2591314  56.7098999  55.6102705
  37.7299356  56.3918829  55.7733393  35.6279182  64.9324894  71.5867519
  35.8762479  65.6217241  72.2028065  34.6728563  64.9811125  71.5451908
  43.6315441  50.2258921  78.1792259  43.6543369  49.4939899  77.5627661
  44.5522833  50.4318762  78.3406115  44.3749237  32.0244074  60.7080078
  43.7941933  31.7636204  61.4228344  45.0330639  31.3304710  60.6688023
  40.4330778  55.2472448  52.7769136  40.9961796  55.8468962  53.2663727
  39.6913671  55.0855255  53.3599615  37.6630163  68.5278177  92.6734638
  38.3071113  68.7151957  93.3563042  37.2798681  67.6887989  92.9293633
  34.6153450  91.5803242  70.5251598  35.5072021  91.8952751  70.6722355
  34.0605855  92.2054863  70.9916830  28.3212066  78.4788036  59.9829197
  27.6614642  79.1670752  59.8977613  29.1068268  78.9359045  60.2830791
  53.4921837  52.1863174  57.9945374  53.0532026  51.4626312  58.4415293
  54.1019535  51.7608833  57.3916960  24.6336436  37.5048947  82.5687504
  24.4130135  36.6649175  82.1662712  25.3176498  37.2937012  83.2041740
  37.5128984  63.9033461  70.0634384  36.7744684  64.3538427  70.4733229
  37.1082044  63.2789135  69.4613266  41.7794371  56.9591379  59.9873877
  42.1373415  57.4117517  60.7511139  40.8428669  56.8844366  60.1703739
  24.8627377  82.7639771  91.0716057  24.4965386  82.4085331  91.8814182
  24.1579652  82.6737690  90.4302120  47.7784681  35.8254671  74.7187281
  47.2374344  35.2739835  74.1535902  48.1296015  35.2239037  75.3752756
  24.9492931  55.3106022  66.2092829  25.0737214  54.4331408  65.8475971
  25.8118773  55.5563974  66.5435934  55.4504395  74.5909643  80.5946064
  55.4464674  73.8079119  81.1451054  56.0547304  75.1894379  81.0338020
  76.5282440   6.4362568  31.7867732  75.8420992   5.7759142  31.8836498
  76.1052561   7.1537519  31.3150573  61.9759274  76.8426847  46.6549110
  62.8941345  77.0232868  46.4536476  61.9170952  76.9323540  47.6060820
  68.6408043  66.2212658  56.3952827  69.4014549  66.7887211  56.2702227
  69.0103674  65.3830242  56.6727877  84.5155334  72.2991753  81.6277218
  84.5189667  72.6146936  82.5314236  85.3305435  72.6342487  81.2539387
  25.7778263  81.4192104  68.6038733  25.6151009  82.1756744  69.1673565
  25.0543690  80.8210564  68.7910986  72.1606112  74.4703197  48.8248491
  72.3809147  74.8368740  47.9685020  71.9745779  75.2337408  49.3714857
  44.9386168  68.7566519  62.7996111  44.2477894  68.3011198  63.2807350
  45.7401180  68.2859993  63.0283356  24.2645144  65.5367470  74.9679327
  24.9756837  64.9222231  75.1491308  24.2134285  65.5690145  74.0126419
  48.2811403  70.3404522  55.9271336  49.1516066  70.7377100  55.9536314
  48.4472466  69.3980026  55.9478569  29.1715503  50.1389694  66.0197544
  28.5466194  50.6715775  66.5117121  28.6603475  49.3885708  65.7167673
  72.7143717 100.9581184  80.0032330  73.5215664 100.8948231  80.5137920
  72.0285320 101.0988617  80.6559563  88.2223415  68.1394291  72.1605253
  89.0130424  68.5449076  72.5163507  88.5368538  67.5922489  71.4408636
  69.4525719  60.6270695  65.4991436  69.9223137  60.6558752  66.3326597
  69.9749088  61.1723423  64.9108696  25.6475472  56.2736797  63.8274384
  25.0630331  55.9688139  64.5214367  26.3700628  55.6458282  63.8298178
  33.9623857  98.5092449  47.5172520  34.3486404  97.9965973  48.2273483
  33.0696464  98.1732655  47.4374437  33.6245894  73.9794111  70.9109402
  33.0699086  74.7135925  70.6472397  34.0355253  74.2700434  71.7251205
  89.7792816  15.4920781  42.2546339  89.3181133  16.2881732  42.5188017
  90.5520535  15.8072925  41.7859125  68.7916946  69.6349049  65.1665211
  69.6030235  69.8318052  65.6347179  69.0550900  69.0260744  64.4764614
  65.6984234  64.2897034  61.5731287  65.6646109  64.9370098  62.2774601
  65.4570150  63.4647083  61.9942379  90.7606983  20.0846148  60.7756710
  90.6602669  20.1709509  61.7236662  90.2337456  20.7967496  60.4131508
  46.2338352 102.8986835  63.3970118  46.3412714 103.2876492  62.5290298
  47.0406389 103.1220818  63.8611174  11.7543483  82.4745464  71.6980076
  12.0539808  82.4465656  70.7893419  12.2437739  81.7764759  72.1331978
  52.7827024  85.6537056  56.9820404  53.3744287  86.3690376  56.7488098
  53.2776594  84.8589230  56.7831278  37.3843813  65.8750343  93.7000561
  37.6167178  65.7788181  94.6236324  36.4707518  65.5935431  93.6523342
  34.1514325  72.7838373  53.8210249  33.8893485  73.6943769  53.6851358
  34.4615889  72.7564144  54.7261667  68.9916897  83.5830593  77.1920109
  69.1434765  83.5355949  76.2481117  69.8474026  83.8008213  77.5615549
  50.7093096  77.4257898  61.4621878  50.3994703  76.5201807  61.4721346
  50.9059381  77.6015663  60.5420399  49.0133047  65.7979631  66.0057354
  49.6117020  66.3851166  65.5437756  49.3398142  64.9199438  65.8089972
  57.5887299  78.1218624  69.6674728  56.8032598  77.5878906  69.5485449
  57.8819799  78.3180189  68.7776661  67.9540730  70.4657602  71.3550472
  68.7795639  70.1453447  71.7185450  67.3065758  70.2866173  72.0368719
  66.2986135  75.5842304  64.0421391  66.6141415  74.7421503  64.3701267
  65.5065680  75.3680325  63.5500479  95.4840183 107.3993874  54.9699926
  94.7510242 106.7937756  54.8595476  95.4766941 107.9318619  54.1746044
  93.7637520   6.1739743  51.0416317  93.2141590   6.9562274  51.0891914
  93.5974979   5.7140613  51.8644762  59.9256754  71.3623476  63.6006498
  59.9448967  70.5404854  64.0909672  59.4180822  71.9581509  64.1516495
  68.5745811  72.4062014  63.6843872  68.8208675  71.4895105  63.8078737
  67.6519489  72.4424076  63.9367199  60.2618885  81.4722252  63.4195709
  59.7851753  80.7904625  62.9460955  61.1730099  81.3595581  63.1486464
  57.1412277  77.9665279  86.0159206  57.0963287  78.4243107  85.1764870
  57.6437521  77.1734285  85.8296490  42.3766947  87.4789906  51.1789799
  42.7736807  88.0426121  50.5149317  42.7168226  86.6053200  50.9860182
  86.8526268  82.6978397  70.3415823  86.2104130  82.0703697  70.6733370
  86.6956234  83.4930801  70.8506823  61.8857527  83.8448620  81.1521912
  62.8191185  83.8492584  81.3644123  61.7410994  83.0002880  80.7255840
  46.7079210  83.2483673  85.8453083  45.9321404  83.1456757  85.2940845
  46.5450668  82.6781082  86.5966511  89.3898296  82.2819328  64.8129177
  88.6124706  82.5463009  64.3209314  89.8902512  83.0904865  64.9226904
  62.9458570  76.8913364  68.9562178  63.2342863  77.7596998  68.6751699
  63.6301708  76.5941143  69.5558882  64.6698380  91.6691685  75.3699064
  64.0773392  92.0765686  76.0017300  65.1015997  92.4056721  74.9370432
  43.4850740  54.2809248  66.4546108  44.4355679  54.3856764  66.4119196
  43.3528900  53.3404636  66.5741682  69.1699839 107.2813797  50.0311947
  69.5951605 108.0856514  50.3288651  69.3891621 107.2246838  49.1011524
  37.4140191  93.0134583  71.3508558  37.0588756  93.7733173  70.8896399
  36.8445635  92.9081917  72.1130085  83.4072876   2.7966329  51.9808006
  83.2164574   3.5570228  52.5300026  82.5473309   2.4735947  51.7118168
  30.9535146  90.2499390  45.3359222  30.4082489  89.4763756  45.1926661
  31.4751387  90.0354099  46.1093044  67.2173262  76.6000080  71.7864943
  66.7228699  76.3443613  72.5652027  68.0508757  76.1367941  71.8692875
  74.2452860  91.9270992  69.9517059  74.5668459  91.4778900  70.7333994
  73.7904978  92.6988697  70.2890062   1.4107209  84.8241520  51.0217571
   2.0788808  84.7066021  50.3464937   1.7466941  85.5329800  51.5703201
  64.8399162  61.7606544  60.6049347  65.1457548  62.4337053  59.9969101
  65.6237364  61.5014887  61.0893822  80.3185558  77.2916698  37.0762396
  80.5930805  77.8930378  36.3839769  80.0988674  77.8602791  37.8142452
  81.3931084  25.1586342  35.0778174  81.2099934  25.9936666  34.6472120
  81.3357067  25.3538203  36.0131478  44.4486380  69.5829582  60.2433205
  44.0262842  68.8134718  59.8615503  44.6225023  69.3349648  61.1513424
  83.6371517  68.1806517  48.6757040  83.3061504  68.6906147  47.9363728
  82.8571129  67.7778101  49.0571499  69.4739628  91.7778778  90.5356503
  69.0264320  92.3970318  91.1123562  69.5494509  90.9777927  91.0556602
  36.1410308  86.4948559  49.0473700  35.5519748  86.5922928  48.2992077
  35.7096958  85.8513737  49.6096039  33.0376530  64.9642324  73.6887932
  33.0592728  65.0519180  72.7358627  32.1063471  64.9105167  73.9033079
  38.8280416 101.2692547  73.7813282  38.4680939 101.5283108  74.6295977
  39.1283965 102.0887184  73.3882523  57.4888945  79.8778915  71.6854000
  56.5432453  80.0254822  71.6713953  57.6415682  79.2368698  70.9911251
  68.8640499 100.8451271  76.5887308  68.0551338 100.8055782  76.0785151
  69.0922451 101.7745972  76.6042328  35.7655621  67.3151684  60.3196287
  34.9690938  67.4694395  60.8276320  36.0162663  68.1812906  59.9983644
  68.4441805  83.0633640  93.1068230  67.5586843  83.0651855  92.7433300
  68.4432745  83.7782574  93.7433434  63.5624361  49.7786474  94.2903519
  63.6549139  50.4020119  93.5698700  62.6349592  49.5420313  94.2847824
  32.5305605  90.4754639  64.0796375  33.1228304  91.1953926  64.2967749
  32.9289865  89.7063637  64.4870377  76.7895985  78.4722090  83.5501575
  76.9739580  78.6374712  82.6255322  76.0208607  79.0096951  83.7409019
  65.3348017  82.1135044  64.5782948  64.5432186  82.0985413  65.1162624
  65.5164719  81.1919880  64.3938112  21.0161567  36.1508274   1.9745964
  20.1429176  36.1925673   1.5848026  21.6138148  36.2725019   1.2368749
  83.4911728   8.9189011  22.0452762  83.6621094   9.7752690  22.4372530
  84.2705631   8.7357420  21.5206504  46.4114809 102.4086380  44.1402912
  45.8135176 102.6462746  43.4316301  45.8905745 102.5090981  44.9370289
  52.7601290  83.4142208  45.8774710  53.5220098  83.4533787  46.4555979
  52.3100424  84.2472935  46.0176182  70.0858307  87.1779060   4.8358268
  71.0133505  86.9415188   4.8280090  69.9675083  87.6563549   5.6563854
  72.8237104  90.8029079  84.9732590  71.8816519  90.9107113  85.1041508
  73.0765772  90.1250553  85.6000137   6.0743648   0.9510464  55.7577085
   6.0164607   0.5649608  54.8837423   6.7959362   1.5769261  55.6957340
  76.8959761  85.1513863  79.6184349  77.3677158  84.4155216  80.0085545
  77.2543907  85.9241581  80.0549984  72.0214415  61.9724798  55.5065489
  72.1417189  61.3540268  56.2271595  72.0678806  61.4327240  54.7174072
  43.5598421  95.0585556  46.4368439  43.9788437  94.3572617  46.9357109
  43.1295204  95.5994225  47.0990467  55.6512642  87.0610332  49.8537683
  56.3001776  86.4411163  49.5208549  56.1698008  87.7837849  50.2073145
  50.4691792  87.8601933  55.4278660  50.4396963  87.7577305  56.3791084
  51.0531998  88.6050415  55.2851820  45.1918411  63.1642866  90.8854675
  45.1255322  62.5559473  91.6215038  45.7325697  62.7048635  90.2429867
  48.6340475  62.7374268  63.6364079  49.5108509  62.7690125  64.0191031
  48.7293005  63.1624031  62.7840281  67.6517677  61.4940929  55.0305271
  68.4839058  61.0221100  54.9986792  67.3648453  61.4125967  55.9400654
  41.9950914  69.8562908  62.3623133  42.8782272  70.2172995  62.4396515
  41.5123987  70.5103350  61.8568802  83.9127254  76.3112926  75.3750992
  84.5465660  76.5053558  76.0656214  84.1366196  76.9159508  74.6676445
  77.7538395  92.4107742  87.6879883  77.8418875  93.3431530  87.4901295
  77.9955101  92.3380089  88.6113167  93.9762211  85.9216595  69.8641300
  94.6356392  85.7440948  70.5348492  94.1576672  86.8178940  69.5811749
  62.3973751  76.9702482  61.1300421  61.5668392  76.5633965  60.8832359
  62.4765253  76.8025160  62.0691013  74.3076754  45.0495481  47.9757261
  75.1941824  45.4081535  48.0174589  74.4110823  44.2058229  47.5356483
  52.4320889  96.9129658  63.7856007  52.2558308  97.7397442  63.3366013
  53.3235598  96.6833115  63.5233641  73.3688021  76.4870358  69.4961119
  72.7759218  76.8382406  70.1604748  74.0430164  76.0268164  69.9959850
  49.8111057  79.4024658  67.8001022  49.4365931  79.7020817  66.9717312
  50.7386541  79.6311617  67.7402306 105.6533813   2.6372600  83.6634636
 105.4347515   1.9339631  83.0520630 105.1796436   2.4139909  84.4646835
  86.6922379  93.2683086  49.8266745  87.2282982  93.5955143  50.5490351
  85.8902359  93.7891483  49.8685455  54.4881630  72.2850180  71.2023163
  54.4491386  71.6678047  70.4717302  53.8056135  72.9278183  71.0095215
  95.9131622   4.9893948  47.7263403  95.5103207   4.1699976  48.0136347
  96.2586403   5.3806567  48.5287046  42.2002935  80.8516788  58.2546949
  42.0706367  81.2893009  57.4133205  42.1830082  81.5600109  58.8982725
  65.9652615  82.3209667  22.4041152  65.4094410  81.8618202  21.7744446
  66.8568993  82.1733284  22.0888066  73.1017256  12.0682883  65.6771040
  73.0037260  11.4784980  66.4246130  72.2610378  12.5221741  65.6183052
  32.7941513 102.7550793  40.9657907  32.0948029 102.1017456  40.9486580
  33.3926034 102.4475384  41.6465998  35.2247357  97.3641968  65.6076860
  35.5290031  97.5403023  66.4979887  35.7275629  97.9663467  65.0592232
  16.7474508  26.9545507   3.1800130  17.2462547  27.7563524   3.3366594
  16.6323340  26.9257975   2.2301957  81.5713692  92.4909115  75.8465767
  81.4550591  92.9601574  75.0204325  81.8958473  93.1545162  76.4553308
  69.2236710 102.4349880  34.9684763  68.8238430 102.4945164  34.1008186
  70.1474762 102.6375580  34.8209023  74.1592026  69.1449165  57.8179884
  73.7251854  68.3048630  57.6690769  74.4311571  69.1147232  58.7352467
  40.0184679  24.5459414   1.5112598  40.8920479  24.5462179   1.1199895
  39.4968748  23.9901257   0.9322597  39.1663408  97.2481346  29.1285539
  39.1182637  98.0062771  29.7109151  38.4818506  96.6588593  29.4455099
  31.7309213  75.8666325  69.9052191  31.0171556  76.3530874  70.3176928
  32.4701071  76.4747429  69.9113464  21.7759538  87.4395466  62.0587397
  22.0876431  86.5449429  61.9217443  21.1566138  87.5894165  61.3444662
  76.9982672  90.8008671  43.7626982  77.6942110  91.3963223  43.4846163
  76.2564373  91.0194683  43.1986618  77.2075653   5.9529924  77.4776363
  77.5980234   6.7140520  77.0480299  76.5134621   6.3177603  78.0266380
   7.1654058  10.9373760   8.2888126   7.0549071  11.4002478   9.1193378
   8.0295551  10.5309367   8.3542603  12.8684914  53.9439535  15.3111923
  12.1714807  54.0338802  15.9610546  13.6780703  54.0083456  15.8178151
  55.4329777  94.8306751  30.5972791  55.5060577  95.4375839  31.3338614
  56.1891651  94.2509651  30.6886578  91.7853928  55.4809093  54.5527601
  92.4712181  55.3133011  55.1991272  92.0046425  56.3381815  54.1877365
  88.0370712 104.8772907  67.1099997  87.7843666 104.2439079  66.4382792
  87.2969532 104.8909569  67.7168465  66.5609503  90.0278759  59.6955013
  66.7408943  89.7328377  60.5881405  65.7658911  89.5581055  59.4436693
  83.6578274  97.0634174  71.9725370  83.5422897  98.0031300  72.1133518
  84.5197392  96.9867420  71.5633106  93.9306831  86.2182426  39.4683528
  93.5756397  85.3400993  39.6063542  94.8525906  86.0731411  39.2555976
  57.0435619  86.3962078  60.0124454  57.9795885  86.5561867  60.1328230
  56.9751215  86.0256958  59.1325188  61.1856413  95.5985165  88.8737106
  60.3564453  95.2530479  89.2043400  61.3930702  95.0442600  88.1213760
  98.8801003  57.3000717  64.7800159  99.2042065  58.1019020  64.3698311
  99.6677780  56.8574286  65.0960398  53.5090113  76.8245697  85.6160545
  54.0176630  77.1505833  86.3584995  52.6365089  77.1978474  85.7411098
  92.7004337  86.3582230  59.8277569  91.7963409  86.6446209  59.9574947
  92.7364349  85.4897690  60.2286673  79.1903257  82.8421307  56.5596104
  78.8964796  83.1105995  57.4301338  79.2070913  81.8858051  56.5968466
  79.0838289  79.3256569  74.8316860  78.1443834  79.3272305  74.6481991
  79.4778109  79.7465754  74.0675926  59.3959332  92.3952961  84.8313808
  59.0970039  91.9133568  84.0602779  58.5914612  92.6293373  85.2942848
  59.2668629  90.1962185  60.4324389  58.3648968  90.1429939  60.7484388
  59.5059347  89.2902565  60.2367306  44.4807339  80.4287529  65.5461597
  44.6790457  80.1204872  66.4303970  43.6317921  80.8631611  65.6287289
  60.5271721  98.7499046  83.7290287  59.9728346  98.7904835  84.5083237
  60.2530956  97.9493332  83.2815742 108.6557865  74.5871019   8.5552233
 108.4346390  75.4329014   8.9450383 108.0547333  74.4998693   7.8153878
  49.2282724  88.5805225  52.4101639  49.1545963  87.8081799  52.9707813
  48.5659122  89.1843891  52.7461052  39.4048738  70.4949903  68.1458092
  40.2420092  70.2262259  67.7673864  39.6437907  70.9800482  68.9356661
  67.0351982  19.0493143  69.7241449  66.9151402  19.7564995  70.3579473
  67.5846052  18.4108675  70.1788616  26.2764502  94.0312576  58.6304569
  26.9137669  93.9150047  57.9258013  25.8938575  93.1624508  58.7531090
  85.6082153   1.3680442  45.7374811  85.9336662   0.7070354  45.1264334
  85.9927082   1.1254950  46.5798426  35.4903388  26.2807846  36.2894654
  34.7276402  25.8402014  36.6641808  35.1446128  27.1018076  35.9392881
  26.1351752  88.7698841  83.3635235  25.2543330  88.7528992  82.9892731
  26.1637974  88.0087852  83.9433002  42.9337072  90.2954292  43.5608530
  42.5865126  90.9678841  42.9747725  43.2471371  90.7812214  44.3237400
 102.3231983  77.6630974  72.3471737 102.1686459  78.5280991  72.7268076
 101.4967537  77.1962070  72.4706459  78.1366444  72.6998377  48.5327625
  79.0920019  72.6995420  48.4733963  77.8431749  72.9938793  47.6704168
  66.4592457  72.7563477  58.0905914  66.2887526  71.9928694  57.5389862
  65.6920624  72.8166866  58.6598253  70.1849842  83.0473518  44.7332430
  69.4741964  83.6868858  44.6883583  70.4699135  82.9418373  43.8255501
  59.6738577  97.4634457  21.8150616  60.0367069  97.7012539  20.9618187
  58.7486267  97.2897148  21.6418743  60.6400871 101.4115334  78.1063938
  60.4885006 100.4700375  78.0237246  60.9498930 101.6810799  77.2417593
  79.8644924 101.1088753  74.6531153  79.7902489 100.5467701  75.4243231
  80.7769680 101.3980484  74.6544504  34.7259283  66.5261078  65.1700401
  34.4491434  66.1131096  64.3520832  35.1121974  67.3589468  64.8991060
  16.0175276  25.8554292  65.1437283  16.2270129  26.1654878  64.2627001
  16.4316714  24.9942541  65.1993465  50.0714397  74.9876404  64.0597868
  49.8281097  75.7538176  64.5793915  49.2379618  74.6355486  63.7474203
  56.1395168  75.6661701  65.6248474  55.4822922  76.1017132  66.1676073
  56.3794899  74.8835802  66.1210299  16.9920242  33.9144135   5.5040807
  17.1337032  34.8483419   5.6587958  16.0400426  33.8152885   5.4923856
  65.4052448  77.5932980  75.5320740  64.6648836  77.5208759  76.1344433
  65.7920933  78.4462976  75.7294941  62.0752192 106.7424774  45.1303959
  61.3675117 107.3199081  44.8441172  61.7929316 106.4246559  45.9880304
  97.2249508   5.7342499  80.7582474  96.5935326   5.0148618  80.7524872
  98.0196762   5.3584367  80.3795624  80.3850365  91.8539429  47.5005102
  80.5962181  92.7747154  47.6548243  81.1996937  91.3869762  47.6863098
 105.4728889   9.1961747  73.2620049 105.9019279   8.3405858  73.2508707
 105.9780884   9.7092628  73.8926697  31.4927101  94.9099159  94.3106270
  30.9457994  94.1258430  94.2621803  31.6122961  95.1752472  93.3987427
  48.1627321  92.6779270  90.3271770  47.3439550  92.6705170  90.8229446
  48.8428974  92.7981663  90.9898567  42.3472261  38.5435629  38.6695576
  42.1468639  39.0912795  37.9105496  42.0344925  37.6724243  38.4255338
   9.6073663  70.4888868  60.0678587   8.9822668  70.5553913  59.3460131
   9.7355300  69.5479202  60.1877832  78.8853502 100.4863167  87.9628468
  78.9844418 100.5438137  88.9131737  78.3107281  99.7329140  87.8271008
  68.4166527  85.4902935  63.2770348  67.7572155  84.9341965  62.8621531
  68.2029867  86.3756466  62.9825354  69.8171425  87.7179432  53.1834078
  70.1069355  86.9676399  53.7023544  69.1366053  87.3644447  52.6105738
  30.6443119  90.0675488  75.3036976  29.8802495  89.8756027  75.8473873
  30.3256369  90.6963444  74.6561766  49.9822617   3.2613137  47.2449446
  49.9603987   4.0692919  47.7577066  50.6575251   2.7289581  47.6654816
  65.7705545  93.3297157  73.3864450  65.5599213  92.7139473  72.6845264
  65.1942015  94.0777302  73.2298183  70.7377291  86.5553570  25.9077120
  70.2488470  86.2881184  25.1293755  71.0746193  87.4249744  25.6920767
 112.3818016  21.9723058  52.5404692 112.6598454  21.4587140  51.7820835
 112.3377991  22.8721976  52.2172213  96.6656399  84.9497223  87.4400806
  97.2243881  84.7327614  86.6937828  97.2450638  85.4099274  88.0472946
  77.1435595  80.6096268  29.2813635  77.8886604  81.1088181  28.9469004
  77.5161695  80.0515366  29.9639511  21.0933495  84.4518375  65.6293249
  21.0873890  85.3809357  65.8594704  20.5535913  84.3969536  64.8407316
  87.0956135  91.9190502  56.0043764  86.6798401  92.0229340  56.8602800
  88.0135059  91.7357826  56.2046432  82.4847889  64.8247480  59.1622591
  82.6189232  64.4233704  60.0208235  82.1553516  64.1127491  58.6138391
  73.5499334   7.8540939   7.8458059  73.7483501   8.5115415   8.5126084
  73.4598207   8.3548725   7.0350456  69.8681402 106.1364269  83.7987614
  69.5065641 105.7398224  84.5913506  69.1007471 106.3736629  83.2781315
  54.7404861  86.6636372  93.7643909  55.1517534  87.5088406  93.9452648
  54.4969606  86.3263988  94.6264839  65.1835680  99.2291451  50.7289267
  65.3893471  98.3231926  50.9594393  66.0361338  99.6378040  50.5794001
  60.9539938  81.6752052  70.7630348  61.6042089  82.2922516  71.0987568
  60.2867222  82.2280407  70.3564024  66.6886139  82.1328640  37.5796032
  66.3368559  81.2440205  37.6292229  66.0643911  82.6071739  37.0304132
  87.4041843  84.2367458  64.5145702  86.6516018  83.6749744  64.3294859
  87.4765873  84.2333984  65.4690170  43.6474466  57.1742296   6.8020415
  43.0303288  57.3181438   6.0846263  44.5081425  57.1846056   6.3833189
  12.2570312  80.4497814  26.8096423  11.8195832  80.7800198  26.0249043
  13.1597555  80.2930260  26.5326047  63.9286232  85.8420563  42.1233463
  64.5709610  85.9581661  42.8234529  64.3076706  86.2987614  41.3723660
  51.0393000  93.1279373  77.0185232  50.6586218  93.9693356  77.2702408
  50.6167984  92.4916935  77.5955153  70.1143742  92.3443508  44.3826199
  71.0334969  92.4322510  44.6350336  70.0153446  92.9291153  43.6313057
  50.9187698  88.2822037  69.6918058  51.6608429  87.6793194  69.7373867
  50.9388781  88.6195183  68.7962389  21.0574245  53.4997559  66.3730574
  20.2183700  53.0950546  66.5931416  20.8725190  54.0269279  65.5957985
  83.9188957  78.9767504  47.3235273  84.6696377  79.0717649  46.7373610
  83.4405422  79.8011780  47.2356272  46.5401602  39.1275382   3.0658090
  47.1459103  38.9338470   2.3504198  46.9249296  38.6962986   3.8288397
  80.2814960  98.2570934  44.2362833  80.3300667  98.3128548  45.1906204
  80.9343433  98.8846588  43.9261580  62.9224539  82.0194530  65.7900667
  62.7679777  82.5772285  66.5524721  62.2557688  81.3356400  65.8545542
  60.7136440  77.3405743  78.5341740  60.3874397  78.0941200  78.0422497
  60.0940180  76.6385126  78.3356667  30.4496336 100.2992153  71.6414690
  30.8811474 100.9960365  71.1470366  30.0734472 100.7426453  72.4017859
  69.8669767  73.2333422  61.1438131  68.9951515  73.3740520  60.7745552
  69.7040129  72.9746246  62.0508623  70.7384062  89.2401981  50.7511425
  69.8073769  89.3674088  50.5688477  70.7562828  88.7198830  51.5543795
  66.6092825  88.9537430  91.8855476  66.6272688  88.9208317  90.9290791
  67.3518324  88.4145260  92.1577549 108.5787582  10.5421674  20.6784272
 107.7769756  10.0195003  20.6642413 108.6137676  10.9505653  19.8134327
  77.3339033  96.5839672  78.9775038  76.8762398  96.4945602  78.1415749
  78.2622337  96.5762997  78.7443304  84.1075706 107.3234463  13.2371223
  84.6984768 106.8732643  12.6334643  83.6942959 108.0035210  12.7052045
  74.6014357  98.3706760  63.5952282  73.9358997  98.2547092  64.2733479
  75.4335976  98.3244896  64.0659714  57.8739071  95.4225540  91.9440269
  57.0386648  94.9620247  92.0247269  58.2226753  95.4439831  92.8351688
  80.5778885  71.7850256  73.4295893  80.1164627  70.9856272  73.1760502
  80.9364510  72.1248817  72.6097393  98.8692570  82.8646088  67.3936605
  98.2191467  82.4178028  66.8514872  99.1657066  82.1964645  68.0116701
  89.2778683  66.5648842  36.5818000  88.5101414  66.3835478  36.0396314
  90.0159836  66.5217209  35.9738970  83.2783508  99.7163486  72.1522903
  82.4444866  99.7345257  71.6826487  83.2486343 100.4842663  72.7229500
  38.5091424  80.9564590  76.3685417  37.8821349  80.9001064  75.6474924
  38.4142113  80.1254463  76.8339920  51.1302757  95.0186920  59.7170019
  50.3694153  94.4718838  59.9127626  51.5537977  95.1522255  60.5649614
  87.5334644  98.5191059  33.6311650  87.4873638  98.9819908  34.4677305
  88.4633446  98.5265541  33.4042311  77.5889015  24.5996833   4.8352665
  78.2328987  23.9801097   5.1782334  77.9870892  25.4593158   4.9720535
  56.3019466  72.9486704  90.5287266  57.1921539  73.0386162  90.8688354
  56.1445522  72.0045805  90.5163002  12.5555158  28.9899516  11.9072616
  12.3122871  28.6140418  11.0612345  11.8869984  29.6540761  12.0753562
  49.2205477  89.7301006  61.8027163  48.8797569  90.5785942  61.5195942
  48.9830637  89.6733475  62.7282476  73.1861925  78.1092787  83.0329418
  73.1038857  77.1678305  82.8808403  72.9304028  78.2273674  83.9477444
  44.0208340  62.2619486  70.5282402  43.2367468  62.7788353  70.7133436
  43.7932253  61.3742018  70.8045149 110.2675438   8.8034999  79.7270536
 110.8802223   9.4368559  80.1008415 110.6604099   7.9509628  79.9143219
  73.7512302  98.1754875  71.5229750  72.9738951  98.0588245  70.9767437
  74.2422962  98.8763523  71.0941696  45.1021338  76.1822176  62.5408936
  44.8471069  75.3275681  62.8884077  44.9276018  76.7935228  63.2564926
  64.2433882  75.0355005  82.4971962  63.7702513  75.3548145  81.7288113
  64.4585371  74.1271162  82.2855854  78.4388685  81.7912006  76.5053749
  78.9804029  82.1897984  75.8241272  78.5243225  80.8491802  76.3586569
  56.5115786  78.6400270  81.3369370  55.9216738  79.3500853  81.5900421
  56.4398718  78.5974741  80.3833771  48.7241030 105.4303932  75.1275396
  48.7903786 105.5132198  74.1762352  49.3976784 104.7911930  75.3598070
  95.8215427  67.5566244  38.4467292  95.2764702  67.7223396  37.6775312
  96.2944984  68.3770180  38.5863709  94.1834450  65.6001663  81.9550705
  93.4803104  66.1734104  81.6497326  94.9648190  66.1529589  81.9443798
  98.2960510   5.1721096  55.1762247  97.3957157   4.8512879  55.1243448
  98.2634068   5.8730519  55.8272600  85.9518433  77.9097366  86.9318962
  86.7185211  78.2081795  87.4211502  86.2701416  77.7908897  86.0370255
  54.5732832  91.7582703  60.1773262  54.8332310  90.8374405  60.1502752
  54.4305897  91.9396687  61.1062860  60.9954166  82.2762489  77.8767109
  60.6750917  81.7376804  77.1531343  60.4571867  83.0670834  77.8431940
  67.7831221 101.6769981  89.7243023  66.9491482 101.2176895  89.6255302
  67.8645849 102.1997547  88.9266014  62.1404457  90.3496742  61.2138557
  61.6476727  90.9941769  60.7059050  62.7420378  90.8720303  61.7443800
  71.0912228  73.3221722  41.2908840  71.9495344  72.9278851  41.1357307
  70.5983734  73.1461477  40.4894209  55.7172012  82.2504234  65.2340603
  55.5978489  81.3151264  65.0691271  54.9350166  82.6604557  64.8648787
  76.1035013  69.0984392  59.8835135  77.0041513  69.2247725  60.1820135
  75.5809307  69.1147184  60.6853151 112.1958256   8.0429721  41.8671370
 112.7786160   7.4770850  41.3608122 112.3561382   8.9214998  41.5225792
   4.9741694  54.0868568   4.3215695   4.1700703  53.9306164   4.8167908
   4.8178476  53.6711502   3.4736422  56.7458630 106.6180992  59.6327257
  57.5362158 107.0193672  59.2714071  56.0305643 106.9928455  59.1187763
  85.1330471  23.5621858  88.7963390  85.2031994  23.0602002  89.6083260
  85.6306171  23.0532074  88.1563473 107.4043179  36.8805861  36.7896318
 107.6701927  36.0072923  37.0775533 107.6686954  36.9205761  35.8705354
 115.2328587   9.8564416  87.4774742 115.8723927  10.5686390  87.4793816
 114.4662476  10.2217495  87.9191589   3.4238219  15.8489299  56.9928789
   3.4642497  15.0250888  56.5072012   3.8559321  16.4846754  56.4224911
  80.8281326  98.7080002  46.7189884  80.2634716  98.3927631  47.4246979
  81.2687492  99.4732189  47.0884895  65.4512548  60.8326149  12.4659729
  64.5297146  60.6146336  12.6055264  65.8694935  59.9932957  12.2740078
  88.0203438  87.4133110  64.3532181  87.7204609  86.9307041  65.1235390
  87.4649239  88.1924534  64.3274975 112.7656555  10.6632864  62.1167088
 112.8562927  10.7603872  63.0646467 112.0628166  11.2684739  61.8800735
 100.3015423   0.7912496  58.9590216  99.5466709   0.9487780  59.5261145
 100.5010223  -0.1373158  59.0782166 106.3821602   7.0058829  70.8281326
 106.6874409   6.4808828  71.5680027 106.6779232   6.5251058  70.0550795
  63.8487530  16.3467371  58.9478254  64.7424841  16.4537430  59.2734337
  63.9563656  15.9977293  58.0630398 104.3144035   9.9365771  53.2781267
 105.0098896   9.8615175  52.6247501 104.4864655  10.7699609  53.7164164
  95.4707623  97.7784157  46.8568325  95.9869289  96.9820595  46.7318583
  94.5915127  97.4635029  47.0665646  96.1015701   0.6611513  66.8904305
  95.1754475   0.8989649  66.8461227  96.5032578   1.1244680  66.1554337
  65.2148294  85.0072765  78.0872965  65.8236647  84.4988537  78.6230850
  65.6228924  85.8700657  78.0144167  81.8974304  72.3055983  43.6103201
  81.3505459  72.7739859  44.2409992  81.4345837  71.4818525  43.4572220
  79.0590143  82.3221588  28.3781195  79.2663145  82.7463818  29.2107630
  78.8228035  83.0430031  27.7943230  30.0068712  96.6233253  63.0873728
  30.5372190  97.2110462  62.5492716  30.0177765  95.7908916  62.6149750
  78.6657238   4.6458137  74.0643644  78.8880968   4.4213486  74.9679089
  79.3556881   4.2394936  73.5398817  57.9442120  71.8450069  93.2846832
  57.1750975  71.5170670  93.7506676  57.9790401  72.7758026  93.5052204
  56.7334795  80.4907322  61.6369152  57.2426414  79.9793911  62.2658205
  57.3441744  81.1554432  61.3184118  82.2004509  86.4765644  43.0181980
  81.2636662  86.6371441  43.1316757  82.5500870  86.4589691  43.9090824
  82.8711510  43.9298201   7.6599401  82.8541756  42.9855013   7.8155380
  81.9666862  44.1525555   7.4395835  80.4748917  85.5137062  69.2652988
  80.8773899  86.1800575  68.7083340  79.7694302  85.9749603  69.7189522
  41.1136866  41.3194132   6.7398351  40.2744007  41.0853148   7.1361053
  40.8810806  41.6960907   5.8911639 114.0912724  18.7620902  48.0971909
 114.2150116  18.6732543  47.1521902 114.9788380  18.7670112  48.4555531
  33.5796380  16.4583230  49.5151854  33.5445762  16.6490555  48.5778379
  32.7262259  16.7358840  49.8481703  63.2753658  87.6597977  73.2108593
  63.0182028  88.4532833  73.6804199  62.5626230  87.0424461  73.3754873
  44.5031309  86.6393948  82.9267883  43.5651112  86.6730499  82.7391338
  44.6750498  85.7186508  83.1240273  62.9086447  99.0825272  65.1850939
  62.1480846  99.5374203  64.8233604  63.5861921  99.1792202  64.5159054
   3.5362327  76.5334415  94.3982029   4.1308996  75.7898092  94.3001747
   3.3880243  76.8411016  93.5039997  52.2868967  88.0801868  49.0703440
  52.5718403  88.9554310  49.3329811  52.9811192  87.4990082  49.3810225
  88.9302349  97.5460339  44.5124960  88.5662651  97.3467731  45.3750849
  88.1751823  97.5298405  43.9243889  91.5891647  61.9388247  84.6703911
  92.2791195  62.4353027  84.2302799  91.9962215  61.0986519  84.8816776
  87.9758930   7.6847512  53.2154512  87.1574211   8.1419694  53.0223799
  88.1719494   7.1965945  52.4157667 104.7488976 101.3243484  43.0679560
 103.8806152 101.0580349  42.7656317 104.7932243 102.2606850  42.8741789
  88.4966469 102.0264053  64.1116142  88.0758572 101.1838531  63.9404964
  88.4766197 102.4796867  63.2687807  56.9221544 107.1669388  55.9662437
  57.8100872 107.3310947  56.2838268  56.3929701 107.8562069  56.3676262
  13.6547518  14.7959006  63.0416822  12.7814817  15.1160407  63.2678270
  13.9113760  14.2531574  63.7872076 100.6259537  77.0534325  26.1688399
 100.9241199  77.2590303  27.0548725 100.1703072  77.8441048  25.8799529
  44.9889040 104.0444088  36.4319897  45.1321220 104.2957020  37.3444414
  44.5993376 104.8199749  36.0282850  74.4267035  91.6770744  89.2804813
  73.5199976  91.9738960  89.3580437  74.4574594  91.2179947  88.4411144
 105.3898907   9.4577044  39.5082736 105.3571987   8.5474062  39.2141318
 104.9952793   9.9551749  38.7920070  73.3219385  95.4644203  24.7389984
  74.2363358  95.4675007  25.0220251  72.8495836  95.0474548  25.4595876
  69.8283529  87.2565079  46.0774612  70.5895281  86.7563343  45.7830572
  69.8455811  88.0532074  45.5471802 111.7933655 106.3374329  65.1687717
 111.4360714 105.9055710  64.3928432 111.1252117 106.2107944  65.8423901
  94.9178600  10.1619327  63.0514574  95.1677895  10.9682941  63.5026169
  95.7437801   9.8033464  62.7266550  26.9677305   8.3474129  65.6042719
  27.2163987   8.5867608  64.7114611  26.9758248   9.1749990  66.0851765
  77.2988605   8.0182672  60.4248333  76.9320774   8.7913471  59.9958229
  77.0997810   8.1422555  61.3528538 110.8682823   5.6536025  75.7693243
 111.2583160   4.9328941  76.2639856 110.8444214   6.3835049  76.3881207
 100.7703209  86.6175556  86.7286491  99.8411369  86.8005753  86.5894985
 100.7809448  85.8129692  87.2470570  72.7161360  96.6337872  38.8213539
  73.3534908  96.1280251  39.3255520  71.8697929  96.4013290  39.2033291
 106.6991997  94.4766426  39.8540640 106.8351650  94.6443272  38.9215231
 105.8341885  94.0694237  39.9005651  75.9948254  94.7698784  35.3229809
  75.6706953  95.5623531  35.7509375  76.5827608  95.0904083  34.6390057
  93.9994907  89.6060848  76.7726660  93.6756802  89.2810345  77.6127386
  93.4146595  90.3319740  76.5552044 112.3921776  89.1207886  52.9879332
 112.2281647  88.9711857  52.0568323 111.5371418  89.0074158  53.4029961
   7.2027707   7.3583043  70.9530306   7.0615065   6.6448385  71.5753174
   7.4995518   8.0912894  71.4923668  78.8649511  86.4252663  58.2371426
  78.6266422  86.3371754  57.3142767  78.3131075  87.1376038  58.5600710
  93.5805225 107.8164291  40.7617950  92.8457642 107.3033619  40.4254627
  93.2238960 108.6968899  40.8794403  79.5236683  94.8079491  62.1257305
  80.0770378  94.1464901  62.5410461  79.9862957  95.0351238  61.3191319
  63.6620092  87.1711445  45.6162214  62.7380705  87.1032715  45.8569813
  63.7597656  88.0662632  45.2914953  47.7459764 105.9729862  55.2303791
  48.6700821 106.1004257  55.0158596  47.7177954 105.9887123  56.1870384
  92.2587490 100.2198124  33.1264830  91.9327545 101.1042500  33.2930350
  93.2115459 100.3115177  33.1279421  55.7610798  77.0915031  72.9713249
  55.4058313  77.8698349  72.5421047  56.3018179  76.6740179  72.3008442
  93.2383060 105.6659698  47.9119253  94.1046619 105.5654812  48.3063221
  93.0246353 104.7947121  47.5780153   0.6566648   1.1454915  69.4238377
   1.4259183   1.6459119  69.6959782   0.8890764   0.7984699  68.5625648
  68.9919806  19.0167701  51.9601774  68.7124157  18.8999498  51.0521936
  68.5184145  19.7932518  52.2585773  84.1516876  88.1516838  41.8665886
  84.7229004  87.8784657  42.5844240  83.4242821  87.5299263  41.8893862
  63.5204983 103.0909252  39.4497061  63.9899540 102.2573280  39.4806409
  63.7421989 103.5214424  40.2753782  16.5880406  35.6739473   2.7578521
  15.9241390  35.3345513   3.3580819  16.3137329  36.5738535   2.5813380
  43.3437157  21.7995262   0.7938711  44.2606926  21.7585707   1.0653676
  43.1780624  20.9519506   0.3810669  40.3638554   3.6132038  70.4680634
  40.7117701   3.0360991  69.7882557  40.5353308   3.1488019  71.2873077
   4.5588240   3.4156093  68.1712437   4.0734851   2.6402858  67.8891945
   4.5043054   4.0159261  67.4276829  74.2412949  70.6802702  61.9110918
  73.3155441  70.7680130  61.6841221  74.3173027  69.7958755  62.2692823
  66.8673325 106.9722748  69.7023344  65.9466267 107.2072983  69.8176432
  67.1575642 107.4991035  68.9577150  78.2046652  94.9923038  57.6047945
  78.9708662  94.4190025  57.6268816  77.9101133  94.9634647  56.6944981
 115.6854630  74.8421812  30.2374387 115.0472450  75.5399323  30.3859019
 116.5331745  75.2865839  30.2488184  30.3429008   1.9843200  78.3536816
  30.8766055   1.5380493  77.6962376  29.7586846   2.5474221  77.8459024
  82.0600414 104.6000576  83.9558411  81.8749619 105.4783916  84.2882729
  81.7095184 104.0119839  84.6248245 107.2621918  92.3043060  29.0608597
 106.9761276  91.5577221  28.5345340 108.1110382  92.5469112  28.6909509
  62.4439335  84.2805958  64.0782595  62.0256281  84.7328568  64.8108721
  62.6030445  83.3944225  64.4032335 115.5644226   1.9294934  56.4462233
 114.8991871   1.3139707  56.7541742 115.0998878   2.4956168  55.8298254
 101.3379574  95.5567360  88.1517506 101.6026115  95.3979874  87.2456646
 101.5737820  96.4701939  88.3136177  58.5178041  45.1748943   5.6476182
  57.8940582  45.8209085   5.9790277  58.2088900  44.3405771   6.0007721
  65.3108501  88.9399719  41.7737818  64.9052286  89.1805267  42.6067495
  65.9782600  89.6108437  41.6298056  80.1913261  73.3383179  41.4353132
  81.0988235  73.6185980  41.5541935  79.7040224  74.1522551  41.3077688
  96.5874863  27.0996428  38.3199811  96.3286495  28.0199575  38.3674669
  97.1107674  27.0389390  37.5207782  81.2718487  93.1863499  87.2259331
  80.5839443  93.6040020  86.7076874  82.0782661  93.3656979  86.7424488
  24.5862246  37.7516794   2.2516011  25.3601575  38.3001804   2.3796837
  24.7042012  37.3703980   1.3815790  20.8692980 105.7798100  66.4362288
  21.2590718 105.9778118  65.5847025  20.4206181 106.5870476  66.6877937
   3.3984554  86.7889118  36.5926123   3.4923425  86.9372368  37.5335789
   2.7930960  86.0504723  36.5257692 107.2905636  95.6206799  37.2405291
 107.5850677  96.3087654  36.6438389 108.0848503  95.1293755  37.4502277
  76.1650896  93.2739544  31.3569713  76.0901880  92.7363777  32.1454096
  75.8410931  92.7125549  30.6526375  67.1375132 106.3642597  43.5700655
  67.8578424 106.3917351  44.1998291  67.5433731 106.0700321  42.7546310
  95.4733372 101.7448425   6.3985378  94.6105766 101.4708328   6.0874039
  96.0730076 101.4892864   5.6976026   7.4536484   4.8589697  25.8692479
   8.1847483   5.4645890  25.9915137   6.7532146   5.2156949  26.4154816
  88.1707954  10.5680227  43.1536818  88.4891701  10.1217687  42.3689985
  88.2551670  11.4995563  42.9503155  71.7051411  98.5536480  81.5313816
  72.4401283  98.0389214  81.8646622  72.0542240  98.9968204  80.7580853
  80.2295494  94.5327568  45.1360655  81.1758423  94.5445633  44.9924660
  79.8535204  94.6606255  44.2651558  88.0247688  14.8167741  69.6021557
  87.3433113  15.4689360  69.7650337  87.5444794  14.0134215  69.4017267
  94.2992973  82.1057320  50.8641386  93.7964535  82.0215511  51.6742563
  94.5230579  83.0351925  50.8166075  91.1821938  79.6525335  70.9555864
  91.1596966  79.0062284  70.2498865  90.7337761  80.4172134  70.5944347
   3.2150751  23.6063123  57.6265526   3.2227528  22.6764774  57.8536701
   2.3944353  23.7295723  57.1494913  12.2921383  35.3539634  10.8076262
  11.9187832  34.4763494  10.7261944  13.2361305  35.2217007  10.7203579
  94.6963501  17.0261991  46.4308882  95.4858494  17.5557899  46.3192606
  94.0143871  17.6580048  46.6588640   9.0554756   1.2367667  59.2654705
   9.0526605   0.4292667  59.7794437   8.3816552   1.7817378  59.6719217
  72.4063587 103.2874298  68.3374691  71.9206715 103.5213757  67.5465107
  72.7541637 104.1189575  68.6596918   5.2817833   8.7497258  34.9898767
   4.5079714   8.2153940  35.1685858   6.0040295   8.1223440  34.9584985
 105.9248638  16.2747765  55.6399775 106.4944935  15.6346714  56.0666132
 105.0742054  16.1578810  56.0629988  23.3528161  17.0096505  66.0995340
  23.5153747  16.6154361  65.2425623  23.1238937  16.2708712  66.6634750
  99.0677357  92.5967407  33.6172915  99.5427895  91.8425941  33.2682633
  99.3164062  93.3223724  33.0447078  57.1114779 107.0919895  64.2994499
  56.9503260 106.3846970  63.6749554  56.7983007 107.8798294  63.8550806
  78.1483603 103.9420605  44.7215176  78.6226511 104.4338226  44.0511036
  77.7258158 103.2295513  44.2419147  89.8685551  64.6082211  46.2662745
  88.9141178  64.6103811  46.1935329  90.0712109  63.7985802  46.7349434
 100.2887726  98.7102509  74.8909044  99.8753452  97.8919125  75.1659107
 101.2182236  98.5852432  75.0825453  62.1036911 108.4987736  67.2699785
  62.1391058 107.6819324  67.7677155  61.5883589 109.0908813  67.8177595
  58.9020872  87.9703808  65.7398701  59.4743824  88.6901474  66.0056782
  58.0787420  88.3952904  65.4994726  14.2538154   7.3551005  70.9776878
  13.7457931   8.0117267  70.5012560  13.5954881   6.7902458  71.3823795
   9.6297842   1.4631259  78.2880116   9.9904740   1.9770709  79.0105009
   9.6162546   2.0685874  77.5467491  54.3736506  96.1634541  41.7858839
  54.1823530  95.8163643  40.9145880  54.4604111  97.1075344  41.6538763
  37.4094057  90.2217960  29.4794011  36.6460013  90.7793903  29.3292809
  37.6509523  90.3867245  30.3908229  95.4388237  20.4553080  77.8740072
  95.4047585  19.7951865  78.5663319  94.5287800  20.7287335  77.7587795
  32.4307299  96.5824795  70.2322531  32.6015496  97.0500565  71.0498238
  32.1876645  95.6986904  70.5080700  40.7834387  96.7801857  41.3358545
  41.4902782  97.1958065  41.8296814  41.0591412  95.8681011  41.2446260
  11.0591042   0.6749252  39.6042395  10.2728999   0.1547679  39.4382524
  10.8094728   1.2664363  40.3141928  92.8693676  76.7826271  59.9271679
  92.4382305  77.0127058  59.1041183  92.2802258  77.1113348  60.6062126
  88.6737061  12.4983251  62.8335285  88.2289600  13.3278608  62.6594400
  88.3233929  12.2111011  63.6767483  37.3380971 107.0169258  57.5372696
  38.0741143 106.9834709  56.9262123  37.0139933 106.1169052  57.5713396
  95.1253510  95.5153465  44.5232105  94.4189930  95.2633953  45.1180363
  95.9058285  95.5437660  45.0766420  53.2451582 103.4193134  88.2710743
  52.6136827 103.6602306  88.9488792  52.8263187 103.6787701  87.4504089
  75.1073265 100.9139252  61.0558605  75.2922630 100.8189487  61.9902086
  75.8922434 100.5804062  60.6212282  35.2726936   3.6754802  69.1984129
  34.7064948   4.3882239  68.9023590  35.0981951   2.9608220  68.5860062
 107.5936604  23.3099174  78.0555058 108.4768677  23.4949350  77.7362108
 107.1113300  23.0304027  77.2773886  82.7634144  92.7979469  41.1130333
  83.2623100  93.2025433  41.8227053  83.2932472  92.9504585  40.3305674
   4.0069804 108.3968163  34.5592332   4.1405454 108.5440445  35.4955626
   4.7539255 108.8246250  34.1405630  70.8383656  74.6531153  56.2506866
  70.4923201  73.8883257  56.7106676  71.7738914  74.6513891  56.4532042
  73.7302542  97.6796055  75.8293247  73.3598900  98.5622120  75.8215761
  73.4038877  97.2758293  75.0251579  90.3539085  73.6418247  51.8807840
  91.0562038  73.5569477  52.5256205  90.1308918  72.7401638  51.6494608
  85.6370258  99.3342590  79.7458601  85.1762009  99.9547577  80.3105354
  85.0066471  99.1234207  79.0570927  21.4979124  12.3634851  61.7366791
  21.4391756  11.9345224  62.5903606  22.4374485  12.4610519  61.5817976
  93.7085724  92.3297882  54.5625973  93.3312416  92.3085880  55.4420328
  93.1324673  91.7707348  54.0412521  82.3449612  81.5638161  78.9255571
  82.6892281  81.8736267  79.7632504  82.1232414  80.6459618  79.0824461
 108.3743858   7.0139819  26.0813046 107.9558372   7.2398746  25.2506280
 108.3087254   6.0603327  26.1310482  94.1977978   4.7839135  84.5244598
  93.3040714   5.0101978  84.2669868  94.7457409   5.1378703  83.8239574
  54.2887831  99.7216129  93.3009243  54.7452259  99.1068554  92.7264977
  54.9833584 100.1206017  93.8249493  73.8534546  84.5157146  67.2482443
  73.6282969  85.0301743  68.0234003  74.0518045  85.1685047  66.5768576
  22.9733634  16.4941537  77.1292353  23.4488416  16.3002789  77.9370499
  22.7296233  15.6357479  76.7828798 113.9958096  96.9987488  42.0528793
 113.4297466  97.3058891  41.3447380 113.6365795  96.1447239  42.2933722
  53.3171844 106.7799950  81.0896397  54.2609310 106.8443489  81.2360382
  53.2353306 106.3271809  80.2503014  68.0468178 100.0804615  72.7541780
  67.8684664 100.4227257  73.6301231  68.0179405 100.8501339  72.1858358
  71.9880152 104.0254593  57.7782297  71.8841076 104.7233582  57.1314144
  72.6034927 104.3821621  58.4186840  29.2594647  58.9173603   7.7816200
  28.8634515  59.6747971   7.3506975  30.1875019  59.1406298   7.8532296
 113.2269478  12.1095502  17.2556734 113.6515999  12.4847078  16.4842105
 113.0055618  12.8659856  17.7988398 103.2653332  12.9858828   6.3423246
 102.8339386  12.3044586   5.8267772 102.5874424  13.2980120   6.9417101
  78.6093569  86.5384769  36.3177967  77.9736090  86.6880226  35.6180143
  79.3325949  87.1318626  36.1151600  82.0582581  25.6853914  85.5117989
  82.2729588  26.1131907  84.6828651  81.1291027  25.8731818  85.6446266
  60.2456856  96.8253803  81.7217064  61.0665846  96.3331127  81.7267990
  59.5657349  96.1581898  81.8152523  38.0021858   0.6310012  70.5266285
  37.5152683   0.8656876  69.7366476  38.8030124   0.2199611  70.2011204
  64.7200727 100.1402760  69.2517424  63.8609505 100.4830647  69.4980001
  65.3098488 100.8895493  69.3353462 103.0266380  26.4720845  68.6841726
 102.4087715  27.2018623  68.7277269 103.1310844  26.3022399  67.7479696
  80.4606056   4.0002820  49.2933083  80.5861473   3.0917200  49.5671415
  79.9339533   3.9396358  48.4963179 102.4928570   5.9203261  58.6752129
 102.7992153   5.0429606  58.9045763 102.1189499   6.2632602  59.4868946
  88.4089851 101.4360237  42.5492907  87.8932667 102.2120190  42.3299646
  88.1444836 100.7819557  41.9023991  94.9568462  12.0504177  43.5209465
  94.0768242  11.6750467  43.4909248  94.9989700  12.4946856  44.3677521
  85.8577251 107.2821617  24.5161176  85.3153896 106.6672516  25.0100780
  85.4526711 108.1357098  24.6698165  66.4268684 102.0198345  42.8341055
  65.4763365 102.1264648  42.7972841  66.6113377 101.8319798  43.7543869
  99.6478176  14.5832920  49.6472216 100.4742622  14.3781042  49.2100573
  99.6662331  14.0631914  50.4505777  88.6482811   0.5315264  55.9240294
  88.5022640   0.1516830  55.0576448  88.1159401  -0.0033546  56.5128756
  97.6674175   7.8929043  56.3514566  97.9346275   8.7975687  56.5139771
  96.9287491   7.9662317  55.7471275  71.7783403  88.1624985  72.6652908
  71.2169170  87.4022770  72.8172874  71.4849854  88.5125256  71.8240690
  48.8934660  94.2218208  56.5519667  49.0117073  95.1128864  56.2229443
  47.9576540  94.0500259  56.4472008 100.5758667  48.2713652  62.9575872
 101.3825321  48.5725784  63.3756781 100.8145142  47.4398804  62.5478172
  82.2154903 108.4561348  34.6009660  81.3340282 108.2077122  34.3224883
  82.4738026 109.1467190  33.9905548 103.0709267  70.0418901  74.4206524
 103.8957787  69.6723986  74.7358274 102.4677277  69.2989302  74.4009018
  97.0145226  28.3550310  24.8177624  96.4308453  29.1132832  24.7930932
  96.4552307  27.6145172  24.5831180  98.2635403  99.2273235  20.9628010
  98.7584019  99.2101002  21.7819762  97.9356956 100.1244259  20.8998442
  95.3364372  94.2655468  48.8845253  95.8280468  94.9418831  49.3504858
  94.7119427  93.9354610  49.5304966 111.7760468   9.0811986  58.0851698
 111.1077595   9.7233844  58.3243608 112.0504856   9.3377149  57.2047663
  46.5041351  64.3714285  71.9556141  47.3737955  64.6741772  72.2168970
  46.3711691  63.5654736  72.4545956   3.0873302  44.4339609   1.7408299
   2.8158405  44.5741940   2.6479459   3.4619576  43.5531282   1.7363888
  98.8859558  85.5298138  62.0582056  99.1203403  86.3779449  61.6814041
  98.3135033  85.7448673  62.7946043  76.0603142  95.3068542  50.8809042
  77.0086908  95.1801777  50.9085464  75.7315350  94.8201752  51.6367340
  91.2577915  60.6153202  68.4455204  91.4090538  61.4103127  68.9567375
  91.0916042  60.9299707  67.5569201  55.0892019  72.1659851  82.1011734
  54.9307871  71.2979126  82.4720955  55.9865236  72.1250296  81.7704678
  97.5871849  99.4797325  38.6943150  97.0422363 100.0465870  39.2401600
  97.5952053  99.9075222  37.8380656  97.7483368  90.4880810  30.3030014
  97.7783489  89.5579433  30.0789928  97.1732235  90.8749962  29.6428609
 103.3782578  98.2027340  24.9557757 104.3215656  98.0558300  24.8863530
 103.0791569  98.2711792  24.0490866 100.6677151  14.9623668  86.6815948
 100.9287453  14.1610217  86.2277889 101.0724545  15.6668782  86.1755562
  52.1510267  90.6452942  54.8925066  51.6800690  90.9392929  54.1127682
  51.8795776  91.2536526  55.5798626  66.7668724  77.6900530  50.5980062
  66.1845160  77.1595240  51.1417246  67.4752569  77.0943832  50.3538609
  38.5234833  54.8676157   0.0928527  38.4326744  55.4399824   0.8546805
  39.4195104  54.5355034   0.1482376 104.7383595   4.2376748  71.1611938
 104.1126919   3.6992964  71.6458845 105.5605793   4.1404024  71.6415215
  53.1805849 102.0705605  91.8942165  53.3819818 101.1556244  91.6978359
  53.6756992 102.5695610  91.2445259  90.3565598 106.6440010  59.9912977
  90.9657001 106.2260818  59.3825960  90.5504990 107.5786591  59.9202967
 107.5304508  85.2464771  29.9139309 108.3489895  84.8698521  30.2369881
 107.3186588  85.9352875  30.5439425  77.1028709  93.6344814  83.0584812
  77.1645689  92.7416420  82.7189732  76.6627836  94.1248703  82.3641586
  79.5999861  99.6293354  68.3059216  79.1331816  98.8824558  67.9310894
  79.0344715 100.3802681  68.1255579  81.6392422 100.1503563  13.8104713
  81.6125202  99.7577858  12.9378879  82.0054531  99.4655609  14.3700862
  56.7016172  84.6821880  57.9531288  57.1107721  83.8257408  58.0768824
  55.7623672  84.5111752  58.0224180  76.4154673 103.6966324   8.8831252
  76.2073994 103.3066463   9.7321546  77.2942638 104.0591621   8.9949816
  97.7198696  96.6969967  27.7885485  97.1250153  97.1020126  27.1573973
  97.1747494  96.5277290  28.5569382  15.5142426   2.6221195  19.4437635
  16.3784254   2.2598194  19.2484188  15.3505337   2.3738585  20.3535962
  58.6291313 102.1025658  73.4066153  58.2224083 102.9270840  73.6730385
  57.8987551 101.4884186  73.3317518  70.7302570 103.9101124  79.3420553
  70.6938648 103.2103729  79.9941921  71.0342121 104.6759605  79.8292065
  81.0573006  88.4948635  26.2471962  80.4212379  89.1836643  26.4400959
  81.4030457  88.7229633  25.3842592  47.8296995  96.8118858  74.7169971
  47.1888828  96.8153477  75.4280329  47.7304363  97.6681995  74.3009329
  21.9530368  43.6854696  12.6797521  22.3270893  44.5494843  12.5071347
  22.2086334  43.4895563  13.5811520  97.4850655  99.7716331  51.1378288
  97.6679993  98.8432598  51.2823677  96.9767857  99.7921848  50.3269911
 115.3981590  30.7016659  71.1189938 114.6667194  30.1401114  71.3756657
 115.0147820  31.5756416  71.0453844   2.7926543  47.3904610  24.9350762
   3.5398081  47.9506207  25.1453495   2.0472124  47.9897213  24.8971248
 110.9603691  26.0363579  55.9274721 111.1203098  26.8147612  56.4610815
 110.0072289  25.9882331  55.8537197  92.3922729  91.4184475  17.4277520
  91.9877434  90.5780792  17.2124159  92.1799850  91.5569210  18.3507860
  17.2223604  28.7938190  81.1029625  16.8407571  27.9725504  80.7929230
  17.2129619  29.3667912  80.3362560 115.1475811   9.8411959  57.1854401
 115.9913445   9.4837087  56.9088554 115.0696373  10.6674862  56.7085743
  86.9408131  11.9837821  78.7348127  86.6517258  11.2205112  78.2347345
  87.8964043  11.9293833  78.7238741  44.2997074  15.1672161  66.6014433
  44.1034174  14.3312120  67.0242929  45.0796127  14.9919963  66.0748720
   6.4809197   3.4182897  86.8087482   7.0258158   4.0250343  86.3075733
   5.6328928   3.8571775  86.8755245 105.0397968  87.9426098   3.3147460
 104.5372772  88.2910919   2.5783533 104.6391869  88.3404350   4.0877125
   6.4532626  12.9602158  55.9049177   7.1447343  12.3515213  56.1648941
   6.2236160  13.4207106  56.7120314   4.4706342  26.5016818  50.0841522
   4.1008323  27.1737242  49.5115805   5.0438243  25.9897709  49.5135117
  30.5600405  13.0430329  48.7965488  30.2420878  12.5734258  49.5676565
  30.0356984  12.6988971  48.0734491 113.4025097  17.0287323  71.8997002
 114.2335606  16.6466784  71.6175270 113.0016041  16.3529825  72.4463892
  17.1252549  25.2140784  52.6096296  16.8500745  26.0263777  52.1845675
  16.4103031  25.0040245  53.2104254  22.5710750  17.4020636  74.1324043
  23.2760382  17.0548904  73.5858440  22.8803563  17.2778225  75.0296974
  12.1892107   3.7744543  74.2701530  11.9580281   3.7282318  75.1978683
  11.3649035   3.6169910  73.8097715 105.8492947  85.1829720  47.4931574
 105.3531361  84.8682976  46.7374897 105.9463215  84.4129944  48.0534697
  22.5904202   4.0841612  27.3597527  22.4460745   4.3783233  26.4603829
  22.4431515   4.8648638  27.8936505  85.0219727  83.5572433  82.9266644
  85.7381535  83.7787151  82.3314571  84.8641968  84.3614483  83.4212303
  67.6569176  89.1478729  64.6150398  67.2344446  88.3387375  64.9032450
  67.3498631  89.8115349  65.2326965   0.5566268  19.4161439  36.5075040
   1.3988768  19.8467112  36.6539884   0.3385534  19.0227973  37.3524618
  14.4498909  29.0502119  67.2819138  14.6586013  29.7500682  66.6631460
  15.2681196  28.5626721  67.3769855  48.9372873   8.5998309  71.1886978
  49.8701143   8.6191213  71.4024544  48.6309719   7.7591467  71.5287733
  77.2126722 104.1082573  66.7118979  76.3775826 104.5221329  66.9300032
  77.8549242 104.5630646  67.2567797 110.1812649 105.4909801  51.8470049
 109.8812580 105.1496792  52.6894665 109.4754791 106.0693359  51.5578461
  62.2751570   4.1329455  86.6907406  62.3628902   3.1797853  86.6862297
  63.0500031   4.4425696  87.1597576  74.2320108  97.2088718  50.0104380
  74.9546146  96.7592335  50.4485035  73.7194633  96.5059853  49.6110964
  17.5352430  18.2925546  46.9101667  18.2686329  18.5846841  46.3688421
  17.7942789  18.5146546  47.8044844   3.4668660  37.5421739  45.6489849
   3.0937409  36.9283628  45.0163364   3.3350575  38.4037042  45.2532244
 100.7367802 105.9746838  49.4227791 100.5588531 105.6150055  50.2918053
 100.6251049 105.2323723  48.8288689  38.6505795  10.5704117  35.2353454
  38.7429142   9.8111713  35.8108997  38.7839961  11.3242137  35.8099890
  57.9029894  20.5170536  59.8825026  57.7736330  20.3040743  60.8066940
  57.8740931  21.4732909  59.8507547  58.1968451 100.3129578  90.9221840
  58.3664417 100.1336575  91.8470192  57.2676086 100.1146889  90.8062649
  11.4433193   8.7180477  57.6733351  10.9460855   8.7387621  58.4909916
  12.3577011   8.7897825  57.9471827  51.0607958 107.3523998  61.8804264
  50.6917858 107.4001312  62.7623463  51.7090893 108.0561256  61.8536329
  98.6923885   0.0985751  83.7641621  99.2088795   0.9043238  83.7794590
  97.9973125   0.2474223  84.4052124 106.1424828  91.8341923  69.7808981
 106.4540100  91.7269135  70.6796026 105.8905983  90.9520245  69.5078135
  68.7091541 103.9425182  55.4605055  68.2076597 103.4892273  56.1381912
  68.5468054 104.8716545  55.6235600  24.8984146  12.2577941  52.0017958
  24.2414331  12.6192999  52.5967073  24.5812464  11.3772142  51.8012571
  93.0795956 102.3580074  78.0665827  93.4685040 103.2239151  77.9433727
  92.6479721 102.1685600  77.2334957  85.9757710 107.9934311  55.4495811
  86.8078899 108.4661007  55.4297733  85.4976177 108.3808708  56.1827183
   8.0731207   3.9687330  82.4876022   8.8779503   3.6495316  82.8957653
   7.9434687   3.3947280  81.7326641   1.5549260  32.6429296  66.3398504
   0.8952315  32.0555258  65.9710789   1.6082722  33.3657980  65.7146692
  27.1564341  44.8899412  72.5487995  26.4403272  45.4386950  72.2289753
  27.9505587  45.3546190  72.2848368 114.4847775   6.7614114  43.8993549
 114.6275806   7.3314446  43.1437731 114.0325928   7.3156327  44.5354366
  97.6447868 103.6376858  39.5148706  98.0051899 104.4156551  39.9404359
  97.3356152 103.0910587  40.2372599  80.2175045 105.2357006  72.6498890
  80.1004410 105.5441666  73.5484314  79.6293736 105.7835197  72.1300554
  54.1282082  41.0529757   3.5759893  55.0479031  40.8237648   3.7095883
  53.8500977  40.5081606   2.8397405 105.7496548  74.1757441  68.4322262
 104.7974300  74.1958475  68.5276031 105.9311104  74.7804165  67.7127314
  28.8750362  23.7563396  80.4977417  29.5776129  24.3689919  80.2803040
  29.3279266  22.9775810  80.8212471  85.6138325  14.0335870  18.3162916
  86.3850021  14.0804708  17.7512074  85.0506115  14.7454119  18.0124378
  31.2052464  10.4318404  71.8374920  31.0189843  10.0280702  70.9898424
  30.3697371  10.8102369  72.1113062 114.9091053  47.0224667  72.6410437
 115.6882668  47.3141623  72.1677065 114.1916466  47.1437836  72.0191336
  18.8137138  20.5971885  49.9249840  19.0470624  21.4047670  50.3828001
  19.0614772  20.7578826  49.0144777 103.1791687  12.2105849  45.4825830
 103.3080006  12.5312281  44.5899343 102.7121449  11.3820815  45.3744125
 103.6494541   9.6598625  47.2069931 103.6653519   9.9205858  48.1278610
 102.7431583   9.8015988  46.9335461  96.5683174  79.9862242  46.9755840
  95.9580326  79.2556190  46.8756104  96.3932323  80.3262043  47.8530788
  93.2024860  12.5873792  47.7657843  92.6627350  12.8051162  48.5257149
  94.0364647  13.0274034  47.9303694 115.0398731  12.4355209  48.8731813
 115.2301025  13.3664703  48.9888573 114.2550087  12.2842002  49.3997908
 103.0524921 101.6248035  56.8773842 102.6779079 102.0948124  56.1323929
 103.4902573 100.8680725  56.4875889 111.1553001 102.7088451  75.8659935
 110.4219723 102.2029972  76.2161207 111.9218731 102.1562481  76.0184002
  70.5203867  88.6686420  84.9660873  69.8211718  88.4429169  85.5795860
  71.1916924  88.0021572  85.1122665  82.8685093  96.7983437  47.0207262
  83.5756207  96.9497395  46.3935852  82.2657776  97.5291061  46.8831158
  82.8037453 104.5334244  22.9685998  82.9761505 103.8234901  22.3501301
  82.6559544 104.0918922  23.8049221  41.4142036 109.0551090  32.9900408
  41.8890762 108.2296562  32.8932786  41.4896631 109.2671967  33.9203930
  36.8670321  97.3722839  45.2015400  37.5563955  96.8417931  44.8020601
  36.9174242  97.1669388  46.1350918  17.3605072  93.4243584  51.0994625
  16.6184783  93.8710594  51.5069962  16.9652998  92.8637505  50.4318047
  11.2006009   3.0481192  93.6608887  11.0478306   2.5904417  92.8341866
  10.3675628   2.9835364  94.1279030  77.6409483 109.0013981  47.5793982
  77.6713753 109.9310780  47.3535681  77.1054745 108.6053276  46.8919230
  80.5363560  18.0148578  50.4589605  80.5437088  18.6018336  51.2150240
  80.7074165  18.5863507  49.7103834  46.0986567  95.1171970  60.2201414
  47.0177031  95.2988434  60.0236940  46.0681248  94.1724205  60.3707552
  86.3891506 102.1913147  67.5055504  85.8768845 102.2027397  68.3140612
  87.1166801 101.5976715  67.6913309  82.8466988  96.4422607  43.6602259
  82.5559235  96.8292332  42.8344345  82.9631901  97.1894932  44.2469978
  74.6216917  81.5672779  69.8585176  74.6387911  82.3036766  70.4697895
  74.2580462  80.8423615  70.3669405  99.7325706  32.8096604  60.5271435
 100.6447983  32.8269529  60.8165836  99.4910622  31.8837476  60.5515289
  85.6868744 101.7438316  58.9672327  84.7682476 101.7607117  58.6987925
  85.8868027 100.8143997  59.0786982 103.7178516 106.2654400  16.0373843
 103.2378864 106.5928078  15.2766657 103.7343502 105.3156567  15.9196198
  77.6827049  82.6410484  54.2742109  78.0684090  82.7756405  55.1398611
  76.7753983  82.3933220  54.4521475   2.6813287  31.2431860  74.7615957
   2.7434957  31.5008950  75.6813526   3.3772647  30.5961323  74.6465969
  83.2803440  41.6559935   2.8234965  83.4757423  40.8198261   3.2464352
  83.6986542  42.3107195   3.3825895 108.6161327  42.6446056  81.9482899
 108.0200195  42.6054764  81.2003899 108.6101151  41.7568111  82.3060703
  62.6086235  99.5604420  59.1102886  61.7072868  99.5568562  58.7880802
  62.5324440  99.3349648  60.0374317   2.8309315  67.6548481  27.0044041
   2.0996518  67.1374512  26.6671133   3.5778499  67.0566320  26.9823647
  87.6490116  74.4460154  49.2144489  87.1554565  73.7804365  48.7352371
  88.5503197  74.1237259  49.2121935 105.9930897  25.5732155  58.8791847
 105.5280495  26.2556386  58.3951712 105.5287170  24.7653961  58.6600542
  19.0044463   6.1146128  71.6512394  18.5071290   5.4203391  72.0835447
  18.4068596   6.8621588  71.6340065   4.3498617   7.7512813  78.4695196
   4.4579521   8.6651433  78.7329674   5.2085352   7.3556864  78.6192417
  43.4738255  92.8441525  51.2543821  42.7446079  92.7248669  50.6459093
  43.9265823  92.0007992  51.2538910  32.3433661  28.8595533  52.9660463
  32.7901745  28.5451007  52.1800995  32.6934791  29.7395682  53.1046963
  99.3155956   4.2890346  67.2032928  99.1061783   5.2125680  67.3427963
  98.4951115   3.9005876  66.8997574 107.1585655   7.3919058  92.5313377
 107.0624352   8.2916117  92.8436184 108.0915737   7.3045290  92.3361397
  89.5439911  90.8729553  56.0501528  90.4695034  90.6685448  55.9164476
  89.0937901  90.0374317  55.9258795  14.0988207  24.2823792  66.9985437
  13.4698093  24.7110915  67.5788736  14.5003366  24.9999714  66.5085697
   1.3127880 103.7646484  61.3804102   0.5424674 103.2490730  61.1416149
   1.4738137 103.5438442  62.2977686  62.5054836  24.6005654   2.9060441
  61.5830660  24.8245883   3.0293101  62.7376795  24.1021442   3.6895576
  96.4064789  99.1570950  81.8597317  96.6825771  99.2927265  80.9533024
  95.8174706  99.8890781  82.0427799 109.0563774  25.0968361  18.9793015
 109.8056030  25.5513763  18.5942125 108.3624649  25.1823688  18.3255398
 101.6444588  94.7749996  26.8248630 100.7471752  94.6196842  26.5299153
 101.6381741  94.5301628  27.7501988  76.3221264  93.7917709  42.4002790
  75.6598186  93.2635117  41.9547129  76.0436201  93.8025665  43.3160019
  85.3530502  91.5645123  33.3416963  85.6086636  90.9869671  32.6224399
  85.7243061  91.1535263  34.1223955  80.8874989 102.5273514  45.4205275
  79.9388933 102.4679279  45.5338526  81.0689068 103.4671307  45.4087591
  81.6404343  11.9825256  69.9489689  80.7244587  11.7829251  70.1422787
  82.0252991  12.1896994  70.8005476 109.1449928  11.4206541  31.6970515
 108.9542675  12.1535170  32.2825170 110.0968361  11.3263750  31.7335558
  15.4116035  41.4343834  38.3288908  15.9053123  42.2273493  38.5379171
  15.3407216  40.9696102  39.1626740 110.4065609  95.5082417  37.3592615
 110.2307129  96.2630367  37.9210401 111.2375164  95.7160854  36.9320107
  32.9255104   1.7922233  61.5781879  33.4029675   1.1704554  62.1274376
  33.2976961   2.6450512  61.8026733  83.6679649  84.3375015  57.8042555
  84.4926262  84.7570133  58.0495739  82.9926014  84.9567699  58.0810690
 100.8318710  90.3830338  48.4339333 101.6013622  90.5765629  47.8985262
 100.6123829  91.2175083  48.8483095  20.4409170  97.1864891  49.1199255
  20.0140810  96.3880634  49.4306707  20.5356860  97.0557690  48.1764412
 113.8854265  -0.2151588  91.9468307 114.8199796  -0.0883106  92.1103859
 113.6817979   0.3933998  91.2366104  34.9984884   4.5778504  44.1669798
  34.8430061   5.4883295  43.9158154  34.1707468   4.2911360  44.5528221
  32.1446824  60.1904011  20.0612688  31.5388680  59.6301746  20.5464172
  31.7504764  60.2740335  19.1930318  69.6331596  76.8883276  41.9220734
  69.8322105  76.2150908  41.2714100  69.6893787  77.7126169  41.4387321
  22.8653169  17.9685903  55.2011108  23.5361385  17.6446593  55.8021927
  23.3575034  18.4032047  54.5046234   2.5816247  47.5766134  32.2408581
   2.8390706  46.8527317  32.8117800   2.0217583  47.1717310  31.5784001
  39.9179697  12.8902614  57.4133348  39.9848557  12.5180614  56.5340042
  39.0611887  13.3167970  57.4283457  44.0128517   7.2223848  45.5846024
  43.7915993   6.3406944  45.8844423  43.1893349   7.5740373  45.2463770
  28.3633733   4.2932445  58.4415674  29.2787361   4.0354925  58.3324528
  28.2912755   5.1249248  57.9732275  15.8690345  44.8577070  35.1054025
  14.9910188  45.1804161  34.9024749  15.9790266  45.0340891  36.0397601
   3.2857034  98.7887859  65.0108767   2.7435261  98.6253548  65.7826042
   2.7427673  98.5102940  64.2733860   9.5041442  21.9969606  90.4223347
   9.8406321  21.8752789  91.3101387   9.2413080  22.9167914  90.3897858
 113.4509468  98.3809376  34.2197466 112.7243710  98.9215279  33.9097667
 113.3901787  97.5782204  33.7018847 105.1964188   5.7096106  41.0469913
 104.3498802   5.8900779  41.4556837 105.8383465   6.0836613  41.6505194
  70.9089947  96.6879177  26.3606071  71.0156345  95.7779312  26.0835004
  70.8300447  96.6404724  27.3133659  88.3810711  98.2060432  23.2923079
  88.2948017  97.3499107  22.8729939  87.8295803  98.1473064  24.0724587
  24.9538898  32.0882797  84.8798561  25.2420521  31.2370133  84.5503998
  25.7428813  32.4795413  85.2548790 108.1351471   1.3715979  88.6819839
 108.3570862   2.2805783  88.8838005 107.9084682   1.3811919  87.7520561
  26.6125226   0.6839284  72.8186369  25.9473228   1.3577077  72.6780653
  27.4453211   1.1436316  72.7120829  88.8535976  96.4070606  40.8930731
  88.4599781  97.2651386  40.7349396  89.7320461  96.6028976  41.2189722
  13.0232596  17.8269994  52.7456188  13.6635041  18.4688973  53.0526781
  12.2636211  17.9558277  53.3135843  26.2570453   3.1504485  41.7163706
  27.0430064   3.0055398  41.1895895  26.2434244   2.4181928  42.3326874
 111.7432404  89.2529488  75.0635576 112.6198673  89.6370506  75.0785494
 111.8914032  88.3136463  75.1730585  13.0706441  83.8073444  64.7352266
  12.9169571  83.5465240  63.8271618  13.9876616  84.0811443  64.7538567
 101.1576462 106.8231201  38.7303591 102.0309639 107.0055103  38.3835459
 100.8433342 107.6705170  39.0455890 114.1823673   3.1830966  18.5788155
 113.4945488   2.5197715  18.5227478 113.9743614   3.8034585  17.8801620
   5.0146091  27.9439712  31.9160962   4.8618168  28.4936523  32.6846910
   4.9826127  27.0482373  32.2520590  12.0630693  21.9606614  43.9964485
  12.2363985  21.0536861  44.2486048  12.1529639  22.4568176  44.8100710
  97.2227097   5.4909497  39.9893761  96.4984035   4.8693049  40.0613642
  97.3010254   5.8698797  40.8648825 115.5228233  34.8504591  53.0582952
 115.0946140  35.0345945  53.8943386 116.4559746  34.8183870  53.2690811
  12.3805308  14.9203146  43.6304092  12.0036113  15.6003153  43.0720520
  13.2720172  14.8067379  43.3008862 100.3945255  32.1326661  34.6877789
  99.6686459  32.4307704  34.1396332 100.2330494  32.5374532  35.5400133
  18.6184275  97.5861073  70.1225805  19.5152771  97.7507496  69.8314047
  18.6944723  97.4495125  71.0669279  28.3066845   4.0021861  63.2596636
  29.1708493   3.5907432  63.2467556  28.2653427   4.4982174  62.4420595
   8.3570892   3.8858736  76.9504499   7.7498811   4.3998504  76.4181376
   7.8905767   3.7412748  77.7736712  32.2013021   2.4806370  66.5415907
  33.1027102   2.1602693  66.5090466  31.6925931   1.8114214  66.0837698
   9.1698217 108.3673477  59.3178511   9.0515816 107.4975300  58.9361954
   9.6899027 108.2141018  60.1066875  64.1005373 102.8008938  59.1253996
  64.6770430 103.5228252  59.3757534  63.5520649 103.1626892  58.4293365
 101.4526176 108.3909416  89.4950390 100.7958412 107.7207565  89.3060017
 101.5843582 108.8395309  88.6597919  26.5474319   2.4027312  58.8314676
  27.0643139   1.5975665  58.8036489  27.1850348   3.1017926  58.6865330
  32.1037650  10.0005209  47.8971052  31.5398073   9.7623158  48.6329317
  32.0896554   9.2324346  47.3260736   1.4370745   1.9677667  34.8558974
   1.8678346   1.3480636  35.4446626   0.6533403   1.5075751  34.5555377
  77.4398470 107.4708652  58.4229708  77.9169369 106.6427422  58.4761763
  76.7586374 107.3982143  59.0914822   3.7815985  26.6015911  38.4201884
   2.8415263  26.5776539  38.2415199   4.1463041  25.9019947  37.8781676
   3.3457521  20.7114291  35.5800080   2.9280046  20.4191208  34.7698998
   3.6871347  21.5814066  35.3730583  23.9569902   5.2707535  33.4432340
  23.3225775   5.0936627  34.1377759  23.9095569   4.5026833  32.8739786
   1.0964664  33.9344406  43.2802296   1.4144030  34.8051333  43.5190630
   1.0125367  33.4729075  44.1145992  31.8494940  44.1390324  65.7344007
  32.0439506  44.8681641  65.1455164  31.5933633  44.5569468  66.5565777
  59.7577763  92.8388786  37.9274845  60.5990505  93.2435131  38.1390381
  59.2097092  93.0115318  38.6930180  61.4974165   8.7000960   0.1102737
  61.3074636   8.2279551   0.9209735  62.0852518   8.1194341  -0.3729580
 116.0750961  98.7637901  34.1283464 116.3774776  99.6715641  34.1012931
 115.1368809  98.8290691  34.3064857  84.1191006 105.0234604  66.8659973
  83.6745262 104.1792488  66.9427395  84.4195843 105.2174950  67.7538538
  79.1678619  82.6006794  51.9642687  78.7495422  82.5792313  52.8249550
  79.6862173  81.7967129  51.9298077  71.2301826  71.1225796  60.2124548
  70.4982424  70.5067205  60.1776314  70.8184576  71.9860601  60.1789999
  28.4236646  94.8943806  31.1228991  28.8824487  94.3136787  30.5158305
  28.3392239  94.3819141  31.9269419  20.1955914  38.5633731  20.6473064
  20.4821682  39.0986037  21.3873291  20.7821846  37.8070402  20.6573701
   1.8164942  19.9095833  41.4375305   1.8020475  20.8637142  41.5127516
   2.7254099  19.7000051  41.2226295  74.0911436  10.8272362  49.3784761
  73.1673527  10.5884182  49.4546986  74.0795851  11.7389035  49.0869951
 112.2751904 102.4450588  51.5603113 111.8585014 102.7426243  52.3690557
 111.9219398 103.0215359  50.8827257  94.1857910  87.0761108  36.2269473
  93.2471180  87.2045994  36.0905004  94.5306778  87.9582500  36.3652349
  72.5720835  20.4164958  16.7176020  72.7448368  21.0599995  17.4048376
  73.3987713  20.3484511  16.2399125  93.1337070  16.7333794  73.2136917
  93.7009048  15.9830892  73.0359554  92.4696732  16.3947034  73.8141775
  27.1875668   8.6874264  27.2936535  27.1248460   8.0334598  27.9898047
  27.1642399   8.1779623  26.4836335  67.5881720  86.4704323  52.2862387
  66.6747236  86.3241005  52.5320625  67.5654507  86.5824604  51.3358927
  29.7907209   1.8146943  43.5585499  28.8966894   1.4859211  43.4644842
  29.7316742   2.7402958  43.3218908  56.9019508  13.2049775  75.5687904
  57.4496794  13.9214075  75.8896637  56.1894083  13.1447423  76.2050962
  70.6566524  67.6502557  -0.2571948  69.7063374  67.6056917  -0.3627761
  70.7845663  67.8972895   0.6586854   9.8137802  89.4799805  79.5608664
  10.2396214  88.6429501  79.7459698   9.2187178  89.2907143  78.8353968
  93.9886665 104.0190125  74.5084524  93.2350922 103.6795998  74.0255928
  93.6222935 104.3304825  75.3360891 102.8940582  80.8701992  27.9513669
 103.6442566  80.2951336  28.1021476 102.3956585  80.8327198  28.7677169
 102.1618652  69.4774580  10.3607273 101.9020176  68.7487173   9.7971272
 102.0569038  70.2543020   9.8114282  97.2384262 108.1376171  13.8309062
  96.4074421 108.5982418  13.7146139  97.6868725 108.6236286  14.5229506
   8.5056913 108.6114502  55.8596182   8.5216641 109.4104576  56.3864470
   9.4157463 108.3150387  55.8464003  26.7883396  61.6908836  40.4465055
  26.1995816  62.3533392  40.8080959  26.9271898  61.9633007  39.5394564
  18.1223607   9.1760057  40.9035063  18.1815720   9.5528561  40.0256062
  18.9709246   8.7550324  41.0411739  24.8398113  24.5333838  30.2914119
  25.7821107  24.3903756  30.2027917  24.4901013  24.3756652  29.4144511
 105.8047009  93.2935143  21.2284184 105.4947281  94.0338039  21.7500734
 106.7020798  93.1483364  21.5281868  17.9832506   7.3566973  60.7661629
  18.3250713   7.1967787  61.6458321  18.7331295   7.6927161  60.2752399
  92.3942661 107.7629948  27.7569675  91.5026379 108.0971527  27.8547645
  92.7550220 108.2553196  27.0196056   2.5958210 101.6503525  47.4534941
   2.3947108 101.2538719  46.6057968   3.5163820 101.9040489  47.3868895
 107.7928448 107.7311611  78.0393362 106.9609451 108.0832291  77.7227688
 108.4568977 108.3035278  77.6550484  19.5328403  35.7430720  67.7959871
  19.8777294  35.1986527  67.0882511  18.7988961  35.2402020  68.1490850
 116.1025047 106.1289215  39.2087960 116.0050392 105.1883125  39.3570590
 115.2049732 106.4565277  39.1508913  19.7903574  13.1444013  75.5948019
  19.2742550  13.8324749  75.1747751  20.6431365  13.5485852  75.7549047
 107.2750950  36.0242534  25.9354639 107.0200920  36.9007301  25.6473875
 108.1577492  35.9043217  25.5850768  11.3311124   1.3943967  34.4963527
  11.4467001   1.6648108  35.4072571  11.8812299   1.9970600  33.9959550
  27.0826554   0.5069091  43.5899496  26.2643313   0.3918121  43.1069040
  27.1398830  -0.2659509  44.1517687  33.8298726   7.0001167  48.0610275
  34.0700984   7.1160257  48.9803171  32.9177523   6.7109460  48.0864525
  24.4549990  35.9091711  79.9358654  24.9338889  35.5299020  79.1989470
  24.2075300  35.1567936  80.4733753  46.8789339  12.2665060  37.2686291
  46.9581223  11.4745784  36.7368269  46.7407036  11.9441116  38.1592393
  20.0562358 106.7847347  51.7498207  19.4110882 106.3826847  52.3315287
  20.2837038 107.6099014  52.1782923  85.0288582 100.5246544  70.3074503
  84.2847824 100.3695679  70.8892822  85.0738430  99.7395802  69.7616863
  31.2772346  15.3020644  81.2428761  30.9716845  15.6522548  82.0796776
  31.7246556  14.4877744  81.4730358  55.1356554  15.8523369  19.0118527
  54.9268007  16.7617393  19.2253935  54.3264389  15.5017805  18.6396873
  14.1911447   1.1186130  25.6891084  13.2893384   0.8055966  25.6184125
  14.2408574   1.8474962  25.0706506  90.8206081  86.1980534  40.9477377
  91.7381191  85.9256268  40.9342194  90.7697868  86.8329811  41.6622400
  34.6891427   1.2891336  50.0029325  34.9268103   2.2002104  50.1752281
  35.2667069   0.7793850  50.5710983  14.6037674  20.1361871  42.3493576
  15.0926149  19.5484793  41.7732859  14.7393095  19.7788179  43.2269382
 107.0312691  27.2534537  55.6246901 107.5831890  26.4722157  55.6605864
 106.3381004  27.0286918  55.0040197  30.6115103  36.5390110  41.5076399
  30.8727551  36.3184333  40.6135893  31.3691354  36.3040900  42.0434093
 112.2696781 100.4587269  58.4011269 111.7078876 100.6915188  57.6619244
 112.7279758 101.2704563  58.6186075  47.5052118   1.2204046  43.6828470
  47.1211243   1.9462794  43.1910992  47.2727346   1.3988677  44.5940733
  45.7934141  14.6900499   0.7751629  46.6034985  14.2122722   0.5970586
  45.3779650  14.2007840   1.4852718  40.4491329  43.9874411  39.6181393
  41.1596441  44.4257307  39.1498327  39.8175979  43.7592745  38.9359879
  42.7513647  52.7290487  40.1101208  42.0995998  53.4183693  40.2376986
  42.2783375  52.0338535  39.6527600  78.4663677  73.7977791  77.9976606
  79.0168381  73.0153322  78.0291319  78.7178564  74.2989111  78.7734509
  21.2976480  15.0000465  40.0694370  21.1535215  14.6863675  40.9622240
  22.2258329  14.8344195  39.9042940 109.2812824  99.4521904  44.7794533
 108.7096596  99.7588730  45.4833221 108.8517380  98.6633492  44.4486141
 109.0060043  90.8332634  43.0191994 108.8650608  91.7433739  43.2800913
 109.3407440  90.4070282  43.8081884  31.7692995  12.7532732  35.6388664
  31.8584776  13.1702077  34.7818685  31.3810611  11.8988991  35.4503250
  41.7647076  22.8704214  53.2388926  42.4200296  23.4444880  52.8423643
  41.4085436  22.3703647  52.5045109  49.9188328  57.3523521  25.3919721
  49.0634108  57.4491739  25.8104396  49.7205353  57.2601795  24.4600844
 112.8044605  18.6667287  55.7251978 113.1671619  18.6603713  54.8394012
 112.2658920  17.8766346  55.7691622  80.5127621  80.3828621  91.2736893
  81.4227295  80.6787872  91.2984562  80.5397034  79.4953728  91.6312790
  12.1157277  19.0768480  44.4518089  12.1465135  18.1536841  44.7029114
  11.5890276  19.0902567  43.6526585  85.9735394 102.9907799  70.6799221
  85.5070114 102.1639442  70.8021450  86.7490005 102.9126549  71.2356138
   4.6563679  98.2353306  31.7225480   5.5620003  98.4842300  31.5378642
   4.4170594  97.6511192  31.0030603 112.9131889  29.4297647  74.3371725
 113.4005356  30.1931334  74.6470070 113.5741425  28.8763332  73.9211416
  29.5186043  41.8101454  51.4059496  30.1021481  42.4243593  51.8514299
  29.0110064  41.4079285  52.1107864   2.9044148   0.4346128  27.3868847
   2.5480476  -0.3577960  27.7885342   3.7616542   0.5466704  27.7977562
  25.5626678  21.2177157  61.4393711  25.9610534  20.3707266  61.6396952
  26.1976075  21.6523838  60.8700323   9.8428988  98.4067059  52.8954983
   9.2309654  98.1639194  52.2006464   9.7614396  97.7056503  53.5421276
  11.6405833 102.0766258  59.2123985  10.9104657 102.6935482  59.2630911
  11.7089319 101.7133427  60.0953436  92.9701996  99.6965790  83.9728451
  92.1209526  99.6447372  83.5342884  93.3992767  98.8671207  83.7627697
  60.3398609  -0.2735770  66.6304684  60.8371735  -0.2448462  65.8131027
  60.4019308   0.6153727  66.9799662  12.9725218  16.8128169  45.9450102
  13.8399577  16.5610456  46.2618685  12.5802326  15.9931755  45.6441307
 102.5069046 101.0369205  70.8629656 102.8521252 101.1871433  69.9829149
 102.5947571 101.8827820  71.3023186   9.3638027  10.3950620  67.4425554
   8.4124392  10.3080654  67.5023127   9.6432471  10.5890071  68.3372784
 110.8648014  90.9287453  56.7670012 110.8075619  90.5048656  57.6233196
 111.3135338  91.7565536  56.9390392 113.5632801  21.1802077  60.7740545
 112.8456116  21.6271329  61.2228775 114.1194534  21.8877459  60.4480171
  14.2181909  97.4337959  77.5409269  14.2539096  98.0600452  76.8178988
  13.8403881  96.6435623  77.1548891  55.1239443  17.5158811  57.9737329
  55.3629065  16.6123617  58.1805754  55.8611393  17.8471839  57.4608755
  24.3857384 106.5550804  39.5621371  23.6031508 106.7786121  40.0659466
  24.6560860 107.3808861  39.1606379 102.4060345  83.2579517  63.7959433
 102.0411205  83.2610512  62.9110384 102.3717022  82.3402691  64.0659714
 101.0651875 108.5698986  16.3326037 101.6305542 108.6356735  15.5630159
 101.3882637 109.2480946  16.9258142  29.7440314  36.5157843  57.3812485
  29.7516251  35.6032419  57.0923901  28.8788629  36.6358852  57.7727747
  11.1418247  12.4805999  44.1522503  10.5924106  12.7368641  44.8929930
  11.6015315  13.2832682  43.9060259 109.9992752  95.4153824  56.1678028
 109.1074276  95.3847027  55.8215523 110.0512981  96.2566757  56.6214037
 109.5539761  85.8378220  55.1825571 109.0822220  86.6379547  55.4137850
 109.4249153  85.7480621  54.2383528  27.6804662  11.7504716  14.1338027
  27.0272446  12.3372614  13.7527347  27.7918458  12.0661283  15.0305676
  48.9771891  43.2956362  28.0014181  48.9471436  42.4345493  27.5844598
  49.6718311  43.7625360  27.5369716  70.8299971  18.1236362  71.4969921
  71.5414762  17.6383829  71.9147921  71.1968803  18.9922667  71.3323498
 114.1237354 102.7324104  35.8980417 114.9006271 102.5439739  36.4245176
 113.8665676 103.6168289  36.1586070  36.3735628  25.5712843  88.4283543
  35.7027316  24.9798393  88.0871677  36.1618328  25.6631684  89.3573093
  38.6432743   9.3440747  24.3032050  39.5489717   9.5860678  24.1098595
  38.5422301   8.4713256  23.9232945  93.4903336  84.9393749  49.1473341
  93.8346004  85.1412582  48.2773018  92.6369381  84.5392990  48.9803362
  39.9892092   4.2391109  50.5325794  40.7872486   3.7121278  50.4919624
  39.9605179   4.5612717  51.4334774  48.3336449   3.6694527  62.4576855
  47.6036072   4.1681314  62.0908070  49.0927029   3.9414236  61.9418430
   7.6864398   1.6602455  37.5904584   8.2596892   2.3696402  37.8809333
   7.1043646   2.0695779  36.9502497  49.9896955   9.0106338  62.8532887
  49.1468906   9.0645438  62.4027348  50.1807642   9.9120200  63.1125736
  11.0672259 101.7954731  70.3835011  11.5028012 100.9496975  70.4891872
  11.6604578 102.3028278  69.8295212 104.5662975  96.4437389  70.1078033
 105.1385784  96.8647099  70.7492924 105.0682545  95.6902695  69.7970676
 107.4851990  80.3368568  57.5386477 107.1678734  81.1532497  57.1525812
 107.1191978  79.6501684  56.9812107 113.2342339   4.9993604  89.7066116
 114.1037178   4.9482349  89.3096066 112.9290771   5.8832252  89.5019341
  15.2021849  12.1535265  53.9972401  14.8606968  12.5367820  54.8051596
  14.5763576  12.4185884  53.3232117  99.5956135  92.1414280  23.7408948
 100.0911045  92.8844738  23.3965158 100.0205898  91.3729572  23.3599925
   3.4495243 103.4469891  55.5869198   4.2762387 102.9976177  55.4113054
   3.5399762 104.2941093  55.1505375  59.7336388 105.4780674  82.0878601
  58.8817596 105.6654739  81.6936302  60.3387356 105.4464912  81.3468456
  76.2198114  96.2507439  55.1210642  75.3153372  96.1140156  54.8391724
  76.7410755  96.1081409  54.3310165   9.9403137  13.7034345  40.7195663
  10.0887060  14.6177876  40.9607553  10.7469428  13.2548666  40.9732771
   3.6827025  21.8597031  46.4020205   3.6044365  22.0789886  45.4735708
   3.0776560  22.4574733  46.8411350  23.6899352  24.7093678  40.4382658
  23.2551193  25.4829884  40.7969856  22.9731512  24.1371512  40.1643705
 108.9687443 102.5033855  60.3707838 109.2722416 102.4535465  59.4643402
 108.0958176 102.8913784  60.3100967   3.1249964 106.0364532  70.7304335
   2.7593216 106.2632656  71.5854597   3.6378711 106.8042088  70.4779720
  22.0578599  39.4598794  41.2642527  22.0126820  40.2850533  40.7812643
  21.1660171  39.1138244  41.2311220  11.1696422  32.5482440  43.7354612
  10.7865632  32.1094990  44.4950581  11.0554838  31.9263196  43.0168438
   6.1040980  32.7656627  50.1485968   5.4531944  32.4730849  50.7865286
   6.6158134  31.9811010  49.9515104  97.7180862  39.1871452  52.7769375
  97.3091125  38.4166718  53.1710625  98.6472034  39.1006303  52.9902411
  21.6446280  11.7545164  30.1674271  20.9864497  11.1238956  29.8752785
  22.4605489  11.4507759  29.7696280  37.7561855   7.8225243  64.3088531
  38.4972548   7.7783269  64.9130869  37.9106283   7.1105945  63.6879396
  14.3872929  23.9198446   8.1755954  14.5565450  23.0302739   7.8653562
  14.5617509  24.4756436   7.4160677  19.5394969  53.6088514  69.7138739
  19.2337346  53.0409050  69.0066385  19.1711903  53.2218027  70.5080891
  22.5218797   3.0569848  18.6289942  22.4390721   2.6806131  17.7527988
  21.6477966   3.3916625  18.8294959  25.5841041  29.6883130  49.9630737
  26.2371278  28.9898896  49.9183989  26.0165620  30.4460979  49.5694065
  26.3278675  50.0464964  64.9420261  27.0429540  49.5058107  64.6065617
  25.5773067  49.8181009  64.3936396  48.6646271  91.0594559  69.9406672
  48.9846802  91.9194889  70.2129602  48.3801603  91.1853409  69.0354252
  65.8317661  23.8604999  51.0639286  64.9035454  24.0914440  51.0999823
  66.1061001  23.8273191  51.9803715   5.4794741  13.4631550  21.0852981
   6.4318901  13.3972287  21.0160923   5.1519597  12.6879203  20.6292534
   5.4476064  95.8809853  43.0054188   5.8821011  95.6452751  42.1857309
   5.4831553  95.0833225  43.5333395   7.0975786  12.9773557  44.8285341
   7.4318290  12.1471250  44.4890833   6.3203394  12.7348042  45.3318214
 103.6349010  15.0817096  59.3420601 103.1575489  14.2896748  59.0949917
 103.7864494  15.5380142  58.5143805  46.5464830  18.9282942  13.9115345
  46.4474869  18.0268395  13.6052477  47.4693108  19.1326487  13.7603307
  52.9598045  24.8094654  22.7474022  53.8079834  25.2355933  22.6239300
  53.1064081  23.9021587  22.4799418  85.1451397 106.5601158  47.2256517
  85.4846001 106.7151451  48.1071091  84.3313408 107.0628357  47.1905422
  16.9037688  19.9892247  29.2487335  17.0249832  19.1342568  29.6617317
  17.7472639  20.4288030  29.3560481  96.3585758  89.2712593  12.9435992
  97.1809292  88.9527702  13.3158112  96.1921024  90.0955677  13.4008050
  37.5813556  26.2123513   8.1148928  37.5019073  26.0825324   7.1698713
  36.8683791  26.8118644   8.3350766  16.9990480  59.7640800  24.5734715
  16.6695642  60.5930758  24.9205184  17.6983750  60.0176573  23.9710808
  82.2544003 108.3751774  42.8030539  83.0230999 108.9021206  43.0213594
  81.5143967 108.8796425  43.1409073  96.0731220 105.9325600  49.1576910
  96.4178276 106.7014694  48.7036085  96.7718315 105.6768036  49.7598839
  13.4716558  51.4338446  17.5660169  12.7108228  50.8646154  17.6815152
  13.4020090  52.0734882  18.2747078   2.9132694  34.9704814  26.9273472
   3.0300486  35.0255227  27.8758001   2.3075816  35.6817722  26.7189240
  21.0265303  10.5168486  57.3125648  20.6001449  10.8624947  58.0967569
  21.4156508  11.2844241  56.8934679  48.5802650  34.5745707  45.9435844
  48.1934357  33.6990213  45.9461927  47.8600168  35.1553655  46.1888313
  16.1625397  30.1508284  36.9367909  15.3052342  30.4068470  37.2769570
  16.0254049  29.2746234  36.5766644  41.2070751  52.4318027  52.0832396
  41.4746857  52.7302265  51.2140083  40.9624529  53.2328129  52.5466824
  27.6245356  38.5103917  57.5540304  27.1086311  37.7097607  57.4588299
  27.4499750  39.0044713  56.7530012  49.8926306  15.8213007  31.3724232
  49.8866272  15.7754230  32.3285031  50.8064890  15.6700897  31.1311126
  66.0939407  35.1889277  56.4605141  66.5689039  34.5751047  57.0207500
  65.3624678  34.6788883  56.1126041  18.6207759  23.5287929  42.1327782
  19.0437770  23.9919424  42.8558207  17.7085233  23.4374690  42.4078941
   8.3615291  37.7952456  59.8298025   7.8573793  37.9890347  59.0395451
   7.7582306  37.2991848  60.3831434  52.4390411  31.4992666  35.5241394
  53.3338451  31.3051534  35.8032012  52.5392962  32.1667218  34.8454022
  95.4983711  95.6894112   8.9450568  94.9310112  95.8068180   9.7069991
  96.3640690  95.9651661   9.2462951  47.9410934  54.4839621  30.5757117
  48.0329466  54.4392490  31.5274453  47.6719904  53.6018658  30.3193545
  29.7031450  23.5495257  85.0496101  30.0993061  23.1357217  84.2827702
  30.0965142  24.4215870  85.0812149  48.0244255  49.1439915  54.6280670
  48.0877686  48.3174944  54.1493988  48.9178753  49.3185282  54.9238920
  92.8732681  94.7158527  26.6828322  92.8781223  93.8086224  26.9880080
  93.4003639  94.7026443  25.8839393  21.7032719 106.8290138  74.2311811
  22.0666718 106.9870758  73.3598661  20.7586598 106.9364262  74.1198158
  22.7490544  16.1918163  31.1124611  23.3617377  15.5027199  30.8555627
  22.6018286  16.6927099  30.3101754  16.1461675  21.0022235  53.6021423
  15.7586658  21.6466951  53.0099201  16.4413810  21.5152550  54.3543911
   9.0935063  34.2294693  44.0167141   8.6689919  33.7686157  43.2930899
   9.9866813  33.8854790  44.0286303 103.3852196  29.9256372   3.5598999
 104.1951275  30.4343247   3.5210624 103.0627251  30.0564766   4.4515920
  15.1310718 108.1798363  49.9468231  14.6048403 107.9258060  49.1886806
  15.7296920 107.4448776  50.0799704 113.4507656 103.8520145  74.6683121
 112.6869869 103.9991951  75.2261734 113.9326286 104.6785069  74.6990204
  94.1103172 107.3260784  83.3539581  93.8457108 107.8317928  84.1223812
  93.9559937 106.4146328  83.6022949  70.4410553  91.2259388   2.9965055
  70.4176950  91.4489746   3.9270645  69.5650625  90.8887482   2.8089625
  10.4694092  42.3731565  78.0657625  11.0021508  42.7796078  77.3822308
  10.8950913  41.5322733  78.2329321  30.2599001  46.7621517  42.6111794
  31.1300397  46.5218973  42.2927999  29.8042917  45.9269333  42.7163458
  33.7661862   4.9032041  62.4479818  33.8914537   5.8424771  62.3126793
  33.2517743   4.8436907  63.2530117  17.3016000   5.4381663  44.7500181
  17.8720748   6.1937344  44.6089220  16.4187109   5.8067948  44.7792101
  23.6239791   6.3290483  28.8454533  24.0443897   6.4739501  27.9978156
  24.2994118   5.9108531  29.3794346  27.4828768   8.8960350  41.0504532
  26.8998504   8.5692275  40.3652477  27.0510077   9.6858954  41.3757849
  26.4922214  36.0098338  47.4730635  26.4836979  36.0558486  48.4291220
  27.3998594  36.1956096  47.2324181   1.4299791  42.8921270  65.6514263
   0.6700604  43.4311008  65.4317284   1.8024302  43.3086824  66.4285946
  72.6576185  18.0407512  50.8174562  73.3627462  17.4893343  50.4783964
  71.8588495  17.5438440  50.6405830   4.3527535  36.2137914  72.3595572
   4.8915544  36.8006873  71.8290138   3.8384047  36.7985034  72.9161453
  25.7244229  61.3226414  23.4922838  26.4185596  61.9474649  23.2825208
  25.7096887  60.7219458  22.7471805 103.0597401  25.6486392  61.8165016
 102.5777912  25.9427118  62.5894737 102.3820210  25.4767752  61.1627436
  15.1734006 107.2079372  54.5807076  14.8730683 106.3989162  54.9948549
  14.5310783 107.3769188  53.8914347   4.6442071 103.3989811  63.2390261
   4.1372985 102.6214123  63.0052328   5.5308479 103.0708122  63.3887005
  72.6401186  32.3366976  44.4688606  71.8427277  32.5084257  44.9697638
  72.3512983  32.3221111  43.5563898  34.3628907  26.1611986  16.2338686
  33.4713435  25.8320713  16.1196363  34.8275471  25.4474592  16.6707909
  41.3945675  33.0584288  50.7754993  42.3390484  32.9053760  50.8031654
  41.1192703  33.0230856  51.6915751  24.2023873  13.9736271  57.0516348
  23.7355208  13.1402600  56.9902706  23.8465714  14.3902683  57.8365135
 114.9824047  96.2446022  22.4109435 114.5870590  97.0157146  22.0043421
 115.5396652  95.8725548  21.7273736  46.8838167  13.7240767  28.5100436
  46.9456291  14.6216118  28.8369107  46.5114594  13.8137615  27.6328087
   3.9192459  14.4997633  18.1598580   4.5242649  15.1865268  18.4401071
   4.0097031  14.4749725  17.2072637  90.8931637   5.4526609  38.9276195
  90.5708599   5.2102286  38.0595279  90.1270294   5.3790599  39.4967127
 110.5811882  33.8857675  32.2149539 110.5755711  34.3560219  33.0486584
 109.8751831  33.2446146  32.2968554  55.7792044  27.6651955  74.7567606
  55.2589989  26.9013357  75.0060368  56.2243652  27.9253435  75.5632257
  22.1367979  33.7633681  55.2040100  21.3601351  33.3149028  55.5385303
  21.8790007  34.0735126  54.3359232  50.0023651   8.3280212  74.3564558
  50.4734564   7.7338749  74.9406576  49.4783068   8.8743401  74.9422312
  30.4385424  38.4282994   2.4702542  31.1037779  38.8703322   2.9977933
  30.7074594  37.5096583   2.4663019  67.6355553  28.9904475  54.5725632
  66.8657827  28.4253287  54.5068264  68.3179855  28.4245706  54.9335337
   5.6161362 104.7813988  52.5351334   6.4253998 104.4653225  52.9369068
   5.2023613 103.9950180  52.1792984   8.2704544  33.3076358  41.6380930
   7.3410708  33.3480048  41.4125967   8.7215918  33.6083913  40.8492613
   0.6981748  14.2245638  65.4108429   1.1268586  14.3772709  64.5687389
   1.2013725  13.5151911  65.8106089  47.5134134  25.6373000  74.2718887
  46.7325735  25.8385277  73.7561083  47.2519493  25.8043814  75.1774025
   0.5541757 103.4067535  39.6203852   0.5097009 103.1450844  38.7007189
   1.4832136 103.3447838  39.8423767  55.0113010  45.1168394  68.3695698
  55.0842619  45.1886988  69.3212748  54.1920424  45.5642319  68.1577015
  18.4954333  26.7182088  21.5065122  19.1774619  27.1917248  21.9828010
  18.5380173  25.8261728  21.8510246  28.2132721  98.7316895  65.1882267
  28.5454345  98.4374428  66.0363579  27.4460125  98.1823158  65.0278091
 100.8779716  13.0348384  12.3870122 101.6053200  13.4772909  12.8245354
 100.6648350  13.6007667  11.6450357  80.3932190  68.9583158  32.0035481
  80.4558659  69.8442888  31.6466713  79.7259951  69.0219927  32.6869130
 110.9428883  73.6498451  43.7048197 111.8050957  74.0619898  43.6503220
 110.7295036  73.4203863  42.8003597  50.3844309  34.6035075  41.8962526
  49.5651293  34.6295309  42.3905182  50.1127195  34.6496415  40.9795856
  31.6647601  18.2375956  25.4234076  32.1565652  18.9166296  25.8852243
  31.1367989  17.8196704  26.1037207  73.3470488  32.4675560  47.7256680
  72.6980066  31.7644143  47.7018452  72.8622150  33.2500339  47.4631882
  48.9312935  27.3318911  49.7130013  48.5202646  26.9371438  50.4820681
  49.1516495  28.2214689  49.9892664  54.4325018  37.6397634  66.0855818
  54.0174341  37.4689198  66.9310188  54.0539217  38.4699631  65.7963085
  28.3700562  29.8462987  46.4577913  29.2714095  29.8842573  46.1378670
  28.0152917  29.0417957  46.0794449  44.3438435  46.7306566  39.1311097
  43.9856195  47.4370289  39.6686411  44.8333931  46.1855888  39.7471237
  45.7874346   0.3878921  46.0617208  45.3932714   1.1480194  46.4895964
  46.4366770   0.0698224  46.6890574  18.8190663   9.0694833  65.3021097
  18.1784678   8.5691488  65.8076096  18.9262843   9.8850143  65.7916451
  94.7795391  42.1134663  37.5954986  94.5137787  41.3826990  38.1536937
  95.7072926  41.9559717  37.4203038  87.9426479  75.6168222  91.7026806
  88.2065201  74.7383595  91.9763756  88.5873413  75.8650208  91.0401154
  15.5194330   5.0245708  56.4445210  15.8498812   4.2398620  56.8818617
  15.9724844   5.0376350  55.6014299  57.1289682  76.0892296  25.7184768
  56.6923285  76.8217039  25.2836728  57.9385233  75.9647799  25.2231312
  35.3099585   1.6680244  20.2064466  36.0040832   1.5707870  20.8583426
  35.0167966   2.5741935  20.3020811  89.8667812  37.7830935  33.4288430
  89.2873478  37.5892258  32.6920199  90.1072693  36.9244194  33.7767982
  46.5069485  96.3274956  82.7485847  46.5684128  95.3792953  82.6329708
  45.9762955  96.6249943  82.0095730  53.7864065  34.8658419  79.3487406
  54.2552662  35.6170726  78.9853430  54.4318962  34.1590381  79.3513012
  75.3810692  89.0356731  75.7779598  76.1646128  88.6964035  76.2106085
  74.6727324  88.8683033  76.3996410  28.4435916  32.9821539  37.0116162
  27.6402307  32.5888848  36.6707659  28.6079049  32.5180173  37.8324747
   8.2016569  21.0165572  24.8155999   7.3667693  20.6300449  24.5513964
   8.6726213  21.1542034  23.9937258  40.0447273  31.8400192  32.6335478
  40.6708622  31.9010234  31.9121170  39.2194915  31.5959167  32.2144604
  16.5913785  39.4032168  52.7743912  17.1534061  38.8228559  52.2610331
  17.1384835  39.6768308  53.5106277  43.9143991  22.8499866  62.1622849
  43.7936783  22.8301406  61.2129354  44.7101068  23.3660340  62.2918034
  52.5531149  10.7165384  32.1058035  52.2276974  11.5666664  31.8098044
  52.0219707  10.0779176  31.6301131  64.1168690  44.5223570   8.7736195
  64.7379589  45.1883030   9.0685672  64.5366240  44.1243982   8.0109483
  40.4220390  16.8985188  40.2140903  39.9275827  16.1483407  40.5442095
  40.0588655  17.0603383  39.3433714  57.2975922  36.4635968  33.0020714
  57.5850487  36.2124228  33.8798594  58.1082439  36.6529012  32.5295901
  38.7119555  24.3090200  60.8129787  38.4943509  24.7904682  61.6111565
  37.9340839  24.3949747  60.2618313 112.1403694   1.4538501  24.0995359
 112.2566128   1.9907421  23.3156586 112.4754238   1.9964737  24.8133469
  76.9674349  39.7177267  48.2132769  76.9173908  39.2091894  47.4038839
  76.1516809  40.2181339  48.2325602  45.6198454  44.9771881  44.9974585
  44.7864819  44.5064259  45.0084782  45.3824663  45.8793974  44.7832155
 106.4501858   3.5990515  54.5290470 106.2563705   4.1541654  53.7737226
 106.2174511   2.7157077  54.2430973  30.6426215  56.1956930  58.6872959
  30.5751324  56.6471004  57.8459215  30.0873828  56.7050791  59.2776060
  42.5292110  54.2146540  34.2247558  42.1252728  55.0351667  34.5072889
  43.1019545  53.9672375  34.9506903  12.5748122   6.7551517  68.7111855
  12.7379239   7.6981592  68.6921215  11.8435419   6.6263109  68.1071377
  48.0627584  29.9128342  30.0390792  47.2490549  29.7009039  29.5816875
  48.0460835  29.3649864  30.8238196  84.9843788  87.9617119  46.8982887
  84.7107220  88.8783932  46.8662977  85.4673672  87.8273487  46.0828686
  40.4701376  41.2988663  69.1124773  41.0846376  41.0236597  68.4321213
  40.6432152  40.7074976  69.8449802   9.0810072   4.4979241  43.6036015
   8.8299245   3.6647254  43.2048893   8.6694527   5.1618415  43.0503654
   2.4707653  39.4994354  56.9499731   2.8938466  39.5182872  56.0915565
   2.4958695  40.4082584  57.2493792  69.2932844  44.4331360  33.8750935
  69.4915485  43.8867283  34.6355915  68.3371496  44.4705439  33.8497782
  99.1502953  35.1618195   7.7822149  99.7378159  34.5070839   8.1595421
  98.7107563  35.5527425   8.5373396  52.4966764   4.3941069  61.9867945
  52.1640682   5.1406771  62.4850273  53.2241774   4.7511113  61.4773607
  18.6735630  28.2799673  54.7859907  19.1064298  27.7048707  54.1550255
  18.4295559  29.0531635  54.2772102  22.5910139   2.2563404  40.2194309
  22.7464724   3.1994921  40.1691389  23.4640670   1.8668114  40.1717091
   4.1686818  31.4134073  52.0423889   3.4854943  31.7530131  51.4643288
   3.7279752  31.2802100  52.8815937  96.5520668  90.9552860  50.1534796
  97.2918510  90.6490421  50.6780386  96.8804550  91.7373276  49.7098637
  23.7814546  34.4953513  30.4088473  24.2615247  34.4760633  31.2367296
  23.3689284  33.6335421  30.3510618 104.1250706 103.2712650  71.0319519
 104.6650696 103.8390446  71.5817356 104.5053959 102.3997211  71.1414623
  11.4851511   3.3373940  47.1933270  11.0966086   2.4681227  47.0951748
  10.8188379   3.8468885  47.6544905 101.7372799  16.9493437  33.3659840
 101.7417240  17.0323992  32.4124050 102.6579475  16.8328071  33.6005497
  82.6932812 108.3296204  64.2689610  81.7420578 108.2497311  64.1981411
  83.0332947 107.5695896  63.7967539  78.3681393 100.4210377  21.8582416
  78.9525843 100.1543999  21.1486220  78.9548492 100.7316208  22.5478363
  18.1527543  31.3227701  46.0251617  18.3326960  31.7600775  46.8573999
  19.0036452  30.9886742  45.7412672  32.3032475 104.5495129  61.7124081
  32.1867561 105.4250526  61.3435078  31.4143634 104.2040157  61.7945719
  22.4982357  18.4816241  35.5405784  22.4338770  17.8906214  34.7903752
  22.2949171  17.9314649  36.2970304   3.0448762  29.8272252  39.7326303
   3.1458354  29.5254302  38.8298798   2.6028189  29.1048145  40.1786566
 111.4819813  99.4167709  38.9442348 110.6020164  99.2611122  39.2872643
 111.4423752 100.2988243  38.5745621  24.7257352   0.2642690  39.2591143
  25.4282355  -0.2134674  38.8180971  24.8924589   0.1282996  40.1918221
  46.3246870  31.1312866  62.7001476  46.4248657  30.7901669  63.5888767
  45.7412910  31.8839693  62.7968454  38.5804391  27.3384356  24.8987079
  37.9621172  27.8873253  24.4163918  38.6091304  27.7229261  25.7748222
  42.0131063  34.3589616  54.3928003  42.0498562  33.7061548  55.0918865
  41.5929890  35.1185465  54.7962379  62.4180937  32.4324036  54.5335007
  63.2519388  32.7939868  54.2331791  61.7998409  33.1589270  54.4550228
   9.0682614  27.1041250  52.7269697   9.7104204  27.2507071  53.4215021
   8.9677078  27.9595113  52.3093176  11.8859601 102.6294708  25.8667541
  11.8715274 101.7067814  25.6124711  11.2445080 102.6929665  26.5743828
  36.5012264   8.6447632  61.3013935  37.0046926   8.7532079  60.4945517
  37.0147395   8.0280066  61.8230724  11.1572301  36.6224957  49.8037004
  10.6127703  36.4248848  50.5657673  12.0322168  36.7646241  50.1648521
 100.0745583  38.5256267  54.0093231 100.8429337  39.0756369  54.1620541
  99.9513531  38.0524206  54.8322010  19.0342212  17.5056052  80.9439850
  18.6535156  17.1610165  81.7517948  19.9361837  17.7240634  81.1784458
  15.6825614  12.8838420  91.4473248  15.9699249  13.7461257  91.1471176
  15.8914959  12.2956848  90.7216167  46.5595007  11.5394020  30.0692201
  46.6890287  12.2387457  29.4286180  47.1789789  10.8579063  29.8083758
  28.7561417 105.6823540  76.9982529  29.6614265 105.9651279  77.1275949
  28.2758856 106.0758781  77.7267599  31.9065738  35.0837564  58.7460279
  31.3783169  35.0123143  59.5410585  31.4900517  35.7841492  58.2438421
  30.0722718  16.2920356  69.6141911  29.1367936  16.4558494  69.4947147
  30.5003548  17.0575988  69.2309284  30.7241178  39.8098731  50.0703764
  31.5528679  40.2182055  49.8200321  30.3371215  40.4192448  50.6989670
  76.5739250  19.5196748  11.6336346  77.4363136  19.7337794  11.2777185
  75.9567261  19.9434948  11.0372508  19.8905993   7.1583444  34.4362402
  19.3226302   6.3880789  34.4179368  20.2998424   7.1747798  33.5710931
   6.1138785  36.6309381  61.0819721   5.3707850  36.1009288  60.7936382
   6.4392549  36.1826324  61.8626022  26.5703988 103.5255623  39.9388719
  27.2302246 103.3531857  39.2671967  26.5103602 104.4801521  39.9762344
 109.4431973  13.3340716  65.9060955 109.0064144  12.8256428  65.2227592
 110.0843525  13.8666916  65.4354858  33.3742309  30.1593328  33.6930728
  33.2475567  30.7124615  32.9222083  32.5192332  30.1486373  34.1233039
  40.1459932  16.4227760  27.6721406  40.1506615  16.9319117  28.4826922
  39.8955679  15.5401707  27.9451323 105.5790901 109.0219593  76.8835115
 105.3632164 108.3184814  76.2713480 105.1941013 109.8062611  76.4925003
  46.2554979  26.8139744  48.3094168  46.4882088  25.9249187  48.0417299
  46.9885445  27.0995402  48.8546944  31.9163609  21.2850213  57.6035500
  31.2126017  21.8716502  57.3263836  32.3597574  21.7586565  58.3073282
  67.7235270  24.3497658  40.0260210  67.9982519  25.2561879  40.1644230
  68.3830452  23.8272619  40.4823732  15.3391743 100.9353542  49.0707970
  14.4815195 100.8714581  49.4910097  15.9587181 100.6653309  49.7486496
  26.5261555  23.3013749   1.3422154  25.6692886  23.6963105   1.1808613
  27.1523762  23.9953828   1.1362201  48.2254410   0.1896598  32.6687741
  48.0682278   0.5981345  33.5200453  47.8961515   0.8254927  32.0335460
  58.9609909  18.5729730  54.6372318  59.7343540  18.1661594  54.2465401
  58.4247875  17.8360653  54.9299574  29.2696381   3.8631099  66.1026525
  28.4813666   4.0249360  65.5843210  29.6011257   3.0253816  65.7792950
   4.4259086  94.3740845  71.6379738   4.4391054  94.8527622  70.8091640
   4.4699183  95.0554562  72.3088169  22.4823952  98.0729961  59.8704767
  23.2323050  97.4862099  59.9681950  22.2876048  98.0587196  58.9334154
  49.0354300  19.4461155  29.0803432  49.7095871  19.7333610  28.4645247
  48.2102537  19.5945477  28.6185145 112.2548485  14.0735006  48.1593513
 112.9427814  14.6031201  48.5624266 112.0445919  14.5326042  47.3461771
  39.6605229  30.3588057  73.3598471  40.2626705  30.1738167  74.0805626
  40.1581287  30.9270310  72.7718496  35.8981109  43.4799290  43.3592272
  34.9549747  43.4171486  43.5101652  36.2920237  43.2029200  44.1864681
  23.8638997  15.0008130  14.4024694  23.7186503  14.0730381  14.5878541
  24.5739269  15.2545857  14.9921238  45.6689358  20.9518743  50.4330349
  45.3230906  20.6904912  51.2864399  45.3901529  20.2556968  49.8381853
  17.6388383  13.5220671  45.7132959  17.6422477  13.4773386  44.7571516
  18.4594274  13.1048071  45.9755182  24.8366761   6.1633247  26.5084100
  25.6604767   6.4261967  26.0979438  24.2615652   5.9473151  25.7743692
 102.0705700  75.9888124   2.5078779 101.6081238  76.5254354   3.1516281
 102.9837227  76.2678289   2.5751349  14.7082996  25.1025534  50.2483130
  14.4421721  25.8623290  49.7304773  14.0832031  25.0755763  50.9727144
  23.5048437  60.7781410  56.2690973  23.6733317  60.9946299  55.3520489
  22.5556469  60.6646729  56.3179111  55.3661108  11.9824946  52.3299170
  55.8635473  11.2263894  52.6415157  55.7872963  12.7344275  52.7463675
  17.4380040  29.8579693  11.5855837  16.5873408  30.1602316  11.9037700
  17.5012815  30.2115583  10.6983387 111.5984917  26.3331246  21.5208030
 112.3774147  25.9637785  21.9368553 110.8741570  25.8058286  21.8577409
  46.4307785  26.0455680  26.5723252  45.5721045  25.8078861  26.2224507
  47.0232487  25.9709430  25.8242297  29.5452166  38.2215476  54.0203142
  29.0423822  38.9521122  53.6602259  28.9215970  37.4962664  54.0563488
  13.2993639  17.8894293  40.9995174  14.1995239  17.5722706  41.0726881
  13.2465577  18.6078382  41.6298580  25.6683612  45.0480652  30.4677916
  26.5043068  44.7134113  30.7924986  25.1019788  44.2775583  30.4257584
  27.1054888  58.6632967  25.8983135  26.3987756  58.0185461  25.8653855
  27.5233722  58.5174894  26.7470455  38.6925364  35.4518056  32.4996543
  37.9111290  35.3361869  31.9590378  39.2370200  36.0647655  32.0056415
  63.1521988  19.3307507  10.9631002  63.4314156  19.7320044  11.7860627
  63.1159163  20.0582743  10.3421116  26.5798855 102.4851608  73.9627266
  27.3140383 102.7102566  74.5341969  26.8963552 102.6761246  73.0797672
  51.8223906  33.3083987  78.2228374  51.4537573  32.9273701  79.0198088
  52.3385000  34.0536451  78.5301971  80.5061054  13.7050366  42.3182297
  81.0953331  13.0883420  41.8838024  80.2771950  14.3377078  41.6373777
  53.7242651  13.4541535  38.0750966  53.7928534  12.6463199  37.5662446
  54.2240000  13.2782173  38.8723087  42.4695778  15.1622117  33.5479927
  41.6747379  15.3553414  33.0508351  42.1618414  14.6733010  34.3112087
  40.2537012  32.5230026  53.2029390  40.4539061  33.3399057  53.6599064
  39.3142676  32.3976040  53.3369923 100.6457424  99.9876595  47.6352644
  99.8238754 100.4756355  47.6866674 101.2012577 100.3826809  48.3072662
  21.2880778  58.1533480  32.0887899  22.2266483  58.0742884  31.9183040
  21.2334228  58.4354162  33.0018497  72.3772764  31.7415667  26.5479064
  73.1292486  31.1499667  26.5201139  72.4085140  32.1276808  27.4232197
  84.9618530 104.3108177  44.4126701  85.0119209 104.9523067  43.7040043
  84.2258358 104.6041870  44.9497414  29.6037507  26.0667443  34.1438389
  30.5209708  25.9841537  34.4048381  29.4474649  27.0106077  34.1133571
  44.0740442  42.3895693  40.0354815  43.7456894  42.3941517  39.1363764
  43.6897278  43.1700039  40.4347992  65.0944901  40.8041763  17.6886284
  65.1795292  41.1902237  16.8168676  65.4014111  39.9037147  17.5827968
 111.2632275 103.2742310  88.8476562 111.8633175 103.8143539  89.3618488
 110.6470585 103.8987637  88.4648705  39.9686551  39.7684622  60.5459452
  40.3621769  39.7380829  59.6739101  40.1381683  40.6586266  60.8543348
  39.3930817  46.3110447  36.1361694  39.9457121  47.0908594  36.1883211
  39.5107627  45.9935284  35.2408671  33.4601474  41.7062712  52.0282650
  32.6457429  42.1918964  52.1591949  33.3582902  41.2947416  51.1700678
  40.0710106  59.9779987  16.8137312  39.3129826  59.5127392  16.4599502
  40.0629950  59.7728968  17.7486658  48.2766342  98.6210537   3.7000456
  48.5055161  97.8978634   4.2838690  47.7759075  98.2104874   2.9951000
  51.7038012  44.0017796  49.6626520  52.1587658  43.1848288  49.8671770
  51.7147589  44.4940186  50.4835129  51.7078018  19.6370471  47.8935099
  51.1194944  19.9158931  47.1918154  51.1242390  19.3810248  48.6077547
  46.2768841  62.9085445  10.4952383  46.3420820  63.4759235  11.2633932
  46.9773817  63.2083464   9.9158841  49.5186281  42.7534723  42.1975040
  49.9745560  43.5680819  41.9859076  49.9076462  42.4691439  43.0245829
  14.5136976  20.2457190  60.2669907  14.7071552  19.3617821  59.9548006
  14.8681295  20.2687263  61.1558533  49.7208548  18.3838677  37.6542044
  49.7873068  17.5755262  37.1458745  49.9588346  19.0754044  37.0366502
  17.8183687 108.9201069  28.8247252  16.9821584 109.2091084  28.4593987
  17.6568556 108.0210209  29.1107249  43.3901644  36.1747432  69.6137762
  43.7972546  35.3737521  69.2837381  42.8245544  36.4678669  68.8993549
  22.9265046  39.7681928  59.5571852  23.0825138  39.1182303  60.2423429
  22.2843027  40.3675699  59.9373865  33.3869195  48.5500383  61.8270636
  33.6331129  48.1058788  61.0156775  32.8167272  49.2652941  61.5450668
  46.2560272  56.6888428  22.7946067  46.0911465  55.8644676  22.3369479
  46.1028671  56.4853382  23.7172985  12.8541052   4.0891737  26.7468238
  13.4260750   3.6633858  27.3854065  13.3841085   4.1473410  25.9518743
  51.3884735  49.8770237  33.9609981  51.4814234  49.3596029  33.1610823
  50.4445648  49.9101639  34.1164827  54.5478106  60.7411528  34.1487455
  53.6557388  60.9330416  33.8595867  54.5409489  60.9288549  35.0873375
  45.0691986  45.8504391  51.4288235  44.3138218  45.2847338  51.5888596
  45.7352400  45.2645874  51.0691023  20.4427528  45.9874105  41.6628790
  20.5153203  45.5721331  42.5222445  20.7827282  46.8723869  41.7950439
  50.9838820   7.7376479  52.0315218  50.2368689   7.2359097  52.3578072
  51.2023687   8.3346468  52.7471256  68.2407284  44.9267483  29.9878407
  67.5658274  44.4368505  30.4576778  68.0311823  45.8453417  30.1566958
   4.4849589  99.8937988  61.0533190   5.4176587  99.8449612  61.2628841
   4.0733847 100.1983547  61.8620729  88.9758682 106.8248844  86.4305305
  89.1345119 107.1781063  85.5551434  89.8092651 106.4275646  86.6831398
  68.1222534  35.5383706  16.0653460  67.4356890  35.3441501  15.4272723
  67.9438877  34.9469972  16.7965734  41.2767124  14.5839930  55.4064703
  41.4850569  15.4130554  55.8371496  40.3890896  14.3781888  55.6997204
  26.9563532  50.7518673  55.6956005  27.1347213  49.8120689  55.6611013
  26.0040450  50.8176708  55.6248140  77.3680210  17.3366797  62.5429392
  76.4344645  17.3201871  62.7537251  77.6672125  16.4430022  62.7104568
  52.7869034  14.5679295  81.4244270  52.0150232  14.0628994  81.1687279
  53.3808184  13.9212036  81.8055344  32.9803824  18.2848680  74.4347715
  33.4436393  19.1222298  74.4559860  32.5961256  18.2458472  73.5589552
  48.5881948  18.3779931  35.0501847  48.0854368  18.0023062  34.3274617
  48.9387035  17.6198244  35.5176830  44.3812180  31.8995261  50.5353689
  45.2604532  31.8166280  50.1661777  44.4193220  31.4099836  51.3570309
  51.5895033  61.6893959  41.6405487  51.3450384  60.8747435  41.2014532
  50.9332037  61.7966747  42.3290253  66.4957142  21.5422630   9.8970503
  66.1315632  21.4894247  10.7806993  66.1527395  22.3638082   9.5453888
  10.9375727  34.2842722  53.1059933  10.0511634  33.9267063  53.0544424
  11.2427759  34.0427589  53.9804983  30.6848335  49.5027447  70.0581312
  30.7377386  50.3323174  70.5327225  31.0567212  49.6951056  69.1973591
  50.5433750  60.5414486  37.8103018  49.7261524  61.0251093  37.9305148
  50.7575035  60.2122736  38.6832428  69.8628330  43.3775663  57.3015022
  69.3078041  43.3401871  58.0804634  70.6724119  42.9388857  57.5629807
  64.5286036  50.2569485  30.9958720  63.7446880  49.7415018  30.8060646
  64.6873283  50.7554913  30.1943159  49.1580439  38.5116553  31.1878920
  48.2970667  38.7693119  31.5173745  49.0199804  38.3550763  30.2537346
  52.2318935  38.4204912  44.8864412  52.3042965  38.5136485  45.8363438
  51.4729881  38.9540410  44.6506071  76.3577223  22.1231174  50.3857088
  75.4985332  21.7214441  50.5148697  76.1664057  22.9818630  50.0086355
   8.9348304  28.3015084  70.7366657   8.2332236  28.6160016  71.3068151
   9.0000331  28.9643431  70.0491810  48.5107994  43.7718344  47.9668999
  47.6106405  43.5030603  48.1504917  48.4428501  44.7002745  47.7441740
  49.6843290  39.2780757  59.2763901  50.4921722  39.7639370  59.1103697
  49.5343113  39.3769121  60.2165794  40.5138206  47.8410387  67.8638268
  39.6318698  47.4900627  67.7405071  40.3930759  48.5947323  68.4414053
  55.2521944  29.4409847  52.0973301  55.7288313  30.2359271  51.8583393
  54.3385410  29.6384335  51.8912125  79.9189138  17.9407954  41.3440609
  79.2120266  18.4409261  41.7519999  80.2871990  17.4204957  42.0581245
  74.5430803  29.2701697  17.8975022  75.4382801  29.3093920  18.2341123
  74.1519499  28.5193062  18.3441031  41.4311790  61.7702579  87.0538425
  40.6550407  61.9418669  87.5871181  41.8732834  62.6171875  86.9948292
  54.9611759  40.3732491  40.7044029  54.9366426  39.6045661  41.2742758
  54.2725468  40.2147961  40.0587177  16.1146176  25.7653832  93.0597878
  15.3032959  25.3084946  92.8378868  16.2429667  26.3871670  92.3434448
 111.9764519  34.5286965  67.6228809 111.2485123  33.9080954  67.5884867
 112.7522469  33.9982033  67.4413157 114.0769958 101.8714619  21.6442060
 113.6453342 101.0387802  21.4530706 114.8127365 101.9057083  21.0328650
  43.7332582  51.0616636  26.8779731  44.3347311  51.7955446  27.0040131
  44.2222929  50.4413080  26.3373876  95.1947498  39.7541380  40.4971123
  95.0807762  39.4264674  39.6049953  94.3033123  39.8562908  40.8304691
  53.5953093  28.4647346  18.6641896  54.4877625  28.3700109  18.3313465
  53.6947250  28.4766912  19.6161389  61.4578962  18.3960640  19.1140234
  60.5494881  18.6297464  19.3048489  61.9424057  18.6596096  19.8963451
  15.2573395  23.7900400  26.7220306  15.6168234  23.7274837  25.8371067
  14.3709540  23.4368110  26.6459990  47.2521019  64.1147137  30.1047897
  46.7017555  64.3049717  30.8644938  48.0152559  64.6821260  30.2137566
  44.7282648  34.3518138  32.9851174  45.4808903  33.8408995  33.2830286
  44.1432953  34.3802929  33.7422347 111.1409283  14.2031372  17.7408862
 110.7238770  14.9769664  17.3620868 112.0597363  14.4516563  17.8422213
  89.9232292  18.0597413  26.1662364  89.3659306  17.5187159  26.7256546
  90.8021450  17.6991057  26.2832117  82.4004078  76.9181442  84.3550682
  83.0310249  77.2548008  83.7185097  81.9733524  77.6998138  84.7055626
  45.7204819   2.3519059  52.9138184  46.2567043   1.9401544  52.2362041
  46.2836981   2.3687665  53.6875963  40.8605719  52.6752472  48.2673025
  40.5574465  53.4841537  47.8549767  41.6039419  52.9452419  48.8065004
  80.2371407  64.7416258  31.3498616  79.9471331  63.8598156  31.5833974
  80.7608795  65.0275803  32.0983028  11.1838472  10.1062226  65.4905510
  11.6197574   9.2556119  65.4388189  10.4153955   9.9485844  66.0390615
   0.2725569  12.1893966  39.7908854   0.5629871  11.3060439  39.5637941
   0.1613076  12.1680105  40.7413578  24.0948534  51.4455080  56.6278887
  24.3564510  52.3412180  56.8412066  23.3524299  51.5481758  56.0324907
  83.0690479  53.3839750  54.6457195  83.7909126  52.8136921  54.9101639
  82.2841167  52.9434252  54.9713421  63.8141680  33.4114933  28.0710602
  62.9636717  33.8169336  28.2398915  64.2741585  34.0418077  27.5166726
  21.2667012  17.3876071  44.1257477  21.6746497  17.7944517  43.3613586
  22.0006204  17.0392168  44.6319294   0.9867814  56.2524509  15.7366765
   1.2694930  57.1437550  15.9413254   0.1581948  56.1505318  16.2049592
  31.0058331  21.5802288  12.5928736  31.6539454  21.8036604  13.2608998
  31.5200210  21.4396763  11.7978334  32.3410606  29.3770337  44.6700287
  31.6336131  30.0211072  44.6397543  33.1204557  29.8874855  44.8896074
  68.6127663  48.6746979  38.1825304  69.4266319  48.4647369  37.7245212
  68.4816599  49.6091461  38.0217481  51.7780972  72.3048687  28.1196094
  52.0349789  73.1319714  28.5272169  52.3350954  72.2368526  27.3441362
  49.3911886  20.9797144  34.2561531  49.8458099  20.9682822  35.0984216
  49.1094208  20.0745583  34.1237593  74.3437099  41.8891191  22.7552104
  74.3224382  42.4697304  23.5159135  73.6713505  42.2370577  22.1694589
  13.1511486  58.2003355  58.6822224  13.1453907  57.9940605  57.7475309
  13.0949247  57.3487997  59.1157675  49.1441774  32.9118633  30.9839320
  48.7080669  32.3568392  30.3374124  48.9765024  32.4806070  31.8218684
  85.3539371  46.7410517  17.7366030  85.5330276  46.4169025  18.6192596
  85.8783245  46.1806059  17.1646404  57.3743010  31.4985967  64.5907259
  58.2199144  31.8190122  64.2768764  56.8091726  32.2711587  64.5872927
  48.7537527  34.8071766  52.4287748  48.0163908  35.3204346  52.0984793
  49.0728092  35.3037858  53.1823063  34.0281558  51.5909767  30.9705234
  34.0639544  51.7077494  31.9198990  33.6382604  52.4019003  30.6439996
  44.1040087   4.9385169  77.2344637  44.1303015   4.1226697  77.7343988
  44.4316959   5.6020844  77.8415346  46.3257694  45.6031322  17.3201931
  45.4556322  45.8475971  17.6353586  46.3303900  44.6463394  17.3476768
  68.2338190  20.3628159  65.2657795  68.8011980  21.1141968  65.4382420
  67.9969740  20.4484987  64.3423128  17.2087860  45.0437927  57.9057741
  16.5279341  45.7099009  58.0004883  16.7833483  44.3329477  57.4262571
  42.8627205  42.1296501  43.8167906  43.6124516  41.7801142  43.3351707
  42.6067400  41.4217663  44.4080734  54.6056223  43.1726980  40.7335186
  54.7677660  42.2861052  40.4111958  54.8814392  43.7426901  40.0156975
  39.2316222  37.9153752  25.3611946  38.3958912  37.9831266  24.8994637
  39.3161368  36.9846535  25.5681849  30.2417660  19.3332183  40.2970171
  29.9140501  20.1334429  40.7074738  30.7934332  18.9291048  40.9667826
  70.2362728  47.1336555  36.5174770  69.8183107  47.7617884  35.9284234
  70.6536961  46.4996195  35.9343934  18.9718425  26.4522457  36.2231207
  19.7907948  26.8177247  35.8884954  18.9009583  26.7983150  37.1127510
  31.9604158  35.1578450  32.6368499  32.8424549  34.7907162  32.6956320
  31.4954734  34.5699525  32.0414996   2.3047814  42.4694920  46.3579226
   1.6485879  42.3998070  47.0513105   2.4411739  41.5682268  46.0657835
  38.1533837  25.6300187  34.9819040  38.8164687  25.1132822  35.4396534
  37.6627803  26.0630059  35.6805205  88.1804657  95.0938320  94.3736362
  88.7356949  94.7072220  95.0507545  88.4219933  94.6297550  93.5720539
  40.5095387  19.4673383  57.9826975  39.8335195  20.1174855  57.7915478
  41.2738037  19.9842870  58.2374430  51.1756468  45.2031517  41.8172598
  51.2992048  45.1227331  40.8714819  52.0549822  45.3603792  42.1611738
  42.8698206  30.4298186  85.4522514  42.8712559  30.4367971  86.4094257
  43.2519817  31.2721682  85.2060127  42.2106934  60.8593941  82.5611305
  41.5840721  61.2005997  81.9230366  41.7284822  60.1780844  83.0296516
 104.7885609 105.4774570  59.7309589 104.0061569 104.9264145  59.7513771
 104.7389603 105.9937477  60.5354548  12.9948151  49.1490269  21.3827467
  13.3507478  48.2722092  21.5267444  13.6444712  49.5834494  20.8300638
  70.2328444  19.6079862  55.5216694  70.6673098  19.0324128  54.8922300
  69.4392538  19.1344714  55.7711267  20.7236481  29.7577834  37.0789695
  21.3481021  30.1843643  37.6657534  21.1991239  29.6589470  36.2541151
  59.9152279  37.6526833  29.5381808  60.6851959  37.2890663  29.9754024
  59.3321180  37.9080033  30.2530432  78.4649181 106.8023682   4.6598214
  77.5534868 107.0247078   4.8497835  78.6820459 107.3223591   3.8860685
  29.9410725  38.7035298  38.8434935  30.3578234  37.9447412  39.2518902
  30.0224876  38.5442734  37.9031515  79.4578648  75.0962210  93.6362839
  79.2006159  74.9802399  94.5509434  80.2855587  74.6218061  93.5582638
  50.3514242  29.5381713  63.7374210  49.8361063  29.6130109  64.5405865
  51.2506676  29.4129753  64.0406036  77.9192448  18.8911998  38.5212803
  77.9016876  18.4666431  39.3789959  77.3696232  18.3361888  37.9680133
  48.8048553   8.8698167  21.9069600  48.8301516   7.9757035  22.2477746
  47.8783941   9.0324116  21.7295980  33.0055737  43.0070162  17.7200222
  33.7314868  42.9454947  17.0991373  32.9122734  42.1202230  18.0680537
   8.9252990  43.3866835  29.5706606   8.1706381  42.9303551  29.1985297
   9.6109033  42.7201080  29.6137619  29.5516729  15.1670694  24.7732973
  30.0573111  15.4052877  25.5503535  29.6383858  15.9214783  24.1905618
  32.0415616  21.2808061  41.6940165  31.4928317  20.9362602  42.3985863
  31.4844894  21.9174027  41.2460756 109.4644070  32.0902085  29.2897367
 110.3084183  31.8646646  28.8985658 109.5872021  32.9765153  29.6297526
  43.7480497  34.7558284  39.3740082  44.0289593  34.0468597  39.9525285
  44.4482470  35.4057050  39.4341445  38.8768244  37.5877595  57.8421736
  38.1751204  37.8232312  57.2352219  39.1906285  38.4257030  58.1821918
  57.8879070  29.6728754  58.7350178  57.5356865  29.3672013  57.8991127
  58.5956860  30.2700019  58.4926939  46.3654137  49.0164375  57.5749350
  46.2603045  48.9635420  56.6249943  47.2941732  48.8386774  57.7234125
  32.8888583  28.5680580  80.2128792  32.5655937  28.6600089  81.1091328
  32.1031260  28.6183524  79.6685171  45.6262779  18.3616531  23.4490919
  45.8140421  18.3735120  24.3876219  45.7672310  19.2648530  23.1652021
  50.4778528   5.3485036  29.1301441  49.7223854   5.5249274  29.6908355
  50.2735186   5.7914382  28.3065629  18.7668371  50.4694700  56.7487288
  17.9075277  50.8276367  56.9713020  18.5750389  49.6344566  56.3218832
  26.0512877  39.3732643  51.4714670  25.2213049  39.7110629  51.1349344
  26.3714409  40.0618029  52.0542574  28.2721066  36.8416953  62.9497385
  28.5083532  36.3687348  62.1517849  28.3230615  36.1831141  63.6424923
 115.8101273  29.0802264  40.9471083 116.2946796  28.6210084  40.2611351
 114.8912716  28.8856125  40.7625437  34.6063256  27.9945874  50.5120277
  34.4950509  28.6879945  51.1624384  35.4530072  28.1805778  50.1061106
  47.9662704  35.6729531  30.7053876  48.6799479  36.0838461  30.2174664
  48.2732677  34.7821641  30.8741426  53.4169483  25.8613634  52.9888344
  52.7700472  25.6587124  52.3130512  54.0740633  25.1702642  52.9062986
  57.9741192  17.3283100  50.8824396  58.8709879  16.9938636  50.8809233
  58.0734253  18.2799852  50.9086275  51.8598747  50.0100517  40.0938082
  51.3541222  49.7703695  39.3172789  51.7204809  50.9522533  40.1890135
  24.4515491  33.3379579  65.5949450  23.5320759  33.3838415  65.8570480
  24.9379301  33.3872628  66.4178848  56.1636925  24.7975397  37.7445889
  55.4433823  24.6622348  37.1288943  55.8720255  25.5211544  38.2991552
  45.9377384   6.5793562  10.2764285  46.4409447   5.8404356   9.9343580
  46.1834192   7.3160118   9.7167760  37.0280457  16.6593182  22.0756984
  37.7321291  16.0131872  22.0208097  36.9433045  16.8423080  23.0114150
  21.4542460  33.5911036  66.0573769  21.3704157  33.1290913  65.2232599
  20.8797932  33.1125283  66.6550446  63.1655931  43.9823484  40.8464146
  64.0446424  43.9716578  40.4677534  62.7176285  44.6957064  40.3917933
  52.4116945  22.2256494  58.5991430  51.9872570  21.5406227  58.0825949
  51.7676115  22.4539685  59.2694139  23.5364485  34.2554760  18.6611748
  23.9606214  34.9655795  19.1429031  23.1773424  34.6768498  17.8803289
  46.7973566  23.7695193  28.1043839  47.5293970  24.0514922  28.6528802
  46.5993452  24.5309806  27.5592232  55.0278187  48.9352703  37.2055888
  54.6753693  48.5563755  36.4003253  54.5778656  48.4659147  37.9080701
  78.5034752  58.5578251  25.1679754  78.8174438  59.4588089  25.2446866
  79.0477228  58.0616522  25.7793951  47.5639296   5.6331176  54.7640467
  48.1202793   5.0297683  54.2714262  46.7472124   5.6666690  54.2659664
   3.7502861  35.6386852  48.4566212   3.6516157  36.4235806  47.9177046
   3.6205739  34.9119377  47.8473234  45.5068684  53.9447737  32.5965405
  44.7107315  53.8286495  33.1151128  45.4874277  53.2267761  31.9638205
  49.0254927  46.3207579   6.0498369  49.1561651  46.3637590   6.9971001
  49.0174770  47.2353029   5.7674003  14.1506660   7.4739373  32.7875829
  13.4243536   6.8738145  32.9565620  14.2411041   7.4781895  31.8346739
  57.1935987  25.6114984  41.5883017  57.1322346  25.0897932  40.7881212
  57.6187992  25.0317311  42.2202063  31.4127159  42.1824789  72.4603653
  32.2833300  41.8787098  72.2034836  31.4225745  42.1563292  73.4171581
  40.4135036  28.3523250  71.4762592  39.8251009  28.5237646  70.7409906
  39.9195695  28.6293936  72.2479439  39.0408158  36.0242701  46.2723827
  39.4419193  36.0711741  45.4045439  39.6600056  36.4743543  46.8470621
  58.8371658  17.2958100   1.8782610  58.9100504  16.3652444   1.6662058
  59.4825459  17.7213550   1.3137928  21.7911434  68.1563044  37.2673821
  22.3632431  67.7532578  37.9204416  21.0231709  67.5857544  37.2369647
  23.8877678  36.4859843  46.2663698  24.6617818  36.4513421  46.8284512
  23.6413264  35.5695367  46.1413765  18.3641946  25.1239252  39.6830821
  18.1549466  24.4626284  39.0234327  18.7583482  24.6292377  40.4015255
  45.6909180  50.3649282  34.4550920  44.8518515  49.9053144  34.4242144
  45.8300591  50.5472898  35.3843999  49.2594862  49.6492815  46.0682631
  49.9465036  49.2553091  46.6058779  49.5778084  50.5326605  45.8823919
  51.3449240  41.8461037  32.5289774  50.8512831  41.6559696  33.3267260
  50.8050585  42.4816322  32.0589995  63.7189388  42.0070124  60.9392786
  63.5527563  42.9388762  61.0815525  63.3295774  41.5754414  61.6997910
  19.7921491  14.2754340  53.3033323  19.9450302  15.2126348  53.4238052
  19.1121864  14.2281199  52.6312876  60.5650282  13.6116779  22.4298596
  60.6657028  13.2106006  21.5665889  60.6487846  12.8823137  23.0440617
   1.1674332  12.9172409  59.0175629   1.0905372  13.8528049  58.8303804
   0.4311940  12.7280653  59.5992851  32.5448561  23.2034659  65.1251030
  32.3362207  22.6027179  65.8405066  33.3892560  22.8975415  64.7939968
  29.4950891  49.3638802  24.9744225  29.4759178  50.2977133  25.1837683
  29.7246313  48.9379358  25.8003259  42.3883104  49.9980354  21.5671110
  42.1614790  50.2181625  20.6636047  41.8228531  49.2562342  21.7820883
  58.3100462  48.4248829  66.1901712  57.8934813  48.6033392  65.3470516
  58.5990095  49.2828846  66.5009260  59.4697523  30.4701614  51.7672205
  60.2066278  29.9863291  51.3941908  59.2665672  31.1388421  51.1131477
  46.5354204  58.7193584  20.8080673  45.6811190  59.0834284  20.5760002
  46.3605642  58.1632853  21.5673018  40.3040457  39.8152876  66.7488527
  40.4071617  38.9046049  66.4727116  40.0042772  40.2715111  65.9625769
  31.8153381  26.5115833  44.7928286  32.5356817  25.9674978  44.4745350
  31.9752336  27.3717713  44.4045782  54.6307755  39.4848394  58.8991976
  55.3995323  39.3375802  58.3482313  54.9499083  39.3624592  59.7932959
  69.8718023  10.6420934  60.3743649  70.7050419  10.4465997  59.9457312
  70.1175833  10.9486783  61.2471914  22.3466468  14.0308583  17.5500715
  22.8074741  14.1139638  18.3849156  22.8567743  14.5644617  16.9407523
  52.9077196  19.3162024  54.5979929  52.7609444  20.2025747  54.2677879
  53.1137991  19.4369853  55.5249071  69.4181824   2.5828657  57.4003601
  69.2753506   2.4781515  56.4596844  69.1018677   1.7645688  57.7831984
  31.4349389   3.5096648  82.2863674  30.9531188   2.8756115  81.7552757
  31.5487957   4.2663741  81.7113400  34.8444104  43.1544542  64.3319082
  34.0263367  42.7771997  64.0083885  35.4196119  43.1708097  63.5669851
  13.0771601 105.2296066  10.3834331  12.3116744 104.6730423  10.5265749
  12.7178061 106.0471439  10.0388598  44.6596098  22.6596522  10.1714194
  45.3088331  22.1620607   9.6742851  44.6107340  22.2124815  11.0163355
  75.3139353  64.9506664  31.2058902  75.2307510  65.8946371  31.3409042
  75.8068991  64.8679972  30.3895664 112.8693676  74.7538471  11.4104021
 113.7042809  74.7630882  10.9423470 112.5435448  73.8604355  11.3013756
  40.9237814  46.1849117  47.3877907  40.5069113  45.9479380  48.2162189
  40.6651211  45.4902458  46.7821789  60.2548218  33.8208008  38.1636095
  60.4679966  33.6768723  39.0856028  60.8888245  33.2867575  37.6849985
 113.1092930  90.9573936  50.2252150 114.0349770  91.1450005  50.3806257
 113.0976391  90.0534248  49.9106789  22.6211500  27.1583796  40.0658178
  22.9566741  27.5991535  39.2851949  22.6991868  27.8110909  40.7615995
  31.4293337  38.6742234  46.5392160  31.5228891  38.6471891  45.5869865
  32.1572328  38.1457520  46.8664980  28.0096555  48.2432461  64.1370106
  27.8722429  47.2976160  64.1930389  28.8888073  48.3361912  63.7700176
  50.7260609  12.2445214  64.6877289  50.7506132  12.0964336  65.6330872
  49.9092579  11.8351400  64.4022989   0.3885297   6.8907768  60.5281544
   1.0728747   6.2861896  60.8151722  -0.2814719   6.3276172  60.1406240
  16.6913164   3.8834101  46.7233896  16.7935145   4.5256209  47.4257803
  16.8775451   4.3730119  45.9222412  19.5731711  20.5493045  53.5958433
  19.0189922  19.7759819  53.7011528  18.9870691  21.2173629  53.2402992
  25.2033997  19.2079663  38.4962535  24.3585992  19.6097910  38.6989427
  25.2150822  19.1436827  37.5412869  63.2518053  38.7237334  15.8567393
  63.3345318  39.4188333  16.5095961  63.9324331  38.0928087  16.0910749
  52.7114105  50.2453756  10.0840354  52.0652199  50.2060556   9.3789625
  52.8800440  51.1801243  10.2025151  53.8118124  62.3260450   6.0426718
  53.7910509  63.1177521   5.5050784  53.1197643  61.7725754   5.6807679
  77.5451231  76.3426781  36.6893697  77.9975843  77.0950174  36.3079262
  77.7590036  75.6139374  36.1067677  31.6877055  37.5689220  31.5875149
  31.8490553  36.7016816  31.9591236  31.7217684  37.4338269  30.6405091
  43.3892059   0.9766401   3.9359686  42.6881647   0.3894125   3.6532381
  43.1170177   1.2739965   4.8041421  75.4981661  43.3911371  51.8179417
  75.6311464  43.3779001  52.7657700  76.1217690  42.7485895  51.4795923
  98.4670162  86.9468498  12.5006127  99.1960239  86.5069962  12.9379988
  98.7602425  87.8522491  12.3982131  12.3151851  31.7507648  57.7715158
  11.6886854  32.2279310  58.3156109  12.4928153  32.3397326  57.0381689
  39.4574857  40.1257277  54.3903685  39.5640612  40.5065060  55.2620792
  40.1662588  39.4862485  54.3200493  42.7678156  47.3830843  45.7571554
  42.4104834  46.5365219  46.0252619  42.6348925  47.4099159  44.8096132
  56.8136692   5.8825159  46.0663223  56.7737341   5.1656079  46.6993141
  55.9431648   5.8996451  45.6686258  21.9964147  51.3488674  42.4388504
  22.5294805  51.6316271  43.1819010  21.2479019  51.9454908  42.4402571
  57.0400333  63.1874847  45.5429554  56.5957022  62.4158525  45.1916933
  57.9714060  62.9739761  45.4865026  29.2859721  48.8114071  30.2622294
  28.5033274  48.9799786  30.7869029  29.8908305  49.5134830  30.5019522
  61.0278845  46.5933943  37.8151798  61.5643835  47.2858286  38.2010961
  61.3717222  46.4904499  36.9278193  16.3019443  52.0614576  44.5526934
  15.4998779  51.5420675  44.4965076  16.9963610  51.4161587  44.6853733
  58.6277437  44.3787575  10.9830546  57.7901125  44.2423820  10.5403209
  58.3906412  44.7305775  11.8410981  31.9536829  70.6163073  24.7155428
  32.7528358  70.7340384  24.2020035  31.9771910  71.3231134  25.3606033
  53.4865856  60.6792116  30.0401616  53.1089306  61.4150238  30.5220222
  53.4760809  60.9612226  29.1255069  54.8644686  57.1068716  49.2850924
  54.3452024  56.3109112  49.1708565  54.6704531  57.3933792  50.1775646
  41.8378401  52.1845293  35.9815240  41.6308928  52.7385902  35.2289152
  41.7479324  51.2901783  35.6524563  41.9345474  37.6734185  32.6803041
  41.8631124  37.5925541  33.6314034  41.1858034  38.2142138  32.4289966
  63.5773277  38.6435056  12.6864064  63.2366419  38.8849735  11.8250954
  62.8545666  38.8212252  13.2882917  62.7251530  35.0791526  59.0949488
  62.9874516  34.2070937  58.8000917  63.3209896  35.2769613  59.8175001
  57.6055861  36.7082882  27.9899669  58.4649658  36.3939452  28.2708454
  57.6391172  37.6545691  28.1301737  62.1770906  51.5323973  25.7560182
  62.2821140  52.4324656  26.0643721  62.8399658  51.4345169  25.0724649
  81.3662529  24.9372792  16.1859143  81.0631657  24.0453053  16.3554728
  81.0035610  25.4542828  16.9052136  54.7310925  60.7936525  41.9871569
  53.9180660  61.2499619  41.7703629  55.0945187  60.5362225  41.1398745
  61.0370207  82.2241116  29.5247436  60.2171087  82.6077271  29.2136002
  61.1037159  81.3908291  29.0584517  57.3668432  67.1516752  20.8663678
  56.7326689  67.8163195  21.1352658  58.2150364  67.5105238  21.1271834
  60.7288074   0.1793499  57.3093700  61.0848618  -0.3067686  56.5656281
  61.4980125   0.5413833  57.7492380  47.4104023  68.2049084  30.9128118
  47.7112103  68.1237555  30.0077367  47.9481745  67.5812626  31.4007664
  75.4350376  60.7698154  25.0536728  76.1687565  60.7888937  24.4392419
  75.5029535  61.5952587  25.5335283  66.3143206  40.1935291  64.8882866
  65.5878830  39.8287749  64.3828440  66.0661983  41.1054087  65.0404263
  78.2009602  27.8773403   2.6076964  78.5338068  27.3278379   3.3172661
  77.7217102  27.2726989   2.0411608  42.1848154  32.1911716  45.4000282
  41.9935846  32.7397108  44.6392632  41.9620514  32.7392101  46.1525345
  47.1299505  40.9112406  43.2818222  46.9435501  41.3127899  44.1304970
  46.2906265  40.9229469  42.8217936  58.1582499  59.5296144  29.7350454
  57.6727438  58.7442636  29.4825768  58.8076925  59.2174864  30.3651452
  59.3812323  57.2936678  48.7449741  60.1714039  57.7553797  49.0254831
  59.4157839  56.4566565  49.2080545  36.6789365  32.3293614  45.7193518
  37.5451279  32.6283407  45.9960365  36.6093063  32.6090002  44.8065615
  68.6293507  37.1306014  31.2997365  68.9554501  37.9782128  30.9973311
  68.2145405  37.3199749  32.1413445  50.8081150  40.2446556  64.6766472
  50.1597595  40.4199791  65.3586483  51.6316652  40.1341438  65.1518154
  60.8712673  37.1569514  42.8294945  60.2888012  37.7343917  43.3229828
  61.7492104  37.3829794  43.1366777  74.1761971  56.5896988  13.0699241
  73.7026930  56.1020470  12.3959672  73.8703537  56.2151384  13.8959956
  51.8538713  61.3151073  33.5480666  51.2059402  60.6368876  33.3571911
  51.4508820  62.1256876  33.2369542  38.4648347  33.6440325  34.5971489
  38.5999465  34.2635775  33.8801146  38.5800099  32.7831817  34.1947818
  45.0092602  45.3191566  55.5749655  44.1019964  45.5177402  55.8066416
  45.2029896  45.9042168  54.8425722  67.7831697  42.4547005  43.5302114
  66.8921185  42.3497868  43.1966686  68.2019043  43.0524826  42.9109001
  46.5098286  50.5082178  19.7379565  47.0351696  51.3072872  19.6962798
  45.6424332  50.8058786  20.0122857  26.0617876  68.8083029  15.8036816
  25.5539322  68.9897156  15.0128567  25.5230188  68.1904173  16.2978280
  61.7665815   7.5407815  40.5373335  61.3226414   8.3881837  40.5048323
  62.6810360   7.7563310  40.7204866  48.3216810  48.1633139  31.7663956
  47.5538158  48.6377096  31.4477015  48.6350203  48.6840296  32.5059271
  64.0210390  41.1584330  29.5930171  63.6223841  40.4838705  29.0432239
  63.3161783  41.7866516  29.7503185  69.0355015  12.8496623  35.4902029
  69.5073271  12.2574735  34.9046040  68.3572340  12.3034823  35.8875370
  76.8062353  67.0952415  20.7192850  77.6358461  67.2708750  20.2752924
  76.4199018  66.3707876  20.2272010  44.9836493  49.0975904  45.4093790
  44.5121384  48.5527658  46.0395193  45.2014065  48.5013199  44.6929455
  68.8834047  11.6581440  71.1683607  68.5453033  10.7652724  71.0997915
  68.3911324  12.1516943  70.5123806  67.6493311  41.3290501  35.5164480
  67.3227835  40.6305122  36.0835862  67.6395369  42.1105289  36.0690999
  65.1264334  22.7498794   6.6359276  65.5294514  21.8916845   6.7675042
  65.2217054  23.1911707   7.4799758  50.0248814  25.6691241  63.0626965
  50.6528091  25.9707785  62.4062347  50.1551723  26.2570620  63.8067293
  75.6386614  29.0613937  40.6237555  75.9644175  28.2011485  40.3590012
  75.1528072  29.3782568  39.8623276  28.5463238  22.3828125  14.7275078
  28.6035872  23.3382010  14.7139919  28.4222388  22.1373129  13.8106847
  54.5729923  37.1434259  35.6773376  54.3537140  36.4966583  35.0066352
  53.8506842  37.7709341  35.6501937  52.1664143  63.7295055  39.9001598
  53.0970716  63.7765455  40.1189947  51.8012667  63.1156063  40.5373669
  84.0679073  73.3187580  14.5631957  83.4946537  74.0574980  14.3585670
  83.7106133  72.5904322  14.0551424  81.9178104  74.5929193  76.3864660
  82.5698471  75.2565145  76.1612701  82.1733856  73.8235903  75.8774996
  72.8572416  64.5873976  32.9102898  72.1889591  64.8610067  32.2819829
  73.6775541  64.6233463  32.4183273  87.9354572  69.1465759  61.5757179
  88.0216694  68.2449770  61.2660170  88.6971569  69.5984316  61.2125587
  69.1680145  91.9263363  31.0454774  68.4103394  91.4085388  31.3175917
  69.3867016  91.5919876  30.1756430 111.6751480  61.6520262  39.7748709
 111.3646317  60.8007002  39.4665694 112.5617409  61.4825726  40.0934362
  86.3885784  64.0489006  45.2110004  86.3537312  64.4351101  46.0861349
  85.9402752  64.6829748  44.6513557  92.4747181  84.8986340  67.9660034
  93.0734634  85.2345562  68.6330032  92.3605156  85.6284332  67.3572493
  73.4927559  73.5351706  38.6577559  74.0459204  74.3147802  38.6082792
  72.6072025  73.8589716  38.4928918  41.3720083  51.4943695  78.8370705
  42.2765160  51.2306452  78.6681223  41.0089970  51.6742182  77.9698277
  77.2553015  63.7407207  61.9541073  77.3667002  64.6895981  62.0129061
  76.4866829  63.5558987  62.4938250  67.1191120  83.0684280  17.9845655
  66.4341784  83.7352943  17.9356563  67.4710274  83.1511021  18.8708806
  69.3604422  72.4407148  57.4836159  68.5777187  71.9293547  57.2784662
  69.1956186  72.7899694  58.3594513  99.7343636  64.3861198  28.5278726
  99.3030643  65.2400303  28.4953713  99.4515610  63.9443254  27.7272034
  80.1463795  58.5102367  44.6932983  79.3491983  58.3490038  44.1885805
  80.7814121  57.8847885  44.3443298  87.5036049  80.9310722  79.9730539
  87.8778553  80.7812595  80.8412266  88.1134605  81.5357971  79.5504332
  71.9957447  69.9857044  25.7464862  72.7940989  69.6143770  26.1219621
  71.5184450  70.3369904  26.4981627  57.6687574  77.7760172  35.8282089
  58.0575132  77.8336620  34.9554086  58.3743858  77.4439716  36.3832474
  83.3859348  81.3567829   6.7235672  84.3148899  81.1909962   6.8841183
  83.1078911  81.8975639   7.4628085  68.7027788  69.9283314   9.2058432
  69.1113520  69.0631676   9.2339069  67.8505611  69.7775984   8.7968934
  67.8479671  67.6021957  27.3942375  67.6218510  66.7923260  26.9368410
  67.1376753  68.2060862  27.1773529  90.0022507  63.5083675  59.2560720
  90.0225353  62.5808191  59.0205336  89.1381454  63.6373472  59.6471071
 115.4818153  80.7471657  75.3369808 116.1783791  80.7154179  74.6812153
 115.7076454  80.0563812  75.9599113  70.8824205  71.9109678  48.9476538
  71.4917469  71.2311697  49.2354393  71.4276791  72.6897430  48.8361502
  85.8361912  37.4424267  47.0799017  86.1310482  37.0242596  47.8888702
  85.4267311  38.2584167  47.3675394  66.7513514  50.9026670  12.8613019
  66.9222641  51.4714956  13.6119401  66.8979025  51.4621210  12.0985651
  70.8231878  93.5258675  13.5583341  71.1268806  92.6653671  13.8473666
  71.5807056  93.9119434  13.1186211  80.8723736  83.9615822  45.4826880
  80.7319260  84.0547752  44.5404434  81.7463589  84.3225002  45.6314230
  60.9525299  83.3176041  47.5632238  60.3019190  82.7080441  47.2148323
  61.5934467  83.4123516  46.8586111  70.9058714  64.9025917  58.5060501
  71.7908525  65.2043247  58.3011150  70.4761887  65.6655979  58.8926125
  76.2919331  68.4495974   2.3533423  77.0677948  68.9744186   2.5503957
  76.3463593  67.7066278   2.9544011  66.1796570  64.3545914  31.7507982
  65.8311081  64.6780109  30.9200501  66.8788338  63.7514448  31.4986038
  99.9119377  55.3255415  36.1309028  98.9877701  55.3765583  35.8869100
  99.9537945  54.6068287  36.7617202  89.7628784  92.5670052  42.3738098
  88.9230728  92.8345203  42.0004559  89.8774147  91.6625404  42.0821619
  64.3761110  80.3075314   9.2104405  65.1418686  80.2334118   9.7799611
  64.4876671  79.6078444   8.5668361   2.8748572  75.2930021  20.7890272
   3.5390255  75.0130892  20.1591372   3.3705559  75.5138350  21.5775371
  98.3928967 102.4996281   7.2549993  99.0327740 101.9091892   6.8572891
  97.5640011 102.2740269   6.8327695  92.5292873  83.5306549  60.5977106
  92.2112179  83.0271339  61.3470602  91.9683743  83.2590580  59.8711777
  98.8816261  68.9007616  36.8416452  98.1354141  69.4983053  36.7933035
  98.7669754  68.3134699  36.0945368 109.3118000 107.4601936  44.6740770
 110.0537586 107.9818726  44.9800110 109.6985054 106.6250515  44.4109583
  96.8686485 100.8773518  76.9307327  97.7818394 100.8156395  77.2109270
  96.8102837 100.2938175  76.1742258  55.9567118  70.1581573  33.8803077
  56.1948729  70.2039289  34.8062754  56.3349438  69.3331099  33.5762191
  82.3377991  98.4987640  61.3232088  82.2284508  98.2588387  62.2433758
  82.7279186  99.3725014  61.3482428  72.0145082  98.4591103  50.9905910
  72.9212093  98.1987762  50.8282757  72.0391893  99.4158649  51.0063601
  94.1675091  41.7126274  43.2689714  94.8741722  41.4920521  43.8757753
  94.5931053  42.2256613  42.5820208  82.9427338  15.2015865  14.3362606
  82.4641514  15.8788621  14.8142648  82.9829121  14.4628310  14.9435961
  61.1711884  99.0734673  54.7374105  61.1797142  98.2530403  55.2304173
  62.0340967  99.1141319  54.3251371  81.3998604  57.4824142  52.6463938
  80.8593655  58.0363894  53.2096100  82.1760750  57.2907925  53.1727076
  82.9258347  63.1269789  15.6936967  82.2613716  62.5544214  16.0769868
  82.7402782  63.9902020  16.0633612  90.1013470  87.2216702  58.9451742
  90.6282043  88.0162621  58.8598204  89.2481613  87.4598789  58.5824680
  69.5291758  75.5770588  88.3016872  68.8040733  76.1960316  88.3873081
  69.4288683  75.2107000  87.4230862 101.5664864  88.4309196  42.5178528
 100.8939362  88.2179832  41.8708944 102.2435284  87.7670670  42.3868990
  41.1656523 108.8201523  35.6904411  40.4149008 108.2861614  35.9501719
  41.2888336 109.4300842  36.4177918  73.7603140  69.5885563  73.3892870
  74.1678667  70.1356459  72.7178478  74.3079042  69.7129440  74.1644669
 100.5143166  72.3101282  37.1528530  99.7980690  71.8311405  37.5697327
 101.0113716  72.6803589  37.8823018  78.2793331  90.2719498  47.3671484
  78.0335236  89.7011948  46.6391134  79.0936232  90.6865597  47.0820808
  67.5875425  74.7355556  59.5130730  66.9957590  74.2756701  58.9176464
  67.2218704  75.6175995  59.5802832  66.3145399  87.2817707  21.1878204
  66.0818243  87.1792221  22.1106195  66.5132189  86.3937759  20.8908010
 100.8380985  92.8823566  15.3119183 100.9545803  91.9399834  15.1910877
 101.6355991  93.2703781  14.9518263 100.7790184  62.4606991  73.8772726
 100.3518581  63.2222557  74.2694521 101.6780376  62.4956465  74.2040253
  71.7222166  70.2593708  57.2314930  71.3599968  70.8247519  57.9136801
  72.6474047  70.1705170  57.4603081  75.4965210  73.1499147  49.0963745
  75.2618217  73.4542513  49.9730349  76.4377880  72.9828835  49.1448402
  91.4739799  74.0094709  41.4917231  91.3550949  73.1099844  41.7967081
  90.5857563  74.3257856  41.3266754  90.1980019  62.2965002  47.3693371
  89.9098587  61.6801643  46.6960287  90.4660702  61.7423725  48.1023550
  77.8852940  71.3898659  50.7295227  77.1316338  70.8007860  50.7643843
  77.7858782  71.8571472  49.9000645  67.7707672  94.7145176  68.8111448
  67.2446489  95.4754353  68.5653162  67.7227592  94.6887779  69.7667933
  74.2293692 106.2778664  27.1001959  73.6804676 106.5116215  26.3516665
  73.6574936 105.7556343  27.6627517  78.6462021  93.0593395  65.7271194
  79.2738199  93.5877895  65.2340937  79.1539526  92.7022648  66.4557600
  79.0558481  42.7631140  48.9960384  79.9457788  42.6482582  49.3292952
  78.7061119  43.5005236  49.4961834  87.7861404  63.7923813  54.3778610
  87.5268841  64.2538738  55.1753807  86.9590378  63.5372305  53.9691687
  80.4020882  87.7134514  31.5743852  80.4488468  88.4181118  32.2205257
  81.3054848  87.4098492  31.4852977  81.6698551  13.7447512  52.6670742
  81.9443607  14.4595957  53.2414246  80.7759094  13.5444295  52.9444838
  72.1116829  77.4144602  37.7096438  71.9445419  77.6355839  36.7934537
  72.7083683  78.0974197  38.0158544  57.6433277  74.6182823  60.3326941
  58.0973101  74.7906923  59.5078278  57.8378963  73.7012243  60.5260324
  66.2523746 105.0033092  18.4619820  67.1000910 105.0628090  18.0214524
  65.7284355 105.7010365  18.0684090  82.8676701  84.9072742  27.4127364
  82.6010132  85.4788017  28.1327868  82.9782009  85.4971600  26.6670513
  60.7729673  57.4266863  62.5047588  60.9307194  58.3247375  62.7960443
  59.8373842  57.2879887  62.6519918  65.7326412 108.2090282  19.7742021
  65.3389406 107.8089428  18.9988518  65.6627417 107.5369453  20.4521775
  66.8377876  91.4152622  24.6999359  67.4808311  90.9006691  24.2121673
  66.6694164  92.1766090  24.1447544  91.6499615  60.1193047  56.0187435
  92.0233631  60.2603006  56.8887568  91.3893414  60.9924412  55.7255793
  29.5243979  79.8550034  74.4758034  28.8122392  79.3202877  74.1248941
  30.1271439  79.2234278  74.8682833  73.0459547  90.3910732  65.9504938
  72.3922825  90.1435566  66.6044617  72.5340700  90.7352448  65.2185440
  73.6733961  86.9239330  54.9741220  73.1193495  86.3603592  55.5141735
  73.9847946  86.3521862  54.2724276  71.2618303   0.3324129  37.5644803
  71.1132526   1.1788554  37.1429467  71.1460304   0.5064214  38.4985805
  66.3172150 101.1146164  45.4202509  67.1602964 100.8541870  45.7912350
  65.9186459 101.6649818  46.0943937  75.1292467  79.8597527  88.7917042
  76.0366726  80.0821114  88.9999485  74.6968508  79.7957850  89.6432781
  85.6755924  89.8232937  24.6983123  85.6170845  90.7784367  24.6756530
  86.2936211  89.6378994  25.4053545  66.0719728 104.8316765   6.9305480
  66.0585070 105.6317234   6.4052105  66.8598080 104.9114799   7.4682957
  82.2427082  75.2574253  34.1139507  82.0923328  76.1693907  33.8650846
  83.1874847  75.2008104  34.2568564  67.5520420  72.9150295  47.0946884
  68.2120228  73.3822441  46.5824652  67.3451757  72.1415138  46.5701771
  73.6888361  66.9739246  45.4199553  74.0813875  66.5145731  46.1623383
  73.4440613  67.8303432  45.7704782  88.2263947  69.8515844  28.6946750
  88.3830452  68.9252186  28.5115361  87.6063061  69.8500538  29.4238639
  92.6423359  59.6104288  48.3237267  93.2744122  60.1751137  48.7685204
  93.0928707  59.3266964  47.5282717  91.0386276  80.4449654  75.3648996
  90.5204201  81.1353588  75.7784796  90.3974819  79.7767973  75.1226044
  60.3497267  80.6700802  27.0635438  59.8632812  80.0489044  26.5215611
  59.6979189  81.3196278  27.3271060  62.3386669  76.9915485  26.0715532
  62.8313732  76.1761236  26.1640406  62.8368425  77.5012445  25.4325962
  79.8404455  76.8920612  67.5547838  79.4264793  76.0806656  67.2606707
  79.7400951  76.8807888  68.5066414  74.0988398  80.2326870  27.3962116
  73.5077143  80.7854080  27.9073977  74.0556097  79.3769741  27.8229594
  57.2634554  94.8279285  27.8266144  57.3556995  94.4862270  26.9372511
  56.4094067  94.5089817  28.1183505  51.0787916  81.1051655  18.3846879
  50.4583597  80.7299328  17.7597916  51.9375277  80.8277798  18.0655289
  40.5399656  72.0045805  10.5828810  40.4554796  71.7449665   9.6654421
  41.1726999  72.7227354  10.5712819 115.3788185  24.9635077  53.5276842
 114.9772453  25.3288484  54.3160343 115.3170872  25.6656361  52.8800440
  71.2339163  85.4769897  43.4915257  70.3367186  85.1702976  43.3603621
  71.2083483  86.4027691  43.2496452  83.1704426  62.9556561  64.4610500
  82.6290989  63.6844158  64.7645044  83.3424664  63.1522942  63.5401964
  71.3048840  63.6809206  43.3915997  72.1388674  64.0589094  43.1126356
  71.4034605  62.7416945  43.2355022  59.0337753  48.3215046  14.5434630
  59.0266609  48.6301136  15.4495215  58.5847759  49.0096855  14.0525055
  82.0715332  82.1032906  58.7109804  82.6121140  82.7458954  58.2515717
  81.2047863  82.5070858  58.7549257  78.1613016  93.9250946  54.7772360
  77.3025560  93.7539005  54.3906116  78.5229445  93.0561829  54.9517059
  76.9814682  74.1458702  38.5265636  77.3646307  74.5958090  39.2795348
  76.8983650  74.8258686  37.8580379  60.3638649  79.7183657  32.0194793
  60.5227566  80.2736664  32.7827835  61.1824036  79.7518253  31.5243983
  66.2675285  90.2372837  48.0152130  65.6387186  89.5205688  48.0997324
  66.3220978  90.3981972  47.0732164  73.5486507  36.5373731  21.4282966
  73.4202766  35.6547737  21.0807776  72.6871395  36.7924595  21.7583966
  78.1885576 106.5082073  68.2888842  79.0357018 106.1929417  68.6038256
  78.3229446 107.4434662  68.1356859  90.7238770  77.8457928  53.7825727
  90.3062725  77.7445269  54.6378994  90.2327442  77.2609711  53.2055092
  16.2919676   5.4888111  34.2248607  15.8001292   6.1860752  33.7910986
  16.6568875   4.9710089  33.5072637  63.8617611  88.2147121  26.7558861
  63.8956976  87.4878788  27.3778152  63.0064392  88.6177444  26.9049478
  67.2461653  99.0212154  12.6899993  66.7055655  99.6446133  12.2048581
  68.1117010  99.4287395  12.7217388  17.7793169  36.7661572   5.5602556
  16.9774866  37.1587253   5.2150154  18.3000815  37.5106907   5.8614278
  61.3455677  85.3355217  49.5885658  62.1975565  84.9228001  49.7300196
  61.0266733  84.9526119  48.7713051  70.0212383  83.4729576  23.1041121
  70.7930946  83.1171131  23.5443807  69.7512436  82.7824974  22.4986458
  53.8618660  75.3195047  74.0196419  53.0346251  75.4135466  73.5473537
  54.5149946  75.7096958  73.4387732  96.4233589   2.2018191   3.7759718
  95.5518150   1.8070406   3.8040337  96.7859364   2.0440710   4.6476880
  72.7564526  80.6577492  60.8324289  72.9816103  80.1175690  60.0749683
  73.3969498  80.4127216  61.5002298 109.0432072  52.6672077  36.1887455
 109.2068481  51.8018627  36.5637517 109.7217274  53.2251883  36.5688753
  73.7637186  82.8838634  51.8227291  74.4783211  82.6990891  51.2132740
  73.4037590  83.7188721  51.5236855  71.3375282  78.3955860  70.2395916
  71.5471745  78.9593792  69.4949961  70.8950043  77.6408005  69.8513889
  16.6205382   8.7285525  54.9338531  17.3765945   8.7513632  55.5204487
  16.8108618   9.3932164  54.2718649  71.0426569  89.4212818  56.7687559
  70.5475140  89.8158264  57.4866676  71.0248423  88.4821892  56.9532251
  75.6075478  77.9203224  38.0147600  76.2591124  77.3297024  37.6367950
  75.6246948  77.7275038  38.9521837  63.3476686  99.6148205  48.8014984
  63.1705236 100.4933548  48.4653139  64.1437721  99.7141743  49.3235922
   0.9594876   0.0748699  66.6954994   0.5459112   0.8595450  66.3356781
   0.5938901  -0.6454686  66.1820030  65.7497978 100.3217220  66.4262152
  66.6266870 100.7015228  66.4814234  65.4834270 100.2006054  67.3375940
  69.7051001  61.1550951  24.6022248  70.3848886  61.8104887  24.7589993
  69.0249968  61.3569880  25.2448177  75.9543133 101.3507462  45.8451796
  76.5739250 101.3848591  45.1163769  76.4999104 101.4322758  46.6274261
  82.3534203  84.4005966  71.2709904  82.4805260  85.3007984  71.5705013
  81.7190933  84.4727802  70.5577898   4.4405669   6.9409847  50.6040716
   3.9342764   6.1558527  50.8125639   4.7015131   7.2909319  51.4559364
  92.0395947  92.5426292  73.0805969  91.1138248  92.7668762  73.1749010
  92.1879864  92.5305271  72.1350431  72.0526361  76.3235807  22.7599692
  72.6064587  75.5428696  22.7575684  71.8274164  76.4546394  23.6810207
  78.5723066  71.5057087  65.5253696  78.8290358  70.9802532  66.2831402
  77.8207684  72.0142221  65.8300591  81.7943192  76.3482141  26.0395765
  81.9102383  77.1128273  26.6036320  81.2220669  76.6542149  25.3359222
  45.9679747  64.5209694  86.0983562  46.2189102  65.3746080  86.4513016
  45.4266500  64.7266483  85.3361893  75.2323103  79.7825909  61.6864443
  75.6748533  80.4506397  62.2099829  75.6940794  79.7905684  60.8480310
  63.4957314  96.7490768  59.1838646  62.8034449  96.1846161  58.8398361
  63.2239532  97.6349163  58.9437294  60.7754993  91.8130684  21.6097927
  60.4924870  91.9707870  20.7090926  60.8987570  92.6876640  21.9787455
 102.5768757  67.2571325  32.7746081 102.3686409  67.3165512  31.8422246
 102.0496082  67.9443169  33.1820440  82.9979801  90.6749535  18.6337972
  83.5469341  90.1848316  19.2458940  83.5642815  91.3770962  18.3135939
  67.0433950  85.8065891  31.2896895  67.9471016  85.8559799  31.6013050
  67.1095657  85.9290791  30.3426671  85.1405525  72.4668741  51.1044121
  85.3948307  71.6320562  51.4976740  85.7227421  73.1096649  51.5095186
  92.8735924  84.6382999  82.6217937  93.5714626  84.1314602  83.0369186
  93.0586338  84.5778179  81.6845989  95.1102638   3.6114007  34.7726822
  94.4335651   2.9361939  34.7235751  95.7160759   3.2950518  35.4428649
  71.4896393  78.4011555  28.5112882  71.2027836  78.0776215  29.3652630
  70.6848049  78.6926460  28.0829096  64.5005655  57.0345545  60.7220793
  65.4375505  57.1504068  60.8797741  64.2469978  57.8027964  60.2104759
  98.4517384  87.8948975  73.9579582  97.7658081  88.5555744  74.0540600
  98.9986801  88.2197571  73.2427263  81.7054176  69.0536261  76.9934416
  81.0256577  69.7179079  76.8799448  81.7484951  68.9142132  77.9394531
  62.6213264  91.4522171  44.2387486  62.7778339  92.3958874  44.2736530
  61.6766310  91.3707924  44.1077900  66.6779423 104.7092342  84.6097851
  65.7296085 104.5806122  84.6283817  67.0322657 103.8474751  84.3905354
  60.2965164  82.2440338  41.3983393  59.4954586  82.3388863  41.9136429
  60.6229544  83.1380463  41.2963247  75.6932020  84.1293430  57.2288132
  75.3039932  83.7166691  56.4578104  76.3852262  83.5260677  57.4997330
  89.6504593  77.7414083  47.4376249  89.0208435  77.4598408  48.1013536
  90.0131226  76.9264174  47.0904922  73.6423206  89.7259235  19.5348740
  74.3285418  90.2797031  19.1624951  74.0378475  88.8557243  19.5853090
 115.8866882  69.9034309  49.6946859 116.1268044  70.1917076  48.8140726
 115.0989532  69.3748093  49.5671844  81.2359238  71.0467768  17.4207044
  81.7850208  71.7770290  17.1352959  81.8054008  70.2799940  17.3576856
  69.3343639  74.5909643  72.5712109  68.9711428  74.4267797  73.4414673
  68.7584686  74.1101885  71.9767046  95.7293320  97.4249077  30.9885550
  95.7219791  97.9434299  30.1839948  95.5724621  98.0619812  31.6855168
 101.5333652  66.6400194  39.8714614 101.4115906  67.5883722  39.8263645
 102.2469616  66.4607954  39.2591715  85.7310486  70.2609444  18.5774648
  86.3147449  69.5024252  18.5908413  86.2904644  70.9889030  18.3066118
  86.8765354  74.2194796  65.3125334  87.2505569  74.2690372  64.4328308
  86.0206890  74.6407175  65.2329922  93.1946945 108.3875275  75.0518084
  93.0383301 109.2915630  74.7788429  92.5452805 107.8759384  74.5693445
  77.1214914  56.3071489  47.1549797  77.3061705  57.2169065  47.3883533
  76.8702984  55.8941984  47.9811764  76.5944099  72.8133869  66.9506502
  76.1998320  72.6641750  67.8098774  75.8492374  72.9456329  66.3645935
 114.9836445   2.1482353  32.2001624 115.0443077   1.5476504  32.9430270
 115.8804131   2.4550390  32.0663500  77.0749569  53.4246159  34.5320654
  76.7549944  53.0066299  35.3315306  76.3736200  53.2906485  33.8945627
  70.6223059  70.1586103  71.8748236  70.7140064  69.2197609  71.7123890
  71.2854195  70.5642128  71.3162565  62.4164534  85.1370239  26.2330341
  61.4900780  85.1142597  25.9931469  62.4252558  85.4948997  27.1207738
  67.1190739  87.0832729  49.5378160  67.7392340  86.6656303  48.9401436
  66.2579632  86.8421173  49.1964102 104.7281265  61.9053078  15.3579533
 105.0423336  61.0027981  15.4125726 103.9980888  61.8677759  14.7399998
  23.5232854  12.2027802  54.3860912  24.0883279  11.9359219  55.1111746
  22.6613188  12.3210788  54.7851515  33.2221055  26.4148617  91.4294243
  32.7754903  27.2482347  91.5786076  32.6115632  25.7540607  91.7562485
  66.7308378  92.7649689  77.6267719  66.8094921  93.4887028  78.2482672
  67.5925779  92.7091408  77.2138405  66.7262077  77.8901005  55.6009483
  67.5550270  77.5002575  55.8790016  66.2567139  77.1744108  55.1724672
 101.1274052  93.9268494  29.2817211 101.7165470  93.8523388  30.0324488
 100.5384541  93.1767941  29.3640757  59.3600607  90.1585007  69.5496368
  60.2660990  90.3168201  69.2845678  59.4238949  89.4945812  70.2361965
  63.1891775  81.4316082  40.0506401  62.8068829  81.7827606  40.8548641
  64.0853167  81.1986160  40.2932882   9.2318565  95.5067539  32.3441863
   8.4959495  95.4032516  31.7408919   9.2652130  96.4466476  32.5222707
  71.7067766  78.9424753  88.0033398  70.8615255  78.8758755  87.5591087
  71.5728426  79.6123362  88.6738491  89.0328026  93.1548977  59.0359640
  89.5603371  93.3508396  58.2616568  88.8731480  94.0082073  59.4392061
  93.8817692  94.4825268  51.3474607  94.0313244  95.2792740  51.8564415
  93.6436558  93.8231468  51.9991827  72.4721861  35.6571770  37.1813416
  72.1582651  35.1501322  36.4326143  71.7214823  35.6993914  37.7737045
  48.9147997  57.2331095  22.5696111  49.2990255  56.6803837  21.8891001
  48.0043983  56.9432640  22.6278996  91.5070152  86.8636513  87.7991676
  91.5530682  86.6516304  86.8668842  91.4715576  87.8198242  87.8258801
  73.5635805  85.7579517  63.1178093  73.2844734  84.8429394  63.1508160
  72.9148912  86.1862278  62.5592279  77.0664310  68.4439945  46.3231897
  77.1699429  69.2232656  46.8693209  77.0317602  68.7816381  45.4281902
  51.3273382 109.1836071  37.9186773  50.6146622 108.6254215  38.2297254
  52.1212482 108.6785221  38.0942416  67.8540087  74.5684338  52.3542309
  67.9972982  74.7520018  53.2826710  68.3862066  75.2191877  51.8965006
  46.5529823  57.5164509   5.9205920  46.5932035  57.9412842   5.0637788
  46.2955856  56.6146469   5.7289410  28.0090046  99.0668011  68.0296803
  28.9389205  99.2836285  68.0965567  27.6609278  99.2320061  68.9059114
 109.5605373  91.2962341  32.6246905 108.6397934  91.4948177  32.4543524
 109.9296284  92.1219254  32.9381251  77.7840328  76.9205284  44.0254354
  78.1997204  76.0875797  43.8026524  78.3738661  77.3189592  44.6654177
  69.2670345  76.4367199  26.4680672  69.4467402  77.3763561  26.4999580
  69.7523880  76.0747433  27.2094417 106.9581413  41.1484766  72.7628565
 106.4518833  41.8301964  73.2046700 106.9841957  40.4253960  73.3895254
  92.7612305  75.4061460   6.2565708  92.9224873  75.9028053   5.4543495
  92.1484280  75.9474230   6.7542827  13.6623073   0.4118992  46.7468119
  14.1850054   0.7890236  47.4544811  14.0876210   0.7177688  45.9456968
  88.1439114 105.2419662  73.5110092  87.7467442 106.0985470  73.3536530
  88.3475304 104.9082279  72.6372910  66.6560602  78.4429693  80.1860809
  66.3455582  77.7804327  79.5689344  66.6970730  77.9868364  81.0266113
  76.0906982  99.6024418  30.3134370  76.0363150 100.0670147  29.4783092
  75.2980518  99.8612022  30.7835269  61.7014503 105.8329964  47.6629686
  62.6109076 105.7505703  47.9498911  61.2417507 106.1890411  48.4233236
  93.5976791  91.0428619  66.6091204  92.8194904  91.5991879  66.5750313
  93.3229542  90.2774143  67.1139526  85.3046417  91.5182495  36.5408039
  86.1800957  91.3239574  36.8755651  84.9626923  92.1845436  37.1369123
  80.3242588  54.5152330  57.0969629  80.4315090  54.5439005  58.0477047
  80.4671097  55.4179478  56.8124866  74.9157286  82.9105091  21.6747475
  74.6705961  82.2242641  22.2954082  74.1699839  83.5105896  21.6743112
  73.7241125  78.9900494  79.3589115  73.7179947  79.3637848  80.2401161
  74.5157337  78.4525967  79.3321800  64.5978832  75.8063030  38.8918591
  65.3769255  76.3138723  39.1192222  64.7594118  74.9396563  39.2647743
  73.1186533  89.2010307  49.3943501  73.6019135  90.0181198  49.5170450
  72.3067093  89.3269348  49.8853970  83.4591198  79.8238564  42.9824066
  84.3459702  79.9351549  43.3249521  83.0543137  80.6856060  43.0811644
  99.1144943  59.6190119  37.4150991  99.8703671  60.0766563  37.0470595
  99.1136837  59.8636198  38.3405161  78.3450317  90.4499912  61.1183214
  78.3132887  91.1546040  60.4712152  79.2735243  90.2268124  61.1840582
  85.0591564  71.8701792  21.0390711  85.7658005  71.9432640  21.6805935
  85.3863811  71.2447786  20.3925157 107.7081394   4.7011742  48.4060097
 108.1198597   4.7230768  49.2698574 108.4080505   4.4257098  47.8140068
  65.4612827  84.8862076  46.0551262  65.2577019  85.8204937  46.0115767
  64.6498775  84.4781017  46.3572931  10.8791280  70.3025198  72.5390577
  10.7237971  69.9771118  71.6523695  10.1091599  70.0238609  73.0347681
 101.1397362  12.4373364  85.3492069 100.8153820  11.5911615  85.6574535
 101.7577648  12.2174430  84.6521282  51.6713810  97.9472542  22.3965931
  50.8932304  97.9665279  21.8395114  52.3049545  97.4245548  21.9050550
  75.8939981  77.1706963  57.4848461  76.1864042  77.4256277  58.3599091
  76.4560890  77.6674795  56.8902969  51.3187218  98.4097290  50.6569290
  50.8329535  97.7844429  51.1947823  50.6623840  99.0500641  50.3823185
  68.2148886  86.4891243  60.2666712  68.4478283  87.1804142  60.8864212
  68.9283657  85.8548069  60.3361273  90.6417370  63.5307407  68.4669018
  91.4886856  63.7763977  68.8391447  90.4520702  64.2184496  67.8286886
  25.5899477  17.2142577   3.6845377  26.5285921  17.2720897   3.8629520
  25.2002859  16.9777513   4.5262384  57.1051884  86.0132408  62.7832174
  57.0532608  86.4371395  61.9265699  58.0283594  86.0790825  63.0274630
  94.5048714 103.0940437  54.9540281  93.8109779 102.4509239  55.0993586
  94.8533154 102.8790569  54.0888119  80.5132771  85.1908016  54.4175577
  80.8252430  86.0671711  54.6431589  79.6142960  85.1648521  54.7452641
  88.4646225  91.6429043  61.2436819  88.7793922  92.0842552  60.4547834
  88.7158012  92.2254944  61.9604397  11.7090845   6.0894918  56.5730715
  12.2108209   5.5319262  55.9784174  12.2623038   6.8597174  56.7031956
  76.8539333  91.6768074  63.5442209  77.1609259  91.1767197  62.7879810
  77.6043844  91.6979694  64.1380310 113.5729790  89.1235447  79.5979214
 112.9974556  88.3668041  79.7090769 114.3910122  88.8668919  80.0235939
  66.1961699  79.8414660  52.5615644  66.5863228  79.0985346  52.1010590
  66.7801762  80.5753326  52.3702526 111.7820168   7.9613674  37.5550508
 111.6955662   8.9145190  37.5389457 111.6817379   7.6962948  36.6407681
  93.6584949  96.7911339  18.0216038  93.8389874  97.7305794  18.0547929
  93.4642220  96.6169548  17.1006525   5.3504878   0.4696954  28.4885931
   5.8096749  -0.2211946  28.0110478   6.0090476   1.1530633  28.6132526
  90.5716610  84.5911598  65.2661848  91.3009739  85.2103806  65.2361727
  90.2314568  84.6648216  66.1578512  80.2964592  76.2902784  42.1218204
  80.2736950  76.4508438  43.0651855  81.2275791  76.2976408  41.9000149
 100.7825661  98.4559441  34.0225530 101.4717197  97.8384590  33.7775779
 101.2462997  99.2741871  34.2004704   7.7230257   6.0509700  47.0200348
   8.2722199   6.8175757  46.8559265   6.9807255   6.3906896  47.5198507
  60.8239365  52.4573469   0.1150263  60.4109049  52.3300791   0.9690996
  61.2945557  51.6398573  -0.0476307  98.2416725 104.1277313  21.6712213
  97.9643917 104.2952442  22.5719357  99.1953945 104.0640926  21.7221236
  61.6793919  94.6116924  29.9976611  60.9004974  95.1572704  30.1067519
  61.4207840  93.7545586  30.3362942   2.8948420  19.1377604  14.9088764
   2.6413953  18.9130735  14.0136039   3.4512958  19.9107301  14.8134351
  96.8989658  96.6101646  64.3624592  97.2939301  96.1355114  65.0938559
  96.9169331  95.9878063  63.6354208  66.3556671  76.7327785  66.7390823
  66.6679955  76.5747786  65.8481741  65.4226112  76.5215969  66.7067671
  72.4600649  94.4431400  20.4545259  72.1760416  94.4430542  21.3686156
  72.4186230  93.5239315  20.1907539  90.5201149  79.0531445  29.1332197
  90.4328346  79.0523481  28.1800079  91.3149452  78.5469866  29.3013763
  18.2383013  33.3227396  52.9410791  18.4548140  34.0313983  53.5470152
  19.0640283  32.8555393  52.8140736  64.0974903  88.5791016  70.5131197
  63.8689899  88.2815075  71.3937187  64.8036480  87.9942322  70.2383518
  31.6553760   5.3559685  47.8598547  30.9038639   5.6851947  48.3528757
  31.6035819   4.4045481  47.9512262  88.2641792  88.4771633  20.1695132
  87.8230476  87.9150486  19.5325983  87.9036427  88.2099628  21.0150003
  87.1262455  70.2078485  46.1049223  87.6761246  70.5213976  45.3868961
  86.2678242  70.0672913  45.7054377  89.4690418  65.0782108  52.5332642
  89.4326019  64.4631863  51.8007040  88.6568165  64.9243498  53.0158091
  72.9728317 101.2603569  86.0298252  73.0147505 102.0531273  86.5646076
  73.8009453 101.2511635  85.5498409  27.8707266   8.4821200  49.3527126
  27.6660562   8.8648552  48.4995699  27.2579098   8.9015961  49.9566364
  56.8552494  99.9961758  48.4478235  57.1290493 100.8990192  48.2861853
  57.5145388  99.6499729  49.0492487 101.4182758  94.1432476  22.7998543
 101.2833405  94.7475529  22.0698977 102.1060181  93.5507202  22.4962687
 109.3482399   8.8332993  33.1713486 109.7546864   8.8279521  32.3047447
 108.8959694   9.6755910  33.2185841  75.2041149  65.9069681  43.1422663
  74.6489573  66.2982988  43.8167238  75.7638693  66.6249132  42.8465319
  73.0045986  83.4029293  45.3865576  73.3164740  83.5130692  44.4883156
  72.0546865  83.3208847  45.3019142  66.8217278  60.3305435  64.9066162
  66.8862820  59.3870449  65.0545454  67.6728630  60.6743097  65.1779652
  69.0705538  90.2015305  58.4940147  69.3968344  90.8076382  59.1591501
  68.1659698  90.0259209  58.7530994  93.2313061   4.4240695  23.3756423
  92.8498459   4.7037974  24.2077899  93.6577988   3.5908216  23.5757399
 106.8182182  84.6472454  34.1310000 107.4517632  84.5391273  34.8403382
 106.5488338  85.5639744  34.1881394  74.5096684  87.2664642  50.8994532
  73.9318275  87.9485321  50.5572271  74.7686481  86.7626190  50.1278973
  82.3824501  87.6881313  73.3209753  81.5178108  88.0533695  73.5086584
  82.4233437  87.6482296  72.3654842  87.5074768  54.6904421  54.9088955
  88.2990551  54.1671228  55.0344563  87.8036880  55.5967665  54.9929857
 109.2895985  77.1848392  58.9812279 108.9608383  77.8287554  59.6085453
 109.6702194  76.4943552  59.5239925   0.6967412  84.0366554  12.4534094
   0.5113001  84.7376633  11.8285620   1.5436098  83.6868382  12.1765208
  25.1096773   3.2619703  67.4489689  25.5858636   4.0921280  67.4667692
  25.1336312   2.9917490  66.5310144  79.0777159  91.6988182  24.9769831
  78.2858324  92.0471001  24.5672822  78.7613964  91.0127354  25.5647349
  83.3203411  64.5927000  39.5147777  83.7320805  63.7648058  39.2671943
  83.9948654  65.2528238  39.3551183  82.3969841  70.0201845  53.1778717
  81.7329121  69.5085239  53.6398602  83.2060528  69.8554230  53.6621189
  30.4618168  16.1924756  72.3757458  30.7492781  15.3020251  72.5774765
  30.4112864  16.2171519  71.4202023  16.8674135   1.5172686  29.4131279
  16.4971209   0.8202354  29.9546599  17.7775383   1.2551011  29.2746544
  30.2921438  83.4148598  22.3559928  30.0654721  84.2545128  21.9561958
  30.4907417  83.6294174  23.2674503  77.3079443  88.3444405  33.9463902
  76.4765644  88.0150127  34.2877388  77.7326345  87.5751972  33.5667396
  66.5025043 106.1624432  62.9139566  66.8454742 106.7135143  62.2104502
  67.1096992 105.4237461  62.9572105  64.6464729 107.8868008  52.9935741
  64.1647148 108.5832024  53.4398603  64.3138027 107.0780468  53.3827686
 110.2050304  86.5509701  35.4959583 109.6463490  85.9244633  35.9559488
 110.7498360  86.0108185  34.9235487  98.4000874  73.7076330  51.5135336
  97.8483486  72.9260969  51.5454483  98.3358479  74.0093279  50.6073952
  96.8906879 106.6516495  23.5596657  97.5123882 107.3054504  23.2398701
  97.4325657 105.8947086  23.7824726  92.1002865  54.0805340  21.6410184
  92.1230888  54.9141598  21.1711431  92.1935940  53.4174395  20.9570384
  21.0680532  22.3847198   9.6827090  21.7067218  21.6806483   9.5703769
  21.5479064  23.0718398  10.1451397   6.8925613  15.7426012  43.8291597
   7.6388824  16.3078403  44.0285158   7.1389431  14.8874080  44.1815424
  64.1188002 104.7108364  61.1549520  63.5700750 103.9409351  61.0053253
  63.7055159 105.1598454  61.8923903  58.5024405 103.8995934  43.7953186
  58.3068419 102.9638672  43.7464476  58.7159395 104.0518951  44.7158909
   9.6616304   4.0804318  10.5615878   9.7584569   4.5485711   9.7323096
   9.8663276   3.1700861  10.3480434  97.5872803  75.7847881  41.6092157
  98.2670403  75.3173828  42.0946980  97.5979424  75.3867006  40.7387877
  75.9027100  68.8095903  17.2612274  75.6128311  69.6921015  17.4922609
  75.1158381  68.3787298  16.9274247  10.0666070   1.5612896  43.4650469
  10.9735501   1.5407254  43.1596565  10.1351368   1.5542084  44.4197607
  69.1345787 107.9909420  19.1111243  69.7021008 107.5108624  19.7141755
  68.2533216 107.8714275  19.4651508  82.8814602 102.9067230  69.3343687
  83.5420799 103.4998512  69.6921444  82.7879238 102.2237778  69.9984932
  75.9869385  85.1755428  73.9780235  76.5125179  85.5107594  74.7044086
  75.1845884  85.6969643  74.0023232  88.7356472  66.6362906  44.1670322
  89.3861198  67.3097038  44.3661118  88.1919479  66.5885544  44.9533796
  79.2038631  80.8110428  44.3707991  79.5680285  81.3397026  45.0808239
  79.6450996  79.9654245  44.4512129  80.6439114 107.2865295  17.5944138
  81.3871193 107.1077061  18.1705201  79.9500608 107.5827694  18.1835198
  80.8258724  87.7437115  79.4973183  80.3079128  87.6757431  80.2993965
  80.4508305  88.4918594  79.0327024  89.9070930  67.7705383  39.2574167
  90.4851627  67.7036190  40.0174046  90.4589748  67.5262594  38.5144591
  82.0094299  94.7045612  12.0624912  82.7344608  95.3157616  11.9321084
  82.1016979  94.4135284  12.9696953  60.1758814  72.9972410  67.8034067
  59.9654102  72.1043587  68.0767012  59.6102333  73.1560421  67.0477247
   3.8507175 105.0790024  20.8930516   3.6415365 105.1830101  19.9647975
   3.0944014 104.6204853  21.2590909   8.2547218  87.7529716  69.9728870
   8.3549368  87.4672794  69.0648270   9.1384512  88.0002880  70.2450800
  17.1942604   1.5611802  63.3827209  16.4422178   1.1869586  62.9237843
  17.9002404   1.5476118  62.7364731  75.4823208  81.6195202  25.3940105
  74.9621534  81.3150024  24.6504235  75.2198315  81.0516739  26.1184978
  89.2761612  82.6154900  26.4770699  88.9026451  82.8376579  25.6242180
  88.5259819  82.6041412  27.0714831  90.6260872  11.8466866  72.5503206
  91.0255814  11.8601310  73.4200573  89.8958588  12.4624145  72.6126242
  64.8908758 100.2036095  39.0109777  65.3787756  99.7903633  39.7233057
  64.3961191  99.4875431  38.6125970  20.6463218   2.9206783  42.1125507
  21.3676620   2.6543757  41.5424728  20.4394674   3.8133901  41.8359470
  84.2191696  59.6395826  59.1056538  85.0818443  59.2251253  59.0897131
  84.2151070  60.1532173  59.9133587  20.1237130  20.3279972  47.4667549
  20.1853490  19.9624562  46.5842533  20.7967567  19.8647726  47.9654217
  90.0337029  91.1790848  67.9504442  89.5431805  91.6069126  67.2486019
  90.3361225  90.3569603  67.5645828   8.1008929  75.6171608  39.2878509
   7.5005180  76.3618135  39.3235779   8.5984844  75.6713247  40.1037550
 102.7621365  90.3850079  25.2644801 102.2709370  89.5658970  25.3278899
 102.7968311  90.7136345  26.1628294  95.6591129 108.3129787   1.3691995
  95.9116459 108.0593109   0.4814443  95.9945011 109.2040062   1.4682512
  55.3458261 106.6211319  37.6305676  55.1859236 107.5335407  37.3893666
  54.6293449 106.4017487  38.2261825  65.3002691  84.1531277  59.3641090
  64.4594383  83.9424133  59.7701073  65.3809309  85.1021862  59.4590378
  77.2028971  88.5733223  58.4639692  76.5931177  88.3841515  57.7507973
  77.8169489  89.2066574  58.0924082  95.8699131  89.8247433  42.1555996
  96.2813187  89.2200375  42.7731037  95.4591465  89.2578220  41.5028286
  84.8008537  78.8702488  40.2600670  83.8945580  78.5729122  40.1797104
  84.7740746  79.7921467  40.0039101  75.5585194 108.2539558  17.8345454
  76.0993004 107.7853775  18.4703243  75.1952982 108.9907455  18.3259213
  71.0883379  96.6650295  19.1321003  71.5986156  95.9078026  19.4192433
  71.3678122  97.3752022  19.7098434  19.9491751  88.4728050  86.7162800
  19.1396821  88.8481522  87.0627880  19.7316408  88.2215500  85.8186245
  98.2781124  79.0444946  29.9678016  99.0875053  79.1992903  30.4547882
  98.5433388  79.0690374  29.0484095   2.8780702 105.2444172  84.4069099
   1.9791766 105.4757595  84.1730213   2.8033185 104.8338985  85.2683735
   4.0830874  86.9429302  27.9001784   3.6371982  87.7060223  27.5326133
   3.4180349  86.2545013  27.9014421  70.1048851  90.6822395  39.0479636
  69.2574453  90.6113815  38.6085844  70.5672121  91.3688660  38.5673165
  83.4341049  79.5476389  22.9642630  83.2730675  79.4513607  22.0256305
  83.5135174  80.4921150  23.0980110  24.5191932   1.9381438  71.3907051
  24.2419124   2.7763861  71.0209799  24.9611926   1.4921805  70.6682205
  88.8385582 101.6456604  53.7577486  87.9448795 101.6691303  53.4156609
  88.8950062 100.8111572  54.2231941  91.6931248  72.0097542  56.4658260
  92.5935555  72.2024250  56.7272234  91.6021538  72.4149942  55.6034231
  94.6841049  85.4291916  78.9792776  95.2159786  85.0064850  78.3049917
  94.0359402  85.9360981  78.4902382 113.9535141  93.8122463  66.3370085
 113.5727882  93.0887222  65.8392191 114.6321201  93.4027672  66.8737173
 107.6675510 103.0866432  39.5221138 107.1314907 103.7238979  39.0501142
 107.3120880 103.0861473  40.4108667 100.0720310  16.3271487  68.0479288
 100.4639721  15.9833491  67.2451735  99.8481464  15.5485189  68.5576773
  38.2184863   7.5793713  29.7935128  39.0650678   7.8831333  30.1210189
  37.7248096   7.3512334  30.5812120  91.6199589  99.0517807  73.5779190
  90.8791351  98.5550308  73.9252901  92.0824623  98.4303570  73.0156374
  84.7940254  40.3453922  37.9522586  84.5991802  41.2725210  37.8155375
  85.7372379  40.3200960  38.1133294  74.3665981  11.8702924  93.1225300
  74.3702030  10.9964001  92.7319813  74.6511173  11.7301905  94.0256691
  14.4823086  25.4344940  38.8031292  15.1419830  24.8037291  38.5146880
  14.0643537  25.7306147  37.9945135   5.3239352  99.6476555  53.7780094
   4.7970217  99.0206242  53.2826138   5.2283859  99.3730640  54.6899843
 111.3401318  42.5973368  50.0286150 110.5977726  43.1383324  50.2978086
 110.9892750  42.0362473  49.3370152 107.7769852 100.9035492   7.2386265
 107.2282982 100.7029343   6.4803827 108.0170345 101.8230343   7.1239978
  83.3540535  91.5555000  57.4571705  83.4798813  90.6347275  57.2278500
  83.1156635  91.9774818  56.6317415  15.6504405   0.5254701  59.5236635
  14.7256267   0.4294953  59.2962027  16.0938883  -0.1534353  59.0150642
  10.7567716  94.0038490  19.1674495  10.4694474  93.9645863  18.2552361
   9.9461836  93.9711666  19.6754956  78.2250738  86.7689037  49.9212360
  78.9057827  86.1451149  49.6687365  78.5319948  87.6091957  49.5807314
   6.0820782  12.3498547  73.0412960   5.7239860  13.2305980  73.1521749
   6.6413546  12.2205138  73.8072681  81.3610077  64.0043879  28.9546990
  80.8718395  64.2987776  29.7229981  80.7866287  64.2019415  28.2149029
 102.1840668   0.3857345  29.0953374 102.1087456   0.7826436  29.9631047
 103.0146313   0.7155532  28.7523818  23.7972522   2.7936465  31.5442252
  24.1870332   1.9772400  31.2315226  23.1068158   2.5144988  32.1455622
 110.3823853   2.7542073  37.9636621 110.7271099   3.6470625  37.9781508
 110.2703667   2.5257120  38.8864136  95.9987545  59.2476463  63.3483028
  96.4537811  59.8447847  63.9421177  95.1190376  59.1674709  63.7169456
  25.5337930  14.7925544  59.6556377  26.0150194  14.5545363  58.8631773
  24.8869824  15.4331219  59.3597651  99.1643143  75.7261992  63.7464333
  98.9424038  76.2067747  62.9489136  98.4980869  75.0415564  63.8067245
  78.8232660  66.3670063  53.6483288  78.1880903  65.8403492  54.1335249
  79.5121861  66.5578842  54.2848778  86.7461491 103.5071659  60.8384037
  86.4808941 102.8891087  60.1573133  86.0626698 103.4370136  61.5048552
  63.3814812  21.3258743  92.2009182  63.1319571  21.0425568  93.0805206
  63.4121656  20.5178308  91.6887188  92.3596382  73.5244751  53.8210917
  92.2070408  74.3623400  53.3841419  93.3020878  73.3791447  53.7379694
  70.6936836  77.9055643  78.0441618  70.6773949  78.8176489  77.7542257
  70.7425737  77.3976374  77.2343159  68.0489969  96.6485214  19.6938848
  67.5640869  96.5163422  18.8792551  68.4165716  97.5286865  19.6136987
  88.0122852  56.9866800  62.0198441  87.2043800  56.8691874  62.5195646
  87.9339981  57.8619194  61.6402864  34.0650272  13.2218659  65.7970285
  33.4675193  12.9461825  66.4921665  33.4994650  13.3664668  65.0384378
  61.9030762  99.3277264  41.4993429  60.9867573  99.0879822  41.3611031
  61.9942617 100.1805401  41.0743523  16.7004299   5.6805968  14.4687462
  17.5311160   5.9364879  14.8696351  16.6340232   6.2270451  13.6856651
  73.0103397  87.5275993  46.7732906  73.5431862  87.8727531  47.4896479
  72.4973679  88.2779789  46.4732647   3.4098753  72.7068710  67.3464012
   2.6705778  72.2727108  66.9207525   4.1017362  72.0454884  67.3579454
 107.2129822  78.5442972  23.6290526 106.7191219  78.7417746  24.4248819
 107.5264740  77.6490784  23.7576580  90.2990818  96.8496037  18.3566546
  90.7891750  97.6262951  18.6264634  90.4046059  96.8181515  17.4058080
  65.3969049  75.3073072  50.9882927  65.6112909  74.6941185  50.2852488
  65.8798838  74.9800110  51.7471361  73.6736107  92.2082710  47.4937296
  74.5821238  91.9870377  47.2890425  73.5718632  91.9733810  48.4160662
   6.2257046  85.2216148  83.0678749   6.6708636  84.4837952  82.6511288
   5.6517303  84.8182297  83.7190723 115.8119869   5.5221152  16.9819772
 115.9836960   4.8279092  16.3457203 115.2717781   6.1538243  16.5072680
   3.7044981   2.3746352  -0.0972809   4.0292665   1.7397672   0.5412329
   3.3517250   3.0889446   0.4333276  47.8749275  99.4916344  73.9337683
  47.5191832  99.7925186  73.0976200  48.3283997 100.2556515  74.2899513
  84.3851757 107.6605892  36.1068201  84.2361927 106.7703438  36.4253879
  83.5570908 107.9098701  35.6964922  65.4626513  88.9624119  82.6131725
  64.9266624  88.3673286  83.1373978  65.6969595  88.4531403  81.8373013
  51.8969297  97.5942993  12.8592765  51.2924004  98.1123257  13.3907092
  51.6786146  97.8236485  11.9559658 113.8741112  62.6676035  58.7644196
 113.2388592  61.9663286  58.6198425 114.1073418  62.5924921  59.6897268
  81.5078068   4.8304564  53.3420515  81.0809803   5.4024470  52.7041817
  80.8348846   4.1925627  53.5797358   2.3904176  91.6444397  79.2327452
   2.1901968  92.2883701  79.9120808   2.4384815  92.1556091  78.4248972
  41.7227697   4.3144408  61.7640734  41.7294741   5.1135641  61.2372065
  41.2163734   3.6896071  61.2450552  96.7923260  10.8790278  56.8209791
  97.6574326  10.8587384  57.2301435  96.1794949  10.8767843  57.5562763
  53.1714487 107.1875572  46.4435863  53.6156702 106.6187477  45.8148098
  52.4717283 106.6439247  46.8056393  74.6805620  90.8295631  41.8786764
  73.8308573  90.9322357  41.4500809  74.6538305  89.9502468  42.2559357
  57.8213120 108.2870483   3.6672619  58.4091711 109.0282536   3.8131195
  58.3593988 107.5158215   3.8458773  55.6360340  85.2113152  64.7307062
  56.1553383  84.5263672  65.1519012  56.1685276  85.4921150  63.9865065
  54.5494699  95.2190399  67.6265430  54.3111134  94.8578835  68.4803486
  53.7988377  95.0234222  67.0657253  15.1553619  14.6409738  45.6937790
  15.9440994  14.0990770  45.7155371  14.4390035  14.0280163  45.8591413
 111.9047832 107.5514984  57.2326469 111.3844395 106.8372536  57.6005268
 112.8128147 107.2856808  57.3777342  68.2976723 104.1572380  47.2752953
  68.0523920 104.2779827  48.1926250  67.4796295 103.9216328  46.8376541
  93.9162922  90.3296280  29.7722363  94.3006516  89.6008492  29.2850280
  94.4677734  91.0809422  29.5540261   0.5983401 106.8554783  77.6616859
   1.1444546 106.0972691  77.8693104   0.9183966 107.5470066  78.2409811
  92.4244499 101.9390965  88.5160065  91.8096447 102.1825409  89.2080975
  92.3464680 100.9873486  88.4502602  52.8732395 106.1002731  60.1401472
  52.2950983 106.3709450  60.8533907  53.1992388 105.2413654  60.4089165
  82.1383190 101.0525131  37.5766110  82.9135227 100.5406189  37.3458290
  81.4468193 100.7079411  37.0115161  72.1421289  86.5567780  69.8231506
  71.6118288  87.1443367  69.2848349  71.5166855  85.9216309  70.1719189
 105.4337883  78.9544916  25.6548572 105.5182648  78.9010906  26.6068244
 104.4948673  78.8637972  25.4922628  49.2861891 107.8327179  70.5825424
  48.7470913 108.6205482  70.5123043  48.8833141 107.2119141  69.9754810
  60.7888079  98.1415462  27.8646779  60.6788445  98.8061142  27.1846175
  61.7122126  97.8950787  27.8116345   2.1546328  83.1957245  44.8255110
   2.9638055  83.4494400  45.2694702   1.8895580  82.3832226  45.2565718
  38.7856197  48.6139297   4.2128432  38.1398535  48.6279154   3.5064274
  38.3327579  48.1920242   4.9430105  12.8131783  27.8779411  53.5719252
  12.9297435  27.3518562  54.3630505  13.0299914  27.2826934  52.8543615
 103.3073711  82.1926785   9.5455414 103.5320473  81.6785336  10.3210437
 102.6836300  81.6457462   9.0680134 102.6331329  72.4709845  51.7292070
 103.1389236  71.6669083  51.8469954 103.2081223  73.1650209  52.0516014
  54.3871307 100.0697422  17.0736051  54.7852945  99.5478821  17.7702796
  53.4452009  99.9446392  17.1891499  10.2466953  89.9995995  69.7641897
  10.4796970  90.7449532  70.3177166   9.9989015  90.3913879  68.9267397
  45.0005054   7.6869184  51.1774778  45.0694561   6.8604928  51.6554928
  45.5128860   7.5465274  50.3812456  62.3729515 101.2241173  80.2485657
  62.6072407 100.2960777  80.2574348  61.5167809 101.2509346  79.8213863
  82.4685001  80.6018162  38.7933397  82.5631237  80.2148724  37.9229665
  82.9961395  81.3997364  38.7593699  89.8834705  93.8672352  62.3168516
  89.3436050  94.3505669  62.9422855  89.8758698  94.4071388  61.5264893
  51.0505009 106.0269928  47.5777817  50.7109833 105.2608490  47.1151972
  50.7032347 105.9438992  48.4658861  60.3990030  88.5799980  14.7031462
  60.1743698  88.7168121  15.6235015  61.2933636  88.9115620  14.6230459
   1.8040870 101.9796944  69.8447561   2.2928469 101.1684322  69.7061968
   1.0546007 101.9117737  69.2532444  74.4632006  67.1082640  50.1428223
  74.0576887  66.2416697  50.1711178  74.9495935  67.1183062  49.3184710
  98.3646584  80.5144024  92.5563049  97.7602386  80.1526165  91.9082165
  97.8850269  80.4678345  93.3833599  79.5639038  62.6731586  62.9399490
  78.6993742  62.8635120  62.5758314  79.3924522  62.4307346  63.8499308
  52.8412247  60.0422525  88.6381054  53.4250498  60.6065416  88.1311989
  52.8264189  60.4352331  89.5107937  54.7165394  98.1439018  31.3946629
  55.0281763  98.7651348  32.0528269  55.5142927  97.7581024  31.0327458
 112.9019547  93.7831020  34.4163799 113.1215858  94.0965557  33.5390329
 113.6994171  93.3516216  34.7231650   1.6770804  95.6137848  47.7447319
   1.5592641  95.6658936  48.6932230   1.3957378  94.7277260  47.5167465
  72.6989365  99.3708611  32.0710015  72.3935604  99.1747284  31.1852765
  72.0040607  99.0431881  32.6419759  83.6572266  99.0795898  39.4543624
  84.2936039  99.7433853  39.7201300  83.7359142  99.0403938  38.5012078
  52.6997375  84.4628525  70.9786749  51.8367243  84.4020271  71.3882351
  53.3141804  84.4558144  71.7125940  98.6771107   5.8200341  74.3892384
  98.6593056   5.3196287  73.5734510  99.3797588   5.4190958  74.9008656
 106.1785507 105.4639912  16.5851068 107.0384026 105.6404400  16.9668818
 105.5733299 105.9958649  17.1018803  40.2404737 102.3493576  46.7126846
  40.3856802 102.5624561  45.7908726  39.4117498 102.7764511  46.9295788
  19.8650157  95.5749893  33.6809945  19.8133278  94.6983719  34.0619135
  19.2609620  95.5496693  32.9388952  84.1237640  98.6329269  25.5061746
  83.9672089  98.7038898  26.4478159  83.4372711  99.1682625  25.1082230
  91.9154739  93.5420132  78.8684893  92.3695660  94.2135334  79.3774939
  92.4268723  93.4653473  78.0629921  40.9101534  14.1560090  68.4855413
  40.6548977  13.5906100  67.7565718  40.1167870  14.2371726  69.0148973
 114.0767479  71.0050154  36.1927271 113.4434128  70.5618429  35.6281757
 113.6225891  71.7937422  36.4891696  87.9189491  83.4153366  24.2528820
  87.9908752  82.6321125  23.7073398  88.0121136  84.1440296  23.6392379
   6.6636533   1.4066805  21.9452095   6.5348512   2.3264951  22.1766877
   6.0651553   1.2578511  21.2131691  12.1518350  13.0680978  29.9997544
  12.5598097  12.7108669  30.7885361  11.9621599  12.3008704  29.4597387
 100.9663486  10.0290954  46.3637972 100.6720924   9.4405371  47.0589590
 100.5322647   9.7040302  45.5750418  70.2874994 105.9805679  20.5089140
  71.1862659 105.8751202  20.1969314  70.1275969 105.2042103  21.0455132
   8.5011250   4.4559041  30.3282332   8.9425832   5.2098399  29.9371743
   9.1532975   4.0749526  30.9162617  86.2446594  79.9913073  30.3631759
  86.0836315  80.6262302  31.0611558  86.9177151  80.3995609  29.8186111
  89.4781494   5.8472133  66.5903473  89.4283295   5.0599635  66.0481405
  88.6764431   6.3291007  66.3871813  65.8244467  89.1788101  62.1135187
  65.0445318  89.0502548  62.6533651  66.5561008  88.9874744  62.7002954
  65.7829905 100.7020378  31.8507028  65.0864553 100.9218025  31.2320137
  65.9355021  99.7665405  31.7172551  68.2928038  85.1637363  42.5893545
  67.4895573  84.8017693  42.9635334  68.0201244  85.5347157  41.7501593
  60.1748514  12.3752785  38.3579922  59.2635727  12.0865524  38.4073901
  60.1273537  13.3294380  38.4176183  46.3735342  47.3034191  47.8673315
  45.5905056  46.7722988  48.0122900  46.5584993  47.6953268  48.7208128
  94.7917938 103.7423897  49.7510958  94.8613548 102.9481888  49.2213392
  95.5399418 104.2756844  49.4825888 103.4243679  95.1445580  73.2029486
 103.5472584  95.0282097  74.1450691 104.2633152  94.8900318  72.8187370
  88.6029053  90.1582241   9.1663033  88.7188244  89.3527508   9.6702927
  88.0893612  90.7275200   9.7393674 102.0952892 107.8060913  28.8136625
 101.9617653 107.6989269  27.8718996 102.6461411 108.5851479  28.8903499
 102.7542686  85.8261490  52.1870232 103.5366154  85.9690857  51.6543436
 102.0253086  86.0345936  51.6027308 114.2506313  19.6243036  24.2983770
 113.9439487  20.5108213  24.4888234 113.7689877  19.3680382  23.5118771
  72.8298807  89.4105244  54.2917585  72.0798445  89.4091511  54.8864651
  73.1728983  88.5180283  54.3368006  78.4445286  65.8385086  40.7632828
  78.6840248  65.1453924  41.3784742  78.7612391  65.5263615  39.9156404
   3.3917809  14.0143418  69.4138288   2.9821637  14.7883856  69.0274334
   4.0858185  14.3642998  69.9724627  46.5296125  28.5041761  35.9850788
  47.1889687  27.8279138  36.1404753  45.7168913  28.1285858  36.3236737
  78.6620951 103.3036995  29.1930699  79.5183992 103.0460167  29.5344996
  78.2443571 103.7670994  29.9190140  24.4951200   1.5780652  23.8738561
  24.5528531   1.6618037  22.9220748  23.7829542   0.9546439  24.0166831
   6.1601597  69.7877836  51.5836859   5.3558201  69.9171305  51.0811520
   6.8124616  69.5343542  50.9306049  23.3631468  26.6286421  47.0531702
  24.0715575  26.5770125  46.4115143  22.7288818  27.2293353  46.6618776
  12.1263504  27.4548602  83.5435200  12.9794765  27.8518510  83.3680058
  11.5088153  28.1848764  83.4992790   7.5838715   1.6891867  13.2445097
   7.3568743   1.7239757  12.3152661   7.3177010   2.5419933  13.5881758
 105.7736778   8.2633018  31.9451141 106.0946655   8.8902992  31.2969804
 105.2646065   7.6322913  31.4362931 103.7883854  12.6058424  25.8299470
 104.5495605  12.6400077  26.4093280 104.0304565  11.9733274  25.1535177
  16.4013636  41.8292570   3.5161281  16.6006589  42.7270269   3.7816921
  17.1406186  41.3141870   3.8392946  90.9292316 101.5490150  36.6165066
  90.3588486 102.2806263  36.8523765  91.1022472 101.6714764  35.6830716
  25.9769511  30.9337640  65.4570532  26.3506103  31.0103369  64.5791292
  25.2919197  31.6017365  65.4848909  72.1298504 100.7725334  23.0212760
  71.8855524 100.3990936  23.8680911  73.0835581 100.8455849  23.0578995
 107.0590019  12.1680355  47.1467161 107.3612309  12.9603863  46.7027903
 106.2369537  12.4259317  47.5638103  74.7947454  72.3120785  71.9527245
  75.5957794  71.8461990  71.7128563  74.9437189  72.5959444  72.8546476
 103.8815308  16.6115558  40.7102060 103.5511398  17.4914825  40.5290890
 103.3385944  16.0362244  40.1712799  80.9479237  93.6390781  22.6680279
  80.7985210  92.6944160  22.6289892  80.1491261  94.0230465  22.3064613
  46.8608236  14.3276906  35.7305312  46.9273806  13.6352968  36.3880992
  46.5515947  13.8807642  34.9425817 112.6069546  87.8116322  56.7734051
 112.4042892  87.0546818  56.2236881 111.9237804  87.8105259  57.4438572
 111.7700291  29.4297576  50.3694534 112.2152424  28.5857701  50.2939081
 110.8433723  29.2050600  50.4534435   3.6427602  95.6131649  52.2178411
   4.0466782  94.8776817  51.7572594   2.9720342  95.2109241  52.7697134
 106.2845135 101.2158108  71.1822128 105.9950829 100.6030369  71.8582058
 107.1648693 101.4746475  71.4546204   2.6274255 108.9361477  43.2515049
   2.2015113 108.7533760  42.4139929   3.4661880 108.4779835  43.1986809
  28.6227345  13.7579823  40.2825117  27.8604484  13.2123995  40.0888872
  29.2316127  13.5820496  39.5651937   1.6079894   9.2697704  55.8104134
   2.1386632   8.8751853  56.5024519   2.2305532   9.7805518  55.2929688
  20.4458046  86.2267876  41.4281559  19.7656953  85.8988190  42.0164776
  20.0261021  86.2537098  40.5682945  14.1032541  32.0577621  22.3670244
  14.1479170  31.1083341  22.2537756  13.1765842  32.2365785  22.5268340
 101.4528847  77.4421978  35.1528978 102.3745823  77.4928904  35.4061484
 101.0473824  78.2015419  35.5714607  50.8498764   4.4171381  37.3116112
  50.5209875   3.5966951  37.6789498  50.8828688   4.2607909  36.3678432
  75.5070400 106.2364769   1.8632580  75.2009106 105.7053661   2.5984076
  76.1212683 105.6691551   1.3973160  25.2856445  18.3785331  29.5819736
  25.3228807  19.0619802  28.9128351  25.7817411  18.7367296  30.3180552
  14.5511138   1.1403245  49.2365980  15.0116408   1.9038588  49.5846796
  14.6189606   0.4833081  49.9293852  89.9407291  15.8753991  38.5334754
  89.9523830  16.7115378  38.9992714  89.2431927  15.3750372  38.9569235
  24.8269153  16.6317105  56.5611792  25.7328439  16.6645396  56.8685007
  24.5478773  15.7325041  56.7337942  33.4722829   5.7850784  72.3646641
  34.1637373   6.2256944  72.8586102  33.1135964   5.1420194  72.9762602
  91.1013126  94.1206646  23.0430698  90.7326984  93.2385731  22.9955530
  91.9508743  94.0489864  22.6079440  41.0281038   6.0538214  27.3377442
  40.2621937   6.4576077  26.9296169  40.7594776   5.8902895  28.2418060
  51.7292023  96.3133621   8.5687095  51.0653973  95.6709862   8.3178294
  52.1114159  95.9613323   9.3725896 108.6798954  10.1383483  56.2428093
 108.6247921  10.9150231  55.6860590 108.6795616   9.4034737  55.6294680
  87.5073242  77.6517582  49.0643358  86.6063881  77.9626846  49.1530514
  87.4602318  76.7186213  49.2723417  12.8115952  15.0570655  34.9633694
  12.7868569  14.1003740  34.9443889  12.0636177  15.3266215  34.4303584
  99.2763901  88.7903881  40.5092955  99.5935059  88.9888191  39.6282220
  98.8088608  87.9605484  40.4143429 102.5007534  90.9243774  30.7514095
 102.9420948  90.3669071  31.3922524 102.9660034  90.7608795  29.9310184
 104.2860031  32.8536415  84.5799828 104.7062111  32.0033264  84.4510460
 104.4000244  33.0382419  85.5122662  81.4017487  93.0366230  69.9377108
  81.2520504  93.4627247  69.0937567  81.7053127  93.7405491  70.5109215
  28.0860448   8.3851105  59.4685078  28.5885286   7.9235160  60.1398277
  28.7445617   8.6928737  58.8457155  85.4770279  96.0843563  20.9966993
  85.7868767  95.4902172  21.6802382  84.5453358  96.1993980  21.1836243
  65.4131222 106.0091400  56.9827032  65.8461380 105.6303787  57.7477312
  65.0221014 106.8207455  57.3061752 102.0130157  94.5065117  62.7996445
 102.1530628  93.5784912  62.6114988 102.8386307  94.8000336  63.1849289
 112.4543858  40.7896566  38.1779981 112.7383804  41.6993999  38.0888987
 111.9423389  40.6200552  37.3872566  83.3359051  74.0449476  49.3338442
  83.8107586  74.5789003  48.6969423  83.9970779  73.4505033  49.6884060
 100.7532120 104.8717117  51.9315052 100.5602551 105.1857853  52.8148842
 101.6049480 104.4421768  52.0107317  82.9662895  93.8771915  24.3842387
  83.1110287  94.8233032  24.3720365  82.2227955  93.7410450  23.7969422
  95.2809238 104.6052933  25.8856034  95.5271912 105.5154419  25.7206202
  94.3659496 104.6512508  26.1629868  33.8052583   5.4815972  58.6769629
  34.4753885   5.0084311  59.1701889  33.4072137   6.0705721  59.3179798
 108.3375168   0.3025149  52.8246498 107.4211502   0.4898439  53.0281734
 108.3823013   0.3359468  51.8690825  61.2570047  17.2732329  42.8762627
  60.9711647  18.1859326  42.8374386  61.4049053  17.1079707  43.8074160
  66.3340044   4.1678685  62.9105091  66.9992924   4.8003426  62.6392174
  66.7072010   3.3158845  62.6844978 110.7582188   5.0764030  60.0481176
 111.6308880   4.6880901  59.9856949 110.1591015   4.3411434  59.9189711
  86.1506271  87.2325706  44.2577410  86.1094475  86.3682365  43.8485050
  86.8836212  87.1728134  44.8704195 111.3757515  26.9316220  65.4089022
 110.7738495  27.6572108  65.5746412 110.8232403  26.2409210  65.0429726
  48.1663132   2.6576158  59.7138214  48.9520597   2.1848923  59.9883461
  47.5799370   2.6062900  60.4686451 104.3223286  96.4714622  20.2954817
 104.9549294  95.9374428  19.8149920 104.7027683  97.3498058  20.2973056
  90.5836105  89.6195412  73.1846619  91.3271332  89.0185738  73.2319450
  90.9779835  90.4912376  73.2137918  18.1921864 103.6351299  49.5635986
  17.8978205 103.0792522  48.8420916  18.5009289 103.0202961  50.2290916
  76.4310503 109.4826412  34.1023397  75.9246206 108.8398743  33.6057377
  76.1175108 109.3911934  35.0020981 101.7818165  17.4916577  59.5873737
 101.7800426  16.7526054  58.9790726 102.5001144  18.0480504  59.2861795
  86.1352444 108.7078476  65.1387691  85.9112358 107.8579617  64.7596359
  85.9584332 108.6069775  66.0740709  81.7644691 107.1189880  84.6504879
  81.9087887 107.8680134  85.2287197  81.8163300 107.4846458  83.7674046
  34.5186090   6.1657357  41.6742468  33.7522697   6.3809508  41.1426115
  35.1311064   5.7622069  41.0592365  72.3724890  95.1896095  31.3820362
  72.3003578  94.7913361  30.5146217  71.7209864  95.8908653  31.3785386
 113.8800526  12.8685212  42.9876614 113.2986736  13.1300378  42.2736311
 113.4765530  12.0788813  43.3480644  70.2669096  97.4135113  32.2372127
  70.6606102  97.2425365  33.0927801  69.7153854  98.1832886  32.3768711
  21.4531279   5.0792694  49.6465731  21.1014819   5.2020556  48.7648153
  20.8089495   4.5242941  50.0861979  62.7084780  88.1166458  83.5227966
  62.0923805  88.8446426  83.6045074  62.5873089  87.7996349  82.6277828
  18.8238144   1.0658178  41.1224937  17.9198623   1.3109520  41.3200140
  19.3419981   1.8240838  41.3922167  67.8334713  73.4904814  67.3187542
  67.5456715  74.3427944  67.6457977  68.5372877  73.2309961  67.9133463
  31.2582278   4.6154526  16.4578092  31.1442924   4.7087649  15.5120051
  30.7646155   3.8265333  16.6818345  98.3650112  86.1704540  39.9740100
  97.9443932  86.2964249  39.1234541  97.9769802  85.3651047  40.3161764
  44.9968529   7.4781269  60.2334595  44.7195101   6.9266742  59.5018768
  44.9130821   8.3729601  59.9040890  18.6104703 104.7034264  75.1721954
  17.9121959 104.1197395  74.8756313  19.3972158 104.1582394  75.1658344
  75.9714317 102.2031879  35.9830761  76.0580635 102.4328518  35.0578809
  76.1107302 101.2565327  36.0089302  12.9440582  44.4863224  25.1481771
  13.2901442  45.3753138  25.2265835  12.3024309  44.5406866  24.4399476
  17.1562266  13.7011254  74.1175604  16.4239347  13.6074197  74.7268248
  16.9080031  14.4353557  73.5558462   1.8605450  87.1788216  67.7107763
   2.1369949  86.5616417  68.3881950   2.0522346  86.7314720  66.8865442
   7.4423409  19.6159470  60.0575686   6.8878734  20.0513148  59.4100714
   8.3363575  19.7907937  59.7636366  29.4060564   9.7357512  55.3626728
  29.1216779  10.4701805  55.9067059  29.1244793   9.9697071  54.4782448
  50.0744629  72.4336052   9.2927426  50.6769562  72.0329666   9.9194169
  50.1001930  71.8538523   8.5315228  88.8522530 102.3593330  78.7360239
  87.9318142 102.1136856  78.6428165  88.8304806 103.2905483  78.9565039
   9.2758769  32.7719069  57.3338127   8.7966186  31.9998670  57.6346397
   8.9931458  33.4731102  57.9208469 105.7715416 100.6782532  22.8366113
 105.5847359 100.6394577  23.7746024 106.2696743 101.4879608  22.7248931
  23.3462906   4.4053036  70.6581974  23.2231712   5.3492010  70.7588482
  22.4664521   4.0649348  70.4961300   5.3762972 102.5817490  66.8954897
   5.6390536 103.3365631  66.3687468   4.7350588 102.9325485  67.5135422
  88.6784935  72.1631384  66.3075638  88.8391495  72.7416563  67.0530415
  88.0298615  72.6280642  65.7790184  53.6482668  75.3874922  15.6472862
  52.7424717  75.5036926  15.9341085  53.5753393  75.0441170  14.7567785
 109.1418266  89.6622372  51.9872522 109.6685123  90.3955746  51.6693735
 109.3518353  89.6027660  52.9192352  15.4711890  22.6331210  51.5534592
  15.3472877  23.4526753  51.0747004  15.2909791  21.9492960  50.9083700
  97.3438263  87.2215557  93.7251091  97.2500896  88.1293869  93.4365177
  97.4539661  87.2820377  94.6740246  94.4806671 103.3724022  41.0153532
  95.2541161 102.9450035  40.6474638  94.0195560 103.7281990  40.2557421
  80.3750134  95.3861809  64.8010874  80.7477760  96.2603760  64.6868181
  79.8945236  95.2227211  63.9895153  89.0895939  92.1913433  26.8072844
  89.2546749  92.5992680  27.6573300  89.3971157  92.8349686  26.1689973
  67.4295950  12.5951743  63.1167746  66.7088795  13.2225132  63.1737232
  68.2105446  13.1080210  63.3249521  85.7301521 101.4371300  55.1039314
  85.3015709 102.1702766  54.6622896  85.0308514 100.7979679  55.2406073
  71.2542677  62.1929455   4.5276538  70.6498146  62.8960657   4.7653294
  71.5192890  62.3978138   3.6309791 100.6365776  86.1995125  50.5646420
 100.9937954  86.2675953  49.6792078  99.6873951  86.2093258  50.4413891
 110.4612350  81.9854164  13.7984884 110.7207775  82.7458382  14.3186975
 109.6014214  81.7424583  14.1418874   2.3574679   2.8508511  48.8638878
   1.6968694   2.5965121  48.2195616   3.1656492   2.4438399  48.5517693
  70.3811455 106.9894314  28.6269164  70.7500553 107.0972443  27.7502680
  69.5757580 107.5065327  28.6131024  12.2971821   4.0841544  33.7413335
  11.9418359   4.8910972  33.3687687  12.1980095   4.1930473  34.6871352
 110.6999016  30.0376821  16.6519487 110.0402451  30.7195354  16.7790532
 110.3876209  29.3013191  17.1777678  86.1389160  93.1582069  26.9629240
  86.2627697  94.0953827  27.1132159  86.9758606  92.8600883  26.6067123
  12.8623009  70.0494814  93.8036060  13.5804117  70.1841164  93.1852055
  13.1566525  69.3275738  94.3589783  83.8088036  93.0943489  48.5266733
  83.7173843  92.4515724  49.2300272  83.0211926  93.6343956  48.5918808
  72.5149393  10.0858641  86.3376427  73.3758259  10.5006182  86.2821102
  72.2446012   9.9722296  85.4264736  29.9707675   4.3830052  45.3483343
  29.2038274   3.9111131  45.6729174  29.6455884   5.2612770  45.1505280
   8.2678545  12.4337566  21.0128832   8.8315600  11.7592561  21.3917208
   8.5964715  13.2544422  21.3799238  15.5419064 109.2164326  56.5332174
  15.1957285 108.8948059  57.3656511  15.7487702 108.4240437  56.0376740
  78.6977053  79.7856712  61.4579201  78.4333467  79.5336008  62.3426819
  79.6387815  79.6128607  61.4307499   8.2847381   2.6862594  53.9058399
   8.8622445   3.3477226  53.5248089   8.5799730   2.6042771  54.8126745
  27.5467563  37.8375912  49.8798418  26.9007969  38.3864665  50.3244829
  27.9085994  38.4003139  49.1952658  35.7120442  15.9835076  57.2760725
  35.0450706  16.1941481  56.6226149  36.1316562  16.8219459  57.4688911
   6.3560110   6.6629392  20.3861403   5.6412596   6.0896486  20.6630874
   7.1370530   6.2837797  20.7891822  96.8683434  87.0653439  58.7011671
  96.3186169  86.9251823  57.9302025  97.0594215  86.1841679  59.0224791
  95.2345562  94.9395370  41.8653870  95.2751160  95.3736305  42.7175283
  94.6777630  94.1749382  42.0123482  19.7974253   1.0561769  56.9362640
  20.1197290   1.8207616  57.4135065  18.9997733   1.3620661  56.5045071
  58.3252430   6.4413577  36.2122798  58.6551857   6.3271391  37.1035290
  57.7120733   7.1736217  36.2758851   7.2256231  98.5401535  37.7637506
   6.3282466  98.2257557  37.6537609   7.6230270  97.9208946  38.3759737
  34.0136290  15.7637489  31.2958288  34.3129015  15.8553302  32.2004175
  34.4466186  16.4771032  30.8269167  19.8906553 107.2931099  54.7927094
  19.7009456 108.2241631  54.6770477  20.6963754 107.2751999  55.3091621
  12.5714886  14.4541299  38.8681650  11.8866873  14.3248069  38.2119989
  13.3813918  14.5108151  38.3611393  25.3817034  17.7820122   8.3351922
  25.4009104  18.2739663   9.1560727  26.2575221  17.4026358   8.2627720
  96.8147755  96.3898659  39.9220014  96.1582184  96.1073208  40.5586576
  97.5339508  96.7297840  40.4544163 115.3570652  93.5915470  77.3190832
 116.2148476  93.6253357  77.7425241 114.7405910  93.4508991  78.0376959
   8.1405675 105.5963516  31.1544871   7.4189323 105.1701546  31.6169143
   8.8327682 105.6745338  31.8109751 102.3697948 107.4749088  26.0966063
 103.2042408 107.9093838  25.9201026 101.7201519 108.1764126  26.0510349
  11.5767932  14.8156881  16.9121504  11.3710606  15.4197443  16.1986923
  12.5054657  14.6150291  16.7958045  31.5463281   1.3357405  36.3857031
  31.5971208   1.9922498  37.0804310  32.3076630   0.7740203  36.5308571
 102.7325344  84.2088509  29.0412688 102.7125168  84.9207306  29.6808481
 103.2701397  84.5458317  28.3245659  15.5476213 100.0622082  28.6215878
  14.9541724 100.0258636  27.8714323  16.2884974  99.5118332  28.3677578
  66.1696100   4.4712034  74.2356730  66.3116789   4.6058044  75.1726532
  65.2176523   4.4686684  74.1356945  78.1415510  89.8916340  36.0665321
  77.9428101  89.1652107  35.4757285  77.2946215  90.3072262  36.2284946
 111.6600990  50.6291771  45.7941389 112.6061440  50.4861259  45.8220387
 111.4091587  50.7508612  46.7098093  38.7421465   2.9435605  48.1112051
  39.3684912   2.3207194  48.4799767  38.4512091   3.4628919  48.8607931
  21.5893269  30.3064036  43.2193804  21.7912078  31.1461473  42.8067017
  20.6336570  30.2549291  43.2026720 105.2794552  97.2679043  46.8156004
 105.9083080  97.1087265  46.1117268 105.1449299  98.2155609  46.8068218
  59.0197897  17.4300313  63.7491608  58.4308815  18.1749892  63.6289215
  58.9506674  17.2178817  64.6799946  10.6542408  17.5530303  47.6589394
  10.7492507  18.4718800  47.4080992  11.5366793  17.2811234  47.9111338
  11.2305176  97.6525688  41.2680483  10.6730127  96.8827629  41.1548138
  12.1071899  97.2948360  41.4084244   5.8054793   0.6670574  85.9760952
   5.8227783   1.6123232  86.1257744   6.0506368   0.2864854  86.8194771
  54.2273712  20.1481295  14.7959924  54.8259306  20.4358053  15.4853427
  54.0854788  20.9289312  14.2607820 113.9621067  53.7885475  42.5168943
 114.8183155  53.4454012  42.2612000 113.4665966  53.0165577  42.7902746
  97.6222038  68.2464504  60.8196354  97.1819210  68.5784388  60.0372267
  98.4901428  68.6493444  60.7951975  41.8324280 101.1749268  79.9457836
  42.5501060 101.6181850  79.4933558  41.1872482 101.0024166  79.2600632
 107.4537324  82.8370578  -0.0865348 107.9593801  82.4563701   0.6315343
 106.8338155  82.1506817  -0.3331645  88.8119602 104.7368050  42.9169655
  88.6464977 104.6924686  43.8587141  88.3962250 105.5529404  42.6388979
  42.6914120   4.9786901  43.0202723  42.8629732   4.0450746  43.1433964
  41.7668390   5.0221813  42.7763319  76.8079948  87.4300766  25.1861072
  76.4544773  86.8242073  24.5348096  76.6281652  87.0095062  26.0269499
  46.5877104   4.3657562  40.5578184  46.6353607   3.9731988  41.4295197
  46.7799044   3.6439455  39.9592519 111.8454075  98.5649681  43.4717894
 111.0237598  98.8525772  43.0737782 112.4836636  99.2283535  43.2095575
  14.3064308   1.0819610  62.5950480  14.3217874   1.6306493  61.8108654
  13.9847493   0.2343257  62.2880173 101.2561893 108.1433487  20.4994035
 101.8375206 108.7379742  20.0253630 101.6975880 107.2949123  20.4600787
  16.6715539   7.6748043  12.4398172  15.8636045   7.6442593  11.9274533
  17.3549569   7.8681290  11.7980874  25.8652544 101.8937588  76.8598223
  25.5743170 102.0718193  75.9654617  25.5486321 102.6406670  77.3678637
  67.9215622   9.5943022  94.6413136  67.5196505   9.2529333  93.8424587
  68.7495756   9.9752611  94.3489265 106.4156532  99.2786980  20.3919005
 106.1336136  99.8249435  21.1255956 106.0359192  99.6991920  19.6203947
  62.9940367  18.3329320  16.4650834  62.5132084  18.6830366  17.2150588
  62.4060631  18.4640467  15.7212222  30.4602146  26.9062924  36.9503331
  31.1639118  26.7579246  37.5820208  30.3654671  27.8581905  36.9165277
  59.7892475  21.0293555  16.8264902  59.5928097  20.1050973  16.9794357
  60.4655743  21.2401819  17.4702036 106.2160301  88.9851665  14.1148567
 106.3506317  88.7151146  13.2064581 105.5465984  89.6675301  14.0651894
   1.1744679 101.5924263  34.3082404   0.9501158 102.4137020  33.8707471
   1.9211467 101.2540150  33.8140917 112.8651524 106.7941761  32.9576015
 111.9563484 107.0874405  32.8920078 113.2061958 107.2424126  33.7315583
 115.5815220  10.3209031  34.3667459 116.1218929   9.5393920  34.2506599
 114.7128487   9.9815911  34.5824003  63.7480021  23.1737804  47.5769615
  63.0248547  22.7665281  48.0538559  63.7413740  24.0864229  47.8655291
  30.8270359  19.0404963  59.8568535  31.4292288  19.5285010  59.2952108
  31.3966870  18.5287511  60.4311800   5.3306836 105.5196953  61.6770697
   4.9544784 104.8152065  62.2047043   4.8297828 106.2972355  61.9235754
  46.0161209  94.3127537  55.8474159  45.8422041  94.3554306  54.9071169
  46.0574865  95.2278519  56.1251116  72.8047228  78.8932371  41.4594841
  73.4477329  78.8819361  42.1684551  72.0420980  79.3334246  41.8348026
   8.0281180 105.7018471  28.3779812   7.1486974 106.0667515  28.2795048
   8.0209041 105.2892685  29.2416692  40.3314447 106.6717815  21.5944624
  41.0502291 106.6080952  20.9655523  40.7634544 106.7370892  22.4461293
  22.9344010  15.5434477  50.7722330  23.7733722  15.8899319  51.0760546
  22.3473096  16.2994492  50.7766676 106.9560432  92.0779610  66.4093304
 107.0971584  91.1320305  66.4484692 107.8227329  92.4557972  66.5587568
  12.8305078   8.3470160  10.8970094  12.7376795   7.4717033  10.5209208
  13.5392678   8.7494361  10.3950644  20.9277010 102.2525883  21.7288017
  21.4705825 102.8915977  21.2670827  20.4495645 102.7688789  22.3776913
 104.2288399 107.9269981  45.8108950 105.1676273 107.7407074  45.8252859
 103.9406300 107.7747536  46.7108870   1.3891055  14.4163299  44.9385691
   2.0475993  14.6672487  45.5863810   1.8709610  14.3700409  44.1127968
  10.2216721  79.6693802   5.7597876   9.5697349  78.9698029   5.7172734
  10.2423310  79.9217415   6.6828895  11.9829381  52.1963263  57.4753618
  12.1241677  53.0904102  57.7866459  11.8363941  52.2907400  56.5341663
  41.1420774  43.2657146  16.0419405  41.3365984  42.9492950  16.9241393
  40.3342247  43.7695122  16.1408925   3.0129462  80.8249378  39.5991707
   3.7726203  81.2628365  39.2152810   2.6169053  81.4861012  40.1668358
  97.1763420 107.9371738  65.8030605  96.2419319 107.7543259  65.9015083
  97.2222805 108.8837433  65.6683922  80.8385944 104.5085335  31.5682817
  80.9803391 103.8491726  30.8890295  80.4226875 104.0288639  32.2846365
  87.8436852  88.7012863  50.0747633  88.0461121  89.5473862  49.6755552
  88.0661488  88.0590820  49.4007301  83.5499096  96.6370106  23.8620853
  82.6930046  96.9816113  23.6106944  83.9420509  97.3322582  24.3903780
   6.0720122 103.3372211  23.9001513   6.9817412 103.2366562  24.1803479
   5.7230115 104.0282631  24.4630885 106.2756157  25.4742336  46.2232304
 106.6500282  25.3603578  47.0967722 105.9814072  26.3849282  46.2056017
   7.6751196  12.0255959  41.3647223   8.4284610  12.5993323  41.2249517
   7.8727102  11.5652585  42.1803665  21.3792586  11.9272065  26.8589711
  21.9335175  11.3905501  27.4255633  21.8494010  12.7573073  26.7806745
  79.4484329  72.2752619  52.5546598  79.0191793  71.7812729  51.8561316
  80.3739738  72.2803020  52.3105478  75.6851339  86.4275265  44.5645285
  75.6267548  85.7698536  45.2575636  76.1320639  85.9795952  43.8463020
  30.4606509  33.7765551  40.7222414  30.2681947  34.7037721  40.8617401
  29.6078300  33.3785725  40.5474997 100.3222370  99.3696404  25.4438448
 100.1387119  99.2580795  26.3766408 100.3735352  98.4772491  25.1014328
  38.1720209  22.0297217  48.6883688  37.9117060  21.3230133  49.2791557
  39.1198015  21.9301367  48.5987949  69.6164131  45.3250551  38.3603144
  70.4401875  44.8447132  38.4434247  69.7681952  45.9382010  37.6411176
  10.0889599  98.4828091   1.1113267   9.3019128  98.1650639   1.5538499
  10.2025378  97.8892231   0.3690417  11.7559791  11.1120319  27.9655910
  11.3772655  10.6744576  28.7280440  11.0277414  11.6029382  27.5849175
  20.8727193  96.0963726  46.5579271  21.5589905  96.7059612  46.2865210
  20.4406881  95.8434296  45.7420826  39.6914101  11.4641941  29.6062899
  39.0121579  11.4066982  30.2782559  39.2400837  11.2478161  28.7903762
  53.2930994   6.3925487   2.5045729  53.2729769   6.0917562   1.5960845
  52.3750639   6.5500295   2.7251187  36.8307996  12.6288939  40.7703304
  37.0924401  12.6000452  41.6906261  37.6520419  12.7394652  40.2911997
  37.2296047   8.6203164   7.6902401  36.4723086   9.0605915   7.3043770
  37.9607916   8.8573098   7.1197730  68.9358330   3.4125587  39.4906545
  68.1556845   2.8689238  39.6005034  68.5966539   4.3033916  39.4034338
  57.6553679  15.3723085  19.9738932  57.6435995  14.5096910  19.5591819
  56.7500877  15.6779611  19.9166298  39.2308235   0.4182917  50.8905315
  38.3889794   0.3201691  51.3353920  39.0608859   0.1369508  49.9915314
 115.4956341  96.8297482  27.2187495 115.2284431  97.6032162  27.7153301
 115.4697323  97.1114826  26.3043141   5.3205520  95.6051540  37.0760036
   4.5017695  95.1746082  37.3218870   5.1190716  96.5402889  37.1101165
  53.3416271  19.5206189  77.6099443  53.6417675  20.3318882  78.0198050
  54.0619659  18.9044189  77.7427721  99.8411942  65.6444359  88.9916325
  98.8926983  65.7276726  89.0898895  99.9989128  64.7003841  88.9806271
  69.9934864  37.2165704  57.9898024  70.0599051  36.8642783  57.1022749
  70.7956791  36.9257736  58.4235764  33.1137991  17.6011348  19.6435320
  33.4225297  17.0883226  20.3904867  33.8261843  17.5489473  19.0063369
  25.7527161 107.9793453  32.2134447  26.0672116 107.7356720  31.3428450
  24.8347473 108.2150269  32.0792103 105.0568581  84.0482998   1.0594576
 105.0928497  84.9827480   1.2637675 105.8696175  83.8755512   0.5842617
  61.4119101  10.1780283  16.4880598  62.0071840  10.7989454  16.9079959
  61.0590792  10.6550550  15.7369363  62.1877861  21.6986346  23.8645816
  62.1610451  22.3140812  24.5972085  61.6001272  20.9896493  24.1257882
  28.3730221   4.3793818  42.5785446  28.3962631   4.7740814  43.4502649
  27.4419165   4.2471877  42.4002266  21.0970664  91.2020111   6.1532080
  20.9893155  92.0541859   6.5756053  21.5845346  91.3919353   5.3516257
  44.5131350  35.1766610  24.4392920  45.0859261  35.6918621  25.0073719
  44.8964453  35.2674437  23.5669017  42.0206022  39.9256945  21.5211010
  41.3024426  40.5101442  21.7637992  42.7382231  40.5133820  21.2847209
  11.9499958  14.5220578  26.2055230  11.1239576  14.7040761  26.6535878
  11.9704533  15.1445675  25.4786849 110.1418114  65.3224230  47.1318436
 109.3232250  64.8969173  46.8767023 110.8232975  64.6954060  46.8896437
  72.3265648   1.3212323  22.9653120  73.0282354   1.3378628  22.3144555
  72.3124790   2.2081554  23.3250356  56.8141079  21.0059214  22.2251034
  56.9904947  20.9423494  23.1637597  57.5964928  21.4209056  21.8619394
 111.3974190  48.2142735  51.8150997 111.9217396  48.1883621  51.0146952
 110.7697010  47.4988174  51.7134857 110.0391483  97.4875927  62.3458338
 110.7526016  98.1219769  62.4149132 109.2428017  98.0162239  62.3969936
  45.2820015  10.1851165  45.1078224  45.9509277   9.9303448  45.7433224
  45.0037766  11.0566545  45.3893280  53.5264206   2.3510143  15.1380408
  53.6537123   3.1678075  15.6206155  54.0600300   1.7098227  15.6074774
  99.6274471  87.1906281  30.1743126  98.7510777  87.1032906  30.5492496
  99.5411015  87.8869247  29.5231962  49.7989893  13.5465431  13.3931994
  50.6616354  13.1996763  13.1657124  49.1820335  12.9101682  13.0317819
  78.3609056  55.0608778  26.2772894  79.2339754  54.9335432  26.6484571
  78.1314850  54.2085934  25.9068680  61.4078712  87.5717735  89.2101669
  62.2534466  87.2117424  89.4777584  60.7665110  86.9319534  89.5192242
  23.0170941  11.0962868   5.7471585  23.3205867  11.9967163   5.8627027
  22.2063565  11.0499096   6.2538993  42.0128536   4.8478603  32.0201063
  42.9109764   4.6566749  32.2903919  41.4693451   4.3170711  32.6024270
  50.1260853   7.6274693  10.1993167  50.2558851   7.2543764  11.0712028
  49.1762209   7.6357830  10.0813365  63.5329342  15.4059160  16.1329532
  63.6880732  16.3415515  16.0035348  64.2463732  14.9772036  15.6602585
  23.6362839   1.8117218  60.9137964  23.8767219   0.9344189  61.2117243
  22.7738428   1.7007911  60.5136442  19.9685490 108.1257057   8.6271799
  20.0988054 107.7132416   9.4810772  19.5586848 107.4455833   8.0926925
  88.3026886  64.8253059  76.2137318  88.2984066  63.9979696  75.7323551
  87.4986458  65.2662563  75.9392834  97.4510479 105.3864670  54.9356794
  97.3361301 105.3241825  53.9874458  96.7882347 106.0174465  55.2163410
  77.3422527 106.9949341  26.5467882  77.5224876 107.8921890  26.2663031
  76.9995880 106.5635586  25.7640195  41.9415617  96.5584755  20.4430318
  41.1179543  96.3409615  20.0064731  42.2675800  95.7203007  20.7707572
  32.2047949  32.4688172  39.1055894  31.6427660  32.9204750  39.7351623
  32.2996068  33.0880404  38.3818460  44.0210581   4.1168472   6.1608905
  44.9231815   3.9157748   5.9119457  44.0535498   4.2261684   7.1112722
  19.2159855  33.1881642  15.7725048  19.0841544  32.3652411  15.3017068
  20.1486397  33.3768082  15.6685722  51.3267374  17.7253747  11.0789776
  51.1251545  18.5887349  11.4398181  51.2574911  17.1313095  11.8263221
  20.5120325 101.1031342  29.6020579  20.7591224 101.8515491  29.0588617
  20.0051665 100.5397511  29.0173244  21.8248582  27.0617056  31.4194131
  21.8497062  28.0167937  31.4778924  22.7270651  26.7880607  31.5848684
  56.3763809  39.8066282  44.8231554  55.9343576  39.9611902  45.6579971
  57.3066473  39.9145532  45.0211096  38.7926149 101.7863846  31.1691356
  38.8778186 102.6164818  31.6380906  39.3540096 101.8868732  30.4003906
  64.0269709  24.3896914   0.7220844  63.4442854  24.4835305   1.4756778
  64.4054890  25.2606416   0.6020792  26.7261434  83.3343315  66.5265417
  26.6768956  82.7928257  67.3143053  25.8129430  83.4975719  66.2906361
  41.4444637  13.6531544  59.7848654  40.8120728  13.3428562  59.1367674
  41.5176010  14.5927453  59.6173859 108.3517742  88.2573986  34.6498990
 108.5726357  89.1140842  35.0153255 109.1398716  87.7303791  34.7817111
  94.6548748  91.0417843  57.3568106  95.5447960  91.1302567  57.0155859
  94.7712135  90.7015324  58.2438993  51.1895895  20.6904340  27.9981709
  51.8587685  20.0947309  27.6611710  51.1714554  21.4111352  27.3684931
  94.2585850  64.9819946  92.2037315  94.3885136  64.2157316  91.6449928
  94.3472672  64.6459055  93.0955887  12.8482091  22.6823664  26.4743567
  12.8680849  21.8012571  26.8478322  11.9173658  22.8712797  26.3557220
  90.7705307  19.0135944  38.8242316  90.4677105  19.3136322  37.9671955
  90.0030994  19.0931654  39.3907547  72.4743271   0.8354801  10.8090842
  73.4032679   0.9017120  10.5879164  72.0879364   0.3529360  10.0782716
  99.5508575  42.6396704  28.6285138 100.0076866  42.8720665  27.8201008
 100.1683617  42.8625345  29.3251181  23.9210486 105.3492069  43.7134743
  23.3010173 105.3441048  42.9842520  23.6341977 104.6304321  44.2767859
  45.4838800   2.6758739  25.4454422  46.3731194   2.9781350  25.2607059
  45.6043053   1.8737143  25.9536457  68.7037468  34.4630027  86.1668396
  69.0432262  35.0358009  86.8545055  69.4221830  33.8578296  85.9828663
  62.9931355  16.1819899  25.3321743  63.6285877  16.5557230  25.9427118
  62.7440214  15.3465283  25.7273674  35.9100747  20.3732824  43.5565042
  35.1097035  19.8694742  43.7041998  36.4290524  20.2362037  44.3490314
  40.5749655  19.1565931  18.1612253  40.9469748  18.9334774  17.3079622
  40.8778048  18.4602726  18.7440252  70.2646112   9.1368753  46.5659952
  70.1191378   8.8877404  47.4786806  70.7881212   9.9366349  46.6165543
 108.0400944 104.5737648  30.7111073 107.3749352 104.0433121  30.2724695
 107.5634003 105.0306797  31.4040947  60.7801867  14.4346082   4.5637676
  59.8784590  14.6088040   4.8335415  61.2224531  14.1625559   5.3678948
  25.1519537 107.8252792  10.9662020  25.2257133 108.6530590  10.4912484
  25.4405737 108.0325699  11.8550003  35.1459932   7.0616561  18.4960234
  35.9239769   6.5615976  18.7428343  34.6504021   6.4697635  17.9300857
  69.9438334  14.6204901  31.4026332  69.3147850  14.4909751  32.1123934
  70.7689047  14.2804134  31.7488074 104.6063519  89.1894722  33.1448936
 104.0310860  89.5646763  33.8116217 105.4724026  89.5417309  33.3500576
  22.6780510  11.5718365  23.3385873  23.4811425  12.0893276  23.3975649
  22.4420047  11.3914275  24.2485142  48.1401920  35.0044298  20.7820129
  48.6162090  35.0612116  21.6105175  48.5731983  35.6407118  20.2129054
  12.1511400 109.1401768  35.0170946  12.0142198 109.5101643  34.1449714
  12.6666021 108.3484459  34.8631692  96.0402393  83.4904766  20.6248975
  96.2815952  84.3096924  21.0571623  95.1215172  83.3579636  20.8586359
 103.8085747 101.5816021  32.6506519 102.8812790 101.4291763  32.8326368
 103.9068413 101.3775158  31.7206383  59.6532106  11.4471579  50.4150867
  60.2549028  11.4285231  49.6708727  59.7860384  12.3093998  50.8089495
  15.9479737  99.9202538  21.9506526  16.8160892 100.3094101  21.8450093
  16.0054266  99.0796566  21.4964056  30.8717465   5.0450766  61.2771749
  31.8116093   5.2246922  61.3022900  30.7652879   4.2522389  61.8028212
  80.6287384  54.7235680  46.1817312  79.9037170  54.9130583  45.5861902
  80.2211952  54.2664814  46.9174051  42.2500181  95.7964325  37.0020676
  42.7367115  95.3702927  36.2965393  41.3374567  95.5550861  36.8432736
   5.4282349  96.7024994  20.4650855   4.8642910  96.1224651  19.9534571
   5.2906656  97.5690365  20.0824332 102.3290634  34.7300029  90.4060459
 103.1203747  35.0537944  89.9756908 101.6319656  34.8754001  89.7663975
  51.3910866  33.8586617  45.3707027  50.5836344  34.1738057  45.7768297
  51.1214161  33.0920529  44.8649168  85.7725143  92.3239517  58.6159611
  84.8540211  92.1451283  58.4143925  85.7427597  92.8868198  59.3896103
  80.4605770  10.2886665  35.0316763  79.7978067  10.1789427  35.7135367
  80.7253551   9.3961298  34.8091936  21.6296315  11.2853980  37.1521926
  21.4699006  11.7581570  37.9690266  22.3295712  11.7778003  36.7234063
  67.9475975  16.6230273  48.9380598  67.4636555  15.9302926  48.4884453
  67.7635336  17.4127138  48.4293842  44.4329453  26.6351724  30.6457162
  45.0062418  25.8689690  30.6233597  43.5772753  26.3020420  30.3753686
  34.0484691 103.3954048  15.5517530  33.5402203 102.6076603  15.3584254
  34.8536277 103.0684566  15.9530735  26.9963765  14.1944551  24.4306254
  27.8093934  14.5524180  24.0741181  27.1317911  14.1901517  25.3781891
  43.1850052   9.7563571  50.5576897  43.8832188   9.1969717  50.8980036
  43.1114340   9.5129603  49.6348810  54.1513348  25.4635859  14.0805209
  54.5350504  26.1042404  14.6793139  54.5625544  25.6485939  13.2361865
  23.3545899  13.9077210  46.2351227  23.2638645  13.7664747  47.1774864
  23.2474184  14.8522830  46.1230993  53.7450838  17.5288177  28.7924004
  53.7682962  17.7490616  29.7236276  53.1029177  16.8217862  28.7294340
  18.3302009  84.4616508  15.6654668  18.6629355  84.1972637  16.5231490
  17.9924238  83.6532307  15.2799964  72.0502615  76.3543415  40.2705622
  71.8570852  77.1460533  40.7726669  72.1041727  76.6535473  39.3629265
  51.1224222 108.8862801  94.1958332  51.2328625 109.8224068  94.3622780
  50.7379055 108.8424015  93.3203602  46.6902447  15.3429377  75.6756830
  46.2616491  16.0922539  75.2620840  46.1117458  14.6033788  75.4896069
  34.1497540  26.4736724  25.6490302  33.6837029  27.3092556  25.6777978
  33.5735297  25.8951044  25.1495743  69.8636866   1.3193135   7.2223395
  70.4265022   1.6847312   6.5397412  69.6915245   2.0549552   7.8100663
  25.3944635  12.7950943  31.6149879  25.9923029  12.1319056  31.9599509
  25.2930617  12.5685143  30.6905365  23.5997701  61.2115622  41.9399023
  24.5053339  61.3771820  42.2021151  23.0817914  61.8136787  42.4741173
  13.1754076  12.3188496  16.8311071  13.0209589  12.8424549  16.0448408
  12.3021364  12.0460892  17.1125877  16.6443276  96.4814949  45.0552273
  17.4771428  96.7242813  44.6506262  16.5944481  97.0220852  45.8435822
  34.3605089  22.9747725  27.4323368  34.3615770  23.9260721  27.5384378
  34.2845941  22.6344371  28.3237648  69.6671581  43.4181261   8.9597189
  70.5529404  43.0553389   8.9630461  69.6659517  44.0536833   9.6754688
  54.4653082   2.8374588  26.1348510  55.0687933   3.3350432  26.6866183
  54.5115757   3.2674894  25.2809405  17.5472391   8.0631685  44.0675974
  17.5796831   8.9501804  44.4259119  17.8064597   8.1651545  43.1518269
  50.0433588  23.9080215  36.2876105  50.8733749  23.5051227  36.5425134
  49.4019556  23.2011437  36.3594484  62.1079636  86.9525051   7.7423882
  62.2179461  87.8725433   7.5022328  61.8220949  86.9758701   8.6556047
 107.6362705  91.0553455  20.3018665 107.8247070  91.0649300  19.3634486
 107.7414989  91.9662094  20.5766058  28.7036967  20.0563955  34.8290586
  28.8459659  20.3235459  33.9209700  29.0794897  20.7665634  35.3493214
 111.5880203 108.9722919  36.4370847 111.0413074 108.1876469  36.4779353
 111.9108295 109.0860939  37.3309946  53.5372448   7.0231712  26.8008590
  53.3871317   6.4999110  27.5881958  54.2076063   7.6561391  27.0581508
  29.1738844   8.1213278  42.7367592  28.6063981   8.3958024  42.0164442
  29.8826909   7.6378614  42.3123932  44.5340586  33.2221866  57.7661562
  45.3705597  33.1051230  57.3158312  44.6559525  32.7933073  58.6131716
  27.0059037  38.3965063  37.1014833  26.0593486  38.5360122  37.0731592
  27.1159101  37.6071692  37.6316524  97.5934887 103.1454849  46.3592911
  97.7264118 104.0568352  46.6200495  98.3342552 102.9500771  45.7854271
  48.2247400  25.5748296  31.9414806  48.1204033  24.6370435  32.1024251
  48.5698128  25.6279516  31.0502267   0.2983848 103.9272785  43.1696796
  -0.5361684 104.0362740  43.6256123   0.8824748 104.5623112  43.5841751
  69.0177488  22.9277754  22.4285674  69.5189810  22.3793888  21.8250227
  68.3862162  23.3822370  21.8710136  53.8977337  32.8184056  31.5511036
  53.5619307  32.9042125  30.6588554  54.5451260  33.5188365  31.6317606
 113.2704735  88.0132008   8.7759453 112.5189495  88.1551170   8.2003444
 112.9005814  88.0196285   9.6587658  25.8061647  19.1336381  10.7947469
  26.4200258  18.9566100  11.5075338  24.9518967  19.1901338  11.2228441
  35.7242799  39.6448207  37.6361036  35.5163789  38.7358141  37.8522372
  36.5523744  39.5941234  37.1586943  70.0461149  11.8463147  33.0122137
  69.6187401  11.8929982  32.1569920  70.9308243  11.5348303  32.8211761
  73.2308292  36.4796948  91.3028049  73.3999252  37.4203181  91.2492561
  73.6724234  36.2022758  92.1054649   0.3221560  11.0521877  16.7088711
   1.2421304  10.8265460  16.5711582   0.2667961  11.2754357  17.6380253
  55.2885675  36.3758922  40.0725794  55.3002071  36.2792540  41.0248184
  55.8601379  37.1242380  39.9007773  48.6602831   2.7413908  54.2195463
  48.9236689   1.8241794  54.1448307  49.4650745   3.2033157  54.4544268
  24.3843842  27.2164440  28.6506915  24.1417480  27.9080486  29.2663574
  23.5505414  26.9086623  28.2954335  60.3604221  14.1094136  54.3226290
  60.5626965  14.8875368  54.8420906  60.2225590  14.4425642  53.4359264
  45.7524109  18.6982977  32.0153904  45.3589582  18.1828034  32.7194452
  46.6843033  18.4828711  32.0528054   7.5435108  87.7562714  50.8150387
   7.2472167  88.1081867  51.6544437   7.7696544  86.8454838  51.0035801
  41.7437267   2.0511335   5.8645552  41.4679527   1.9530518   6.7759073
  42.5175381   2.6129061   5.9076047  26.7959502  21.1561135  -0.3165705
  26.5946820  20.3697614   0.1907556  26.7143204  21.8737868   0.3115384
  35.5713844   7.1367902  73.5799837  36.1124992   7.7313530  74.0995264
  35.8974552   7.2360337  72.6855230  24.8462939  92.8003597   5.0232786
  24.1012740  92.6492500   4.4416058  24.7301149  92.1663570   5.7309312
  65.0473738  33.5606194  18.0395913  65.9810877  33.4463954  18.2167053
  64.6097088  33.1086040  18.7609529  30.0117421  10.4424202  30.9976149
  29.5905375  10.5799377  30.1491404  29.2927170  10.4682052  31.6289401
  55.3801155  16.3675249  43.0549908  54.7950125  16.6404819  43.7616587
  54.7933769  16.1202800  42.3402643 103.6079597  90.7853127  56.7765331
 103.0775738  90.0786209  56.4084148 104.2293453  91.0049629  56.0823631
  52.6500368   6.8881369  13.1716597  52.9971218   7.1465576  12.3178542
  53.1233358   6.0851777  13.3895481  21.8837523  22.6053596  30.7214475
  21.5379477  23.4692144  30.4969406  22.2378159  22.7111816  31.6044378
  35.2848196  47.4964380  42.1783018  35.4815817  48.3061266  41.7072153
  34.3690419  47.3135853  41.9681835  10.9726465  30.2848053  69.4371748
  10.4752254  30.7056379  68.7359571  10.8169365  30.8350325  70.2047920
  94.8573017 100.3503704   2.5147298  94.2380047 101.0634327   2.6704168
  94.8184872  99.8211956   3.3114120  36.1897779   7.9844356  22.9929996
  36.5687728   8.6952949  23.5099864  36.9091678   7.3640966  22.8751397
  35.7094860   1.2975700  24.1610694  35.5150247   0.4633033  24.5881701
  34.8667669   1.5918778  23.8154697  63.3881950  25.3360581  55.9729099
  63.9145327  24.8951983  56.6398764  62.4833632  25.1276851  56.2054968
 103.8533115 106.9027424  30.8316016 103.2582951 107.0203400  30.0910926
 104.7053814 106.7334652  30.4296589   9.9308240  79.1989756  39.3271351
   9.7072458  79.7724104  40.0602198  10.8372164  79.4226789  39.1158485
  27.3905087 103.6566830  50.6279373  27.0358634 103.8961029  49.7717047
  26.6879678 103.8631439  51.2444115  47.3845387  10.9590614  33.9475131
  48.0596828  11.6127861  33.7656951  46.9580030  10.8139837  33.1029701
  54.0201044  15.6284475  15.6010318  54.0787792  15.8468044  14.6709192
  53.7642002  16.4481986  16.0238230  33.9910483  17.7171528  87.8260422
  34.8202181  18.0108488  87.4486160  34.2465281  17.1630538  88.5635662
   5.3528994  87.4336624  12.3716319   5.3808355  87.5733852  11.4250970
   6.2105578  87.0659924  12.5848818  92.1039486  31.1163378  25.2073884
  92.1119404  30.6503153  26.0434461  91.2190628  30.9833479  24.8674989
  45.5850840  93.4841156  33.5315108  46.1112261  94.2258549  33.8302302
  45.0712299  93.8328743  32.8031206 109.0569592 101.3163471  47.0892811
 108.2058716 101.7456722  47.1762133 109.6939659 102.0134544  47.2457600
  73.0637121 102.6683998  55.1741171  73.7507200 102.5971985  55.8368301
  73.2504606 103.4917355  54.7230339 103.7932682 108.4651470  66.9793272
 104.4145393 107.7404690  67.0508337 103.3016682 108.2810688  66.1789083
  37.3126101   6.3157809  61.8079615  37.9676199   6.4551878  61.1240292
  36.6546488   5.7539380  61.3985109  88.7490845   8.3605039   4.5768705
  87.8958511   8.7643039   4.7354978  89.0888500   8.8137788   3.8052917
 103.7582302 104.2676163  18.6819565 104.5473862 103.9131927  18.2722652
 103.5645390 103.6590481  19.3949497  54.9933577  33.6159587  56.7658806
  55.3897619  34.4761825  56.9041157  55.0789261  33.1742477  57.6107502
  59.5741129   7.2111487   2.4382128  59.8418951   6.6707462   1.6949166
  59.9570417   6.7767930   3.2003999  81.6481590  38.0106688  28.8958430
  80.7616520  37.7334261  28.6645865  81.6786098  37.9441309  29.8502421
  35.6581998   2.0932788  28.4212732  36.0085702   2.9360187  28.1327224
  35.9765935   1.9961493  29.3187284  44.5137644  34.0808225  28.4986997
  43.7260818  33.9766836  29.0324950  45.0030041  33.2690954  28.6327791
  20.5571651 102.0770931  48.2462406  20.3320909 102.7922440  47.6511526
  21.4786410 101.8940163  48.0629539  89.9237823  37.4420118  14.8661935
  90.3609657  36.9781947  14.1520703  89.3893433  38.1051564  14.4293392
  44.6352243  23.8230133  38.4090853  45.0777245  23.0597639  38.7804055
  43.7200451  23.5540605  38.3294487  89.8672009  28.3457184  22.0671415
  89.8769474  27.6318836  21.4295077  89.1989040  28.0898929  22.7028799
  10.7896578 107.1560097  46.7208147   9.8572910 107.3482227  46.8207121
  10.8166015 106.3961411  46.1393499  30.2114701  21.2287807  36.8965554
  31.1427450  21.4413738  36.8351817  30.1907372  20.3517270  37.2794104
 107.0218754 107.2233391  18.5175264 107.1766949 107.8703785  17.8293407
 106.5178394 107.6949406  19.1806781  64.7634077  20.4926896  23.7750173
  64.6959782  19.9032795  24.5262027  63.9602661  21.0125566  23.8056374
 115.2529430  38.2476568  91.8254662 115.8418751  38.9081717  92.1903133
 114.4388008  38.3547711  92.3173428  68.6479473  53.3857679  29.9262500
  68.1512737  54.1996479  30.0107837  69.4889069  53.6556101  29.5571947
  26.9411421 100.1496410  30.0168347  26.9268084 100.8795357  29.3977427
  27.8704667  99.9510384  30.1314902  27.9229379  20.6409574  48.9101315
  27.9837966  20.2007985  49.7579432  26.9932270  20.8472061  48.8135338
  86.1552715  97.5258064  36.2812471  87.0689678  97.2737789  36.1475086
  85.6676960  96.7050934  36.2109900 106.8809700 108.2477188  45.0600052
 106.7043591 108.9724255  44.4601345 107.7684593 107.9650307  44.8393917
   1.3560873 105.8853245  18.0819845   2.2860855 105.6967926  18.2076454
   1.2700510 106.8156624  18.2900882  19.1112947   1.4901797  46.1992979
  20.0068021   1.7878385  46.3596010  18.6572313   1.6393809  47.0286322
  59.3850994  16.1114120  22.4314976  59.7878551  15.2505779  22.3175430
  58.6505127  16.1152864  21.8178201  15.2488577  95.0673389   8.6095959
  15.9057748  94.6365643   8.0626768  15.7578182  95.5347252   9.2719746
  94.0906048  71.1876822   6.0893887  95.0101948  71.4353895   5.9933227
  93.6148167  72.0177984   6.0618562 100.7400131 103.2806873  69.6689558
 101.6535091 103.4213257  69.4199896 100.2400112 103.8308525  69.0660095
  43.9484835  24.6281123  45.8221817  43.9555883  25.0567508  46.6780138
  43.4979630  23.7973452  45.9741259 112.4658871  85.8406639  30.4474401
 112.8694725  85.2678776  31.0995603 113.1560040  86.4615822  30.2141452
  73.0112314   0.0391217  19.9762130  73.0232716  -0.2978844  19.0803814
  73.2944918   0.9496910  19.8933887 104.3813896  91.2076378  13.8231289
 103.6914349  90.9476948  14.4335568 104.4581795  92.1548462  13.9377069
 100.2203655 100.1926708  22.7245426 100.9686089  99.7461605  22.3283434
 100.1471233  99.8082638  23.5980964  41.8664408  28.0397987  46.6853285
  41.8813181  28.0414462  45.7282448  41.2391138  28.7248850  46.9162989
  36.7294335   1.5472916  14.1106319  36.6857696   2.0294443  13.2848883
  35.8145761   1.4069971  14.3547332  34.2153978  25.8995199  20.3974104
  33.9997125  26.6568518  19.8532033  33.3753109  25.4665232  20.5490661
 113.3891010  33.4260964  45.5171299 113.9092159  33.2878137  46.3087034
 112.7548504  34.0999031  45.7619619  38.2790756  27.6395416  65.9565496
  38.7389588  27.7356124  66.7905188  38.8829303  27.1409559  65.4060936
  39.3470359  30.3023887  34.9692559  38.3944345  30.3359032  35.0567889
  39.5273733  30.7486057  34.1418505  50.4363251  50.0195742  30.2900863
  49.7467756  50.3461170  30.8681226  50.1424503  50.2548075  29.4100094
 108.1476784  81.1879063  14.9513566 108.4081268  80.3199768  15.2597344
 107.1965408  81.2043858  15.0576258 113.6557102 107.2893620  38.9542103
 113.3386517 107.1679497  39.8491764 113.7558079 108.2368374  38.8620400
  75.5021715  34.2014313  27.2616959  75.8110905  33.2964754  27.2186232
  75.8639956  34.5392895  28.0809450  47.6122522  51.0262299  22.4009824
  47.6788759  50.4860497  21.6135836  46.7107058  50.9051275  22.6989388
  82.3157406  36.6609073  36.4221215  83.2130337  36.9104576  36.6430974
  81.8349171  36.7416573  37.2458434  79.5586967  22.0129681  34.9227953
  80.5022717  22.1432734  34.8283458  79.2179441  22.8801084  35.1423168
  92.5883675 102.8434181  24.0486145  92.9386425 103.6760998  23.7321258
  91.7190552 103.0615139  24.3847084 114.9204159  25.6893635  24.9459863
 115.2520657  24.8025942  25.0870061 115.5727291  26.2571120  25.3563356
  83.3828926  33.2302499   8.9278692  84.0425396  32.9039454   8.3157980
  83.7935829  33.9904499   9.3397707  53.6551666  30.9956717  15.5557096
  53.4447479  30.0706434  15.6832933  53.0672884  31.2807584  14.8561704
  56.8890142  15.0539136  40.7655287  57.6517057  15.4730582  40.3669691
  56.2042522  15.7219458  40.7329082  43.6168098  37.8025055  13.6381102
  44.0950727  37.3315191  14.3205106  44.2995453  38.1599879  13.0703855
  87.7933693  18.4373152  29.4116235  88.6871338  18.2013810  29.1631436
  87.8848553  18.8522720  30.2693367  39.6976328  50.0751829   0.8147970
  39.0604711  49.7030354   0.2050753  39.8990178  50.9383917   0.4534893
  53.2318497  17.4525428   2.4691387  53.6551237  17.9817545   1.7931168
  52.4889517  17.0448852   2.0239967  65.7920885  10.6512213  57.3791456
  65.8495522  11.5293896  57.7556419  66.6787481  10.2989614  57.4565220
  28.8842440  27.5834751  25.3471923  28.0891323  27.7728820  25.8453441
  29.4380045  27.0952511  25.9564710  66.3376236  36.8981457  50.0922823
  66.9098425  36.8770313  49.3252420  66.2474442  37.8285551  50.2982855
  48.2102966  32.7734280   2.3654336  48.4615946  33.6646509   2.1229355
  48.1768751  32.7858782   3.3219689  56.0621881  34.2846298  37.3217154
  56.3270617  33.7423778  38.0647063  55.5908108  35.0181985  37.7165699
  71.0924959  53.8946629  21.6741419  71.9668770  53.7880278  21.2995601
  70.5451393  53.2820368  21.1828971  62.5292206  98.5833073  10.0846493
  63.0340385  98.8728333  10.8446300  62.1942091  97.7219200  10.3336644
  76.4570761  97.2467041  76.5036440  75.5686522  97.6029491  76.5080357
  76.8292856  97.5416374  75.6725597  49.1381264  39.5553541  41.8699932
  48.8226795  40.3639746  42.2735453  48.3801937  38.9708424  41.8806553
  49.9690819  51.0243702  27.9683924  50.6803179  51.6573143  27.8695893
  49.9999046  50.5023718  27.1666455  64.7958374  48.5268307  40.4187584
  65.1703978  48.4497118  41.2962484  65.3564548  47.9783869  39.8699880
  76.0785437  40.0603294  14.5469069  76.5396214  40.8972311  14.6037889
  76.4362335  39.5404077  15.2666092  73.8021612  25.8537507  17.5778711
  72.9438162  26.2407565  17.7502203  73.9433146  25.2497482  18.3069050
  25.7398391  17.2746468  33.2280993  26.2141180  17.9339314  32.7215075
  26.1308050  16.4420700  32.9631567  50.3468037  43.7568903  19.0888357
  51.0402966  43.6974669  19.7459280  49.8374557  44.5251131  19.3469691
  19.7806215  80.2334595  47.3221970  20.1648760  79.3607759  47.4059296
  19.8362339  80.6051159  48.2025433  57.0186043  57.0362806  29.4333982
  56.2483025  57.5284719  29.7173333  56.9166613  56.1760330  29.8405981
  23.2714772  24.8024440   7.9738063  23.2592940  25.5105186   7.3298228
  24.1669154  24.8017144   8.3120686  12.9929757   9.5219159  72.8038073
  13.8103771   9.9084777  72.4897099  13.2220423   9.1287082  73.6459160
  26.9791484 107.5883484   4.4414592  26.5099907 108.4084320   4.5950589
  26.5236330 107.1867847   3.7015375  60.6156588  15.5450296  45.9854841
  61.5054131  15.6586552  45.6513166  60.6742525  14.7899067  46.5707922
  51.6572142  41.3212395  44.6666622  51.8303299  41.6540146  43.7860250
  50.7725811  40.9591389  44.6162653  74.5477772  50.1571608   4.6075282
  73.8895369  50.0970936   3.9151829  75.2337646  49.5457506   4.3395096
  66.4776707  40.0168276  24.6718788  66.6461515  39.4369936  25.4146051
  65.8124399  40.6269407  24.9904084 108.3053017 103.4146595  57.7276707
 107.4966908 103.8720608  57.9582310 108.0374718 102.7701187  57.0726347
  28.9495206  40.8379412  44.5139027  28.6734438  41.3220644  43.7356758
  28.3987904  40.0550508  44.5168400  79.3604279  14.9378228   7.2005159
  79.1989183  15.0905347   8.1315500  80.2803230  15.1710856   7.0755911
  68.4893608  18.5798585  31.0280156  68.1115389  17.8824925  31.5638924
  68.5561323  19.3281901  31.6211200  74.3417835  56.1070919  33.1596017
  73.8258553  55.4873753  33.6753511  74.2983818  56.9251776  33.6546612
  22.6029277   8.8731724  13.8146842  21.6787481   8.6319339  13.7519956
  22.9574800   8.2906806  14.4864190 112.9175663 105.6209183  94.4245720
 112.8482151 106.4723396  93.9927101 113.0196190 104.9958992  93.7068081
  33.7898469  28.4391999  36.0003972  33.1425977  29.0890169  35.7264709
  34.0693116  28.7305999  36.8682766  10.2146006  22.7459097  41.6625547
   9.3693304  23.0888915  41.9525719  10.8125222  22.9408550  42.3841619
   5.3357929  32.7437472  22.4187779   4.6083099  32.1461248  22.5915432
   5.8134568  32.7854061  23.2472301 108.3481503  94.0122318   6.0589463
 107.7670956  94.5937252   6.5493166 107.8920746  93.8602352   5.2312279
  54.4979477  16.6571963  31.4672661  55.3269243  16.4134502  31.0554194
  53.9729786  15.8572364  31.4407039  30.9146571  10.1958680  16.0943794
  30.4511118   9.5072222  15.6178033  31.8048930   9.8591632  16.1960781
  49.1404390  31.2588835  33.8697410  49.4397640  31.2132406  34.7777915
  49.1546249  30.3509474  33.5669518   9.7306895  34.8927164  23.1310105
  10.6331480  34.9728966  22.8221869   9.5645803  33.9501190  23.1432414
  55.6206417  38.7279773  61.3161802  56.1578226  37.9369617  61.3604927
  55.0882292  38.7007833  62.1111822  56.1912107  31.9930649  48.3179903
  55.7962370  31.1221337  48.2766914  55.6114340  32.5441623  47.7922678
  47.0151806  16.8874300  65.8691168  46.7977047  16.1633563  65.2820444
  47.9695320  16.9496393  65.8293724  44.3772364  39.9227023  56.5059566
  44.1494083  39.0873027  56.9139194  43.5904694  40.4591608  56.6031361
  32.6419401  16.9412863  14.3190920  32.3841357  17.7838433  14.6930802
  31.9631004  16.3323581  14.6099818  45.5959940  29.0816998  19.7522211
  46.4298153  28.7474585  19.4216824  45.7931566  29.9721861  20.0427246
  62.5614643  13.6213887  26.1052608  63.3479404  13.1680477  25.8016682
  61.8454409  13.0180407  25.9064746  51.2807274   9.4737840  54.5235348
  52.1269655   9.2415047  54.1412258  51.3484001   9.2012149  55.4386044
  79.3345118  24.7525811  29.0101671  78.4328938  24.8534417  29.3153572
  79.8568487  24.7233772  29.8117518  86.2300682   0.6986070  11.1624074
  86.4446735   1.4213407  11.7521799  85.2732086   0.6798074  11.1448967
  56.3697338  28.2463622   9.6457356  56.2823725  28.8483024  10.3848350
  57.2663021  27.9172373   9.7095674  49.1964531  37.0785522  49.0623474
  48.7122822  37.3424101  49.8447752  48.5783386  37.2082829  48.3430910
  48.3060312  67.1943331  28.0993891  49.0555954  67.7894831  28.0861855
  48.6724854  66.3423300  27.8626776  46.6585064  26.2006879   5.9273916
  47.4994898  26.1066985   5.4800200  46.8812227  26.5744114   6.7800099
   9.1381466  20.1107001   5.6888449   8.2153141  20.2527785   5.4780710
   9.5419168  20.9729171   5.5899262  57.4082088  32.6198602  31.2631488
  56.7164183  32.0248890  31.5524006  58.0350876  32.6279473  31.9864678
   9.7376621  96.3682842  44.1480303  10.4905045  96.9400406  44.2982483
   8.9770389  96.9256592  44.3124199  86.2439919 102.0916271  78.7673807
  85.9610367 102.9596519  79.0549755  85.7392406 101.4838982  79.3078566
  48.4494877  46.3652086  56.0296011  49.3497801  46.0535383  55.9370422
  48.5359669  47.2342110  56.4215088  61.1903572  33.6260557  41.1007357
  60.4788685  34.1463161  41.4740229  61.6326046  33.2456660  41.8596554
  59.9332476  23.9338493  27.9647899  59.2264891  23.3498716  28.2399154
  60.3734446  24.1773486  28.7791419  61.0439777  43.4672546   5.1919794
  60.3793335  44.0499878   5.5592650  60.6797981  43.1878710   4.3520108
  39.6172619  11.5773499  40.3163481  39.8257685  11.7144728  41.2404442
  40.4694748  11.4990032  39.8875976  39.5040083  41.9763327  63.4336662
  40.0606871  42.0776463  64.2057276  40.1012182  41.6861725  62.7441883
  42.6157904   3.8294286  87.8226376  43.1188393   3.9933226  87.0249462
  42.8276253   2.9261336  88.0580425  27.1465206  28.3860779  37.8396630
  27.4510479  28.1528497  38.7166452  27.4071026  27.6462746  37.2910118
  46.2800169  16.5606856  42.9872704  46.8354654  16.0751712  42.3773575
  46.4166260  17.4794710  42.7561760  21.7901731  44.2144537  31.1093664
  21.7672586  44.4355202  30.1783252  22.5406241  44.6996546  31.4523435
  32.4160743 102.2693157  31.5407300  31.8193722 102.1286201  30.8056235
  32.2251987 101.5518188  32.1448731  77.1544838  42.4565649  22.1349645
  76.3867664  41.8851137  22.1180987  77.5186253  42.3426390  23.0128336
  17.1776855 109.0230656  69.8057461  16.9137597 108.2173443  70.2500391
  16.4441490 109.2282200  69.2260313  32.0671749   1.1868743  33.6060524
  31.6644406   1.5952930  34.3723607  32.7220106   1.8206605  33.3132386
   3.9955333 105.3892612  18.2952142   4.5735782 106.1197472  18.5154057
   4.5445350 104.7952747  17.7833462  40.3175497  32.3117065   9.7110242
  40.7224894  32.3095679  10.5783486  40.0121403  31.4130473   9.5870674
  42.5490999  53.0181074  13.8226891  42.2540617  52.4807549  13.0875421
  42.9742527  52.3991728  14.4163203  74.1895485  58.1704712  34.8847389
  73.7714529  58.7295818  35.5395889  74.9115276  58.6988544  34.5444679
  47.8828907  29.6202540   6.0213995  47.7193069  29.3710589   6.9310004
  48.8330269  29.5582724   5.9232479  71.2747622  94.4776726   3.8926065
  71.0808516  95.3667355   4.1895843  71.4529228  94.5712566   2.9568005
  52.0297766  38.1757927  61.8899059  51.5254164  37.5119305  61.4196444
  51.5390682  38.9870620  61.7584515  61.1294365  31.8138456  63.3783913
  61.9413185  32.3195863  63.4145260  61.3996744  30.9137273  63.5600281
  29.7223997  30.3548956  27.0711040  28.8709354  30.3914738  26.6353273
  30.0271034  29.4590616  26.9266438  41.9910145  26.1263084  17.8262782
  41.2541628  26.6727614  18.0995476  41.6178131  25.5265689  17.1803164
  17.5667846  42.9954863  87.7768898  17.3854125  42.4999714  88.5755157
  17.1493065  43.8445663  87.9218292  52.9372263  19.8487961  44.2277861
  52.5580454  19.9753809  45.0975180  52.2111845  20.0075555  43.6245489
  41.5764189  30.3400874  18.1655097  40.8566809  30.0814152  17.5899243
  41.8305588  31.2092757  17.8554130  39.7144508  56.7650604  26.5892744
  39.4544649  55.8707714  26.8103766  39.5253038  57.2716808  27.3790812
  68.9961100  20.4194713  49.4618082  68.6144304  21.2867761  49.3263817
  69.9378204  20.5526948  49.3538141  15.9663069  96.1372280  24.2219305
  15.3817213  96.1334229  23.4639883  16.5132403  96.9130516  24.0986753
   9.2622697  27.0737123  48.9596319   8.6513233  27.7816033  49.1642427
   8.9212322  26.3174844  49.4371700  55.8976460  32.4999547  52.2062683
  55.0314045  32.9049158  52.1630335  55.8815765  31.9856238  53.0133867
  40.2717924  49.3915606  55.4810333  40.1063776  48.5033178  55.7971001
  41.1620045  49.5877790  55.7730055  33.8342237  45.9680748  44.6216011
  34.3172121  46.5169287  44.0037727  33.4803081  45.2584028  44.0855598
  44.0159225  44.0824938  26.1721325  43.8229275  44.0339565  27.1084166
  43.2773829  43.6415529  25.7521796  44.3021727  30.2033353  17.1860826
  43.4820795  30.4916143  17.5867987  44.7628736  29.7433019  17.8877640
  16.9870901  35.5009437  42.6010895  17.5757110  36.1182594  43.0354595
  16.6884446  34.9212646  43.3018112  49.2586899  15.9994149  36.2473559
  49.8393059  15.3180850  36.5863347  48.5024405  15.5218267  35.9064364
  70.7254410  38.8987827  34.5234656  70.6406689  38.5226321  35.3995681
  70.9607792  38.1570411  33.9660931  87.6969147   9.8325545  16.3368595
  88.5705757   9.7412920  15.9565616  87.8348637  10.3446150  17.1337259
  25.1161861  27.8870702   3.0428129  24.4690871  28.4136295   2.5735253
  24.5991302  27.2243094   3.5006675   7.1155351 104.7807407  42.5716591
   7.6985216 105.4808998  42.8651428   7.5935209 104.3531609  41.8610668
  46.4311552  31.1381555  24.9535608  46.3520622  31.9398952  25.4704618
  46.7104959  30.4736900  25.5833936  50.3942728  28.6360526  34.3293977
  49.8875046  28.3604288  35.0932360  50.9063911  27.8635383  34.0902638
  49.4720984  21.0306120  24.8339415  49.6723509  20.3401542  24.2019629
  50.3242731  21.4042020  25.0585723  97.4311733  33.4960675  45.5172729
  97.4314690  33.9023352  46.3839817  98.1084061  33.9670658  45.0317430
  58.0983114  23.8241506  55.0517368  57.6705170  23.8343835  55.9079599
  58.6466026  24.6087551  55.0485468  70.1361465  56.9155169  11.7625403
  69.9338150  56.4957857  12.5986755  71.0752153  56.7729330  11.6440129
  61.7394733   4.5075569  59.8166370  62.0555401   4.4160438  58.9177752
  61.6557598   5.4522628  59.9460793  37.8032470  54.3482447  34.9884582
  38.2165170  54.0340996  34.1842484  36.9981956  54.7738791  34.6935678
  53.5455179  35.6671667  44.2694044  52.7985668  36.2652922  44.2927217
  53.1531048  34.7961521  44.2095900  68.0336571  32.3973155  40.9355068
  68.2824659  32.1504140  41.8262148  68.7781477  32.1305990  40.3962183
  32.2830415  48.0473328  36.2678766  32.3537517  47.1607018  35.9141564
  32.9690886  48.0949974  36.9336843  36.3148761  34.6291518  35.9501481
  37.1108150  34.1635609  35.6933618  36.2606049  35.3650522  35.3404450
  14.3507779  14.1940868  19.1546392  13.8103390  13.8409078  18.4479415
  14.0300035  15.0874782  19.2778766  42.2552061  19.2339230  50.9000683
  43.1971598  19.0846944  50.8182621  42.0425558  18.9419925  51.7865133
   5.2814931   4.1303656  81.6278648   5.6963313   4.2997563  82.4737072
   4.9364528   3.2407853  81.7041874  46.5077448  35.1683092  36.0380363
  45.9152985  34.4262767  35.9171224  47.3636436  34.7686839  36.1928463
  76.1820555  30.9477711  49.1798544  76.2271738  29.9990082  49.0613461
  76.0166740  31.2912226  48.3018351  65.8649826  40.4111004  44.5694733
  65.4686832  41.0682821  45.1415682  66.3957262  39.8718786  45.1558065
  88.2190609  16.8297637  15.4982245  89.0146446  17.2898912  15.7657325
  88.4617615  16.3835347  14.6869254  68.2043600  36.7857552  48.2161617
  68.2677174  35.8631706  47.9690742  69.0279675  37.1709514  47.9169464
  57.8865480  22.0759487  28.0513787  58.0041218  21.7678571  27.1527767
  57.6528978  21.2900710  28.5453796  57.7046442  53.0967140  26.4406323
  58.2897568  52.4074221  26.1263847  57.4331284  53.5600710  25.6482840
  81.1497307  96.4124489  32.9742956  80.9514427  96.8597603  32.1515989
  81.1843300  95.4849339  32.7403259  51.6568708  41.4441347  27.2547340
  51.0879326  40.7822704  27.6477599  52.5017691  41.3212204  27.6874828
  26.2110591 100.3647804  66.1427641  25.9153867  99.6903324  65.5312634
  27.0803261 100.0737858  66.4183187  71.2027073  19.9802399   5.0505698
  72.0751667  19.6918273   5.3186440  71.2628651  20.0734210   4.0998173
 115.6840706  86.5660191  20.0199676 114.7857761  86.8901443  20.0850987
 116.2189865  87.3562527  19.9449682  80.1257038  47.3079395  17.7971399
  80.1482391  46.4463806  18.2136035  80.9978485  47.4130678  17.4169505
  50.8929825   6.6057974  63.4671021  50.3416109   6.2071115  62.7938461
  50.7543421   7.5472391  63.3636665  36.6184139  18.1410873  11.5324593
  36.4786029  17.6779711  12.3584187  36.7829752  17.4473739  10.8937800
  52.5777960  11.9176102   9.0555596  52.5543022  11.9322693   8.0987602
  52.1115160  11.1164892   9.2943478   2.0266052  19.6652663  53.9322186
   2.5566530  18.9018595  54.1613293   2.4884716  20.0651002  53.1953001
  54.7324467  21.3224125  29.4199252  55.1220798  21.7751312  30.1678991
  55.4243565  20.7407355  29.1050529  36.4682221   0.6907457  38.6321378
  36.0146809   1.5270182  38.7378740  37.2826219   0.9151910  38.1820178
  44.2002821  17.2515011  33.9401245  44.1764927  17.3202670  34.8945546
  43.5208750  16.6110969  33.7291241  81.6634274  42.9344749  50.1906538
  82.0728779  42.1737623  49.7784662  81.6304874  42.7137566  51.1214781
  92.3543835 106.3904953  37.2225332  92.1977806 107.1501541  37.7834487
  93.1746292 106.5907383  36.7716098  36.0075498  27.0732760  14.3407297
  35.2626944  26.7523527  14.8490918  36.6120625  26.3318658  14.3074429
  45.9890079  36.6833591  39.2028618  46.8103647  36.6061115  39.6882892
  46.2554693  36.9438505  38.3211732  39.3084097  29.6404696  16.7774177
  38.6202502  29.4027567  17.3988366  38.9582849  29.3863702  15.9235573
   4.0086251  97.2988701  26.9851780   4.4600403  98.0013943  26.5172887
   3.5212651  96.8331051  26.3056350  94.3366909  39.3417835  47.7851295
  94.5967960  39.4363332  48.7014484  95.0049305  38.7721872  47.4040222
  30.0096464  28.8925171  33.7495470  30.4977155  29.2736888  34.4794297
  29.2175603  29.4262218  33.6863828  15.1173246  86.4169121  70.6726646
  15.3272784  87.3383904  70.8244181  15.2381957  86.0000706  71.5258169
  54.5546961  21.5964532  35.4712319  54.8616076  21.3572359  34.5966983
  54.4675159  20.7615352  35.9311700  18.2508922 107.1372128  36.2381029
  18.5645080 106.3730335  36.7217398  18.1746936 106.8334866  35.3335714
  74.1693735  18.2842016  26.7778635  74.6105337  17.5803387  26.3022709
  74.8573446  18.6791897  27.3135066  22.3188496  16.4829791  33.7783599
  22.6104736  16.4723814  32.8667259  21.3651848  16.4200306  33.7255049
  75.2479887  15.3728449  45.0803280  75.3832006  15.5739009  44.1543007
  75.8642578  14.6638095  45.2639389  78.8909054  39.5159268  50.5374575
  79.0905619  40.4250956  50.7605743  78.2634020  39.5782852  49.8173285
  16.3077629  80.2827168  77.7977943  16.7768502  80.9354591  78.3175182
  15.7927430  80.7967663  77.1759081  74.0078545  42.0435762  60.0063324
  73.8291693  42.2454786  60.9247780  74.9307632  41.7900705  59.9919987
  48.2278347  24.2845035   9.7108054  48.0570316  24.0489483   8.7989002
  47.4018288  24.6555614  10.0210786  79.3308544  34.8511672  40.6932449
  79.5493269  35.6300688  41.2049198  78.3744097  34.8158598  40.7073116
  46.6798496  21.8403840  17.9150176  46.7830515  22.2993803  18.7486255
  47.5122690  21.9759083  17.4623168  64.3595123  17.4890375  65.9587765
  64.3108177  17.8620028  65.0785732  64.5922136  18.2288313  66.5198326
  99.9127579 101.3020802  78.3399677  99.8219299 102.0890999  78.8771725
 100.5362415 101.5489578  77.6569271  68.5153198   2.5858891  33.6344767
  67.8045177   2.1459122  34.1007519  68.0833054   3.0347508  32.9077601
   7.6334292 105.6407166   8.4272307   7.4310374 104.7124004   8.3110374
   8.5885006 105.6725311   8.4825265  49.0078878  37.9206514  68.0946159
  48.6644459  37.0403171  67.9420090  49.8088884  37.7810192  68.5997295
  53.3799362   2.5810122  36.2956810  53.1147623   3.0646858  37.0779705
  53.1772709   3.1706220  35.5693769  59.1109228  16.0588384  25.8376026
  59.9573803  16.5013266  25.9004259  59.1376495  15.3921521  26.5239310
  72.2647953  10.5358493   7.5382984  71.7284870  11.2469625   7.8889054
  73.1579781  10.8796978   7.5532550  32.5339341  49.9031973   3.6766499
  33.0079460  50.7305813   3.5930967  31.7863059  49.9947786   3.0859756
  55.2032185  36.7800570  54.6726322  54.5177507  36.1416388  54.8695803
  54.7550011  37.6256633  54.6896696  59.0217543  29.8416448   3.7599242
  58.5185051  29.2599607   4.3296748  58.8741970  30.7161617   4.1200364
  72.4003601  43.7063885  18.4054089  71.6112900  43.1691408  18.3349276
  72.8428936  43.3803511  19.1890514  60.9660578  48.1075239  25.6712389
  60.1675558  48.4757042  25.2929926  60.6735468  47.3177290  26.1260939
  91.3165855  21.5590596  25.6868529  91.8786335  20.9172249  26.1208892
  91.8827534  22.3183274  25.5482817  72.5209332   3.4110424   2.8222921
  72.5169611   2.4636322   2.9587847  73.3997345   3.6868757   3.0827922
  81.2438583  12.8956914  49.8739147  81.0619545  13.4772599  49.1357279
  81.5983105  13.4718990  50.5510998  46.0728693 101.7208672  23.9941406
  45.4556036 101.3150787  24.6028709  46.7963552 101.0969067  23.9352155
  64.7187567  95.6068039  92.6988888  63.9094114  95.8617878  92.2559643
  64.5369482  95.7452488  93.6284065  17.5382507  22.9185748  17.9353523
  17.2279096  23.6061811  18.5245180  18.4523010  22.7834964  18.1853437
   7.8293943 103.4635735  40.3200388   8.6761314 103.5615253  39.8845243
   7.6763886 102.5188255  40.3364944  62.0244122  41.4208889  32.5781655
  62.3260880  41.8689585  31.7879391  61.5030193  42.0766973  33.0410910
  22.8805542  26.4140177   3.8121888  22.1277070  26.6413021   3.2664824
  22.5830889  25.6670284   4.3315655  68.1111860   4.0793005  72.6372719
  67.7245569   4.5996058  71.9329739  67.4477530   4.0796769  73.3272648
  39.6617699   2.9257241  83.7571335  39.6148133   3.2322812  84.6626949
  40.5815792   3.0335706  83.5151482  67.2383451  97.6807308  85.4428864
  67.0859194  98.4558487  84.9023533  67.9571152  97.9310799  86.0233402
  59.5739985   1.6709661  29.9847865  59.8042536   1.9812594  29.1090417
  59.6469831   0.7182322  29.9281955  30.0904250  14.5319617  17.7234316
  30.4231358  14.0111709  18.4543991  30.2580929  15.4388714  17.9796195
  59.6560478  47.0199203  30.6042624  59.5393276  46.4356184  31.3533926
  58.7663841  47.2020769  30.3016925  56.0902882   3.0105802  52.9743195
  55.1585531   3.0351341  53.1922436  56.1949730   2.2100596  52.4600792
 106.0898304  67.3418951  79.0812635 105.2328777  67.7132893  79.2908287
 106.1304283  66.5316200  79.5892429  30.6359148  30.4703140  35.6917810
  30.4802752  31.3892221  35.4735708  30.6155777  30.4445457  36.6484189
  47.0911169   6.5713787  49.8774529  46.9865465   6.7253202  48.9385176
  47.7225208   7.2330755  50.1597929  23.8792253  29.3197203  30.4640651
  24.5634818  29.9795413  30.5765986  23.1424809  29.8006034  30.0869799
  61.2073708   9.3788773  20.8483553  62.0786095   9.0644050  21.0897779
  61.2377644   9.4602978  19.8951089  42.7058792  47.7766657  23.7273479
  42.0045662  47.6939821  23.0811667  42.2616816  48.0533171  24.5288372
  45.4854727  52.2396564   4.1309488  45.7758236  52.3773336   5.0326002
  45.9623766  51.4616776   3.8419014  71.0737371  25.5717134  47.6446486
  70.9753609  25.0035119  46.8806458  70.7292509  26.4180732  47.3596334
  77.1457529  31.8543291  27.3431373  77.7085352  31.2423301  27.8174400
  77.6718330  32.1313357  26.5929770  58.2122374  12.8232729  18.4075081
  58.1921911  11.8843758  18.2222986  58.2615709  13.2364452  17.5454831
  50.6224918  28.8474345   5.2028131  50.5706930  27.9999995   5.6448549
  51.2699842  28.7170100   4.5100084  64.0775251  50.2550268  34.7775245
  64.0209007  50.8899117  35.4916334  63.2071543  50.2642298  34.3792820
  53.3985424  31.8169332  24.8608279  53.3018064  31.4831686  25.7527232
  53.5258627  31.0342574  24.3246961  62.5949621  15.0387847  36.0397935
  63.2621193  15.7205403  36.1194539  62.2335434  14.9531031  36.9219875
  54.2062569  43.6651278  29.4849586  54.7305250  43.4526157  28.7128115
  54.7359562  43.3657980  30.2239108  66.7398643  27.5518441  29.7456861
  67.4695921  27.5071859  30.3635383  66.1847019  28.2557344  30.0811911
  46.2475204  10.5305135  26.8774581  45.5280685  10.0566649  27.2946954
  45.8373690  11.3133574  26.5098119  62.3973274  52.7062607  30.4880452
  62.0898294  52.9812908  29.6243095  63.3500528  52.7848673  30.4393244
  58.6444426   6.5302396   7.8732932  58.9652681   5.6322336   7.7902937
  57.6910210   6.4454901   7.8671014  26.7491031  14.3584275  71.0837030
  27.0771408  15.2419579  70.9163809  26.5433669  14.0109801  70.2158403
 112.9782677  49.1446209  24.3735313 113.3891678  49.7772694  24.9627304
 113.0228806  49.5567751  23.5107636  96.8459415  18.8821661  46.7245436
  97.4802208  18.7438345  46.0211325  97.3765564  19.1406870  47.4780989
  75.2408266  35.5146074   5.3657961  74.5533228  35.4796767   6.0308909
  74.7720766  35.4545522   4.5333925  72.9239655  70.9718990  23.3440876
  72.7997160  70.4479885  24.1354871  73.8714647  71.0937214  23.2838011
  25.3104401  24.7102666  84.6532631  25.6449795  25.0073433  83.8070583
  24.6713829  24.0323544  84.4335556  63.9554358  88.3067799  92.6103020
  64.7690630  88.5840225  92.1891403  64.1568661  88.3102417  93.5460567
  52.6920509  58.6645079  27.4425745  52.3564625  59.2857647  28.0888367
  52.2127247  58.8711977  26.6402316  54.7397137  37.6126575  29.3670201
  54.7191811  37.5606394  30.3225851  55.0919914  36.7672920  29.0886497
  52.4092579  57.5179625  22.4839187  52.3823643  57.2256136  21.5728521
  52.3009443  56.7164993  22.9959345  71.6406488  31.0869741  36.1086178
  71.5082884  30.1506424  35.9603119  71.9175863  31.4274144  35.2579474
  53.7493515  42.8333187  19.8463833  54.3800640  43.4642267  19.4994080
  53.1783724  43.3522797  20.4128599  62.0001507  41.5710402  17.5858200
  62.9369974  41.3973331  17.6773190  61.6122532  41.2213802  18.3880091
  55.9537268  45.4633236   7.1507388  55.8427620  46.4048719   7.2826773
  56.2047195  45.1287603   8.0117279  55.0684643  23.7862277  52.6579714
  55.7835150  23.2744455  53.0361414  55.1695490  23.6767435  51.7124414
  81.0235119  50.9727383  35.6816483  80.0766087  51.0710573  35.5819392
  81.3955307  51.6456890  35.1115870  76.3618898  50.1483011   7.6120704
  75.6387234  50.2511215   6.9934493  75.9569454  49.7719526   8.3934903
  64.9510050  43.7443352  19.3049514  65.3903770  44.5947361  19.3059540
  64.1461325  43.8911772  18.8081133  79.1803074  39.6595883  19.9136102
  79.4082212  40.3889036  20.4901409  78.2271004  39.7030282  19.8378253
   3.0055887 105.5775928  41.3645029   2.6125845 106.3809299  41.0232925
   3.8134131 105.4738140  40.8616257  20.2879095  29.0192628  26.5581727
  19.6061194  28.5795975  26.0501480  20.4690528  29.8229408  26.0708141
  42.8311777  29.8718953  29.9346161  42.1581030  29.2186189  30.1254869
  43.4411716  29.4232726  29.3490601  37.0604873  73.9177132  17.9563320
  37.3458648  74.8008490  18.1905711  36.1692309  74.0334797  17.6269531
  41.8245888  61.7962933  15.7736099  42.4967670  61.9867754  16.4279211
  41.3358259  61.0592794  16.1398876  43.1066227  28.9679432  36.2873220
  43.3783579  28.3249617  35.6323671  43.0912209  29.7999096  35.8142161
  61.1116266  39.4933677  22.6154661  61.4459372  39.9705243  23.3749342
  60.7750034  38.6734438  22.9769135  65.4150581  35.5554438  43.7044764
  65.2647066  35.2511883  44.5994949  66.3505888  35.7555676  43.6735153
  29.3969774  56.9638824   9.9712956  28.5120249  57.3258638   9.9258947
  29.8344946  57.3021603   9.1900277  65.7137680  24.2542553  44.1652775
  65.4881287  25.0981665  44.5565987  65.2673960  24.2558789  43.3185291
  54.1461086  48.6773109   6.0442126  54.0663576  48.3687305   5.1416320
  53.3656263  49.2135763   6.1838365  55.4769278  27.6476598  54.2472219
  55.5460882  28.4279299  53.6971092  54.9495459  27.0372796  53.7319183
  63.1290483  33.6362457  38.9639831  62.5035572  33.7770677  39.6747327
  63.9242506  33.3321524  39.4014835  42.9532242  39.4227719   5.9643614
  43.1052303  39.6128488   5.0386196  42.3739433  40.1246738   6.2610114
  71.3606071  38.0799460  48.3960962  71.9873667  38.7981939  48.4828234
  70.5308199  38.5098433  48.1890440  42.6754141  43.6031771  52.1596622
  41.9350195  43.8517952  52.7130508  43.3440208  43.3023834  52.7750635
  56.9128656  72.1887350  13.4597361  56.9884825  72.8624105  14.1355121
  56.9258738  71.3624430  13.9427519  33.1458282  35.8334875  42.6346350
  33.2553339  35.2067900  43.3498240  33.8704252  36.4494967  42.7429199
  71.0148287  33.4404254  28.8618517  70.2402925  33.6521506  28.3407998
  70.7006788  33.4334731  29.7660065  35.5746031  17.6153910  30.1137471
  35.3091788  17.9767144  29.2680359  36.3479424  18.1232941  30.3591204
  70.4900265  40.1152325  53.1653261  71.0487318  40.3994036  53.8887405
  70.0262928  39.3506956  53.5068846  74.1972637  32.9737234  36.5136480
  73.3108759  32.7529979  36.7997074  74.6399736  32.1289730  36.4321804
  63.8145208  34.2283583  36.3778281  63.5301495  33.7426949  37.1520972
  64.5584965  34.7485876  36.6812944  47.7119064  14.9067998  41.3536358
  47.8759527  15.3641546  40.5289268  48.5504723  14.5008719  41.5733194
  54.0404940  57.5925255  34.0581560  53.6450005  58.4245348  33.7982035
  53.9009333  57.5461531  35.0039911  43.9445972  49.0663958  40.7981253
  43.3611870  49.5216227  41.4052725  44.7071886  49.6400452  40.7231855
  49.2885017  65.5388021  30.9122777  49.7832203  64.9257708  31.4560413
  49.8563623  66.3058472  30.8387685 106.3617420  97.9664516  94.0230942
 106.6009331  98.6489201  94.6501923 106.3946342  98.4017372  93.1712246
  78.2201338  29.0077686  38.9033151  79.0886307  29.0412521  39.3043399
  77.6133013  29.0479708  39.6424842  13.9414024  35.5365944  44.6917868
  14.4508553  36.3444614  44.7553396  13.0859625  35.8177996  44.3671656
  72.0793867  37.9301476  52.7770376  72.1778727  37.1619868  52.2144890
  71.1540794  37.9305196  53.0220699  28.9286423  48.4512997  41.0143948
  28.5413599  47.7339935  40.5126858  28.9658237  48.1225967  41.9126177
  57.3815727  59.3271875  22.8838682  57.6141787  60.1055145  23.3901620
  58.1660271  58.7794304  22.9127145  47.6911545  40.4649305  47.0394850
  47.6977921  41.4083195  46.8776131  48.1239939  40.3643370  47.8872871
  63.3537579  28.3466482  50.2834606  64.1070557  28.6527443  49.7784138
  63.6971140  27.6274633  50.8136559  84.7899055  36.5779591  17.1877456
  84.7725582  35.7656240  17.6937532  84.5105457  36.3191271  16.3095677
  74.6804047  44.6661139  29.7448111  74.8385954  45.5794954  29.9834323
  73.7882566  44.4913530  30.0444126  30.4585576  31.6203475  44.8055506
  30.1901293  31.9823933  45.6500006  30.1935101  32.2816515  44.1662836
  53.5161209  67.1178198  40.0165415  53.7669039  67.2296476  40.9335089
  54.3307543  67.2394657  39.5288849  56.3537741   1.7674465  59.5972776
  55.6212330   1.6058911  60.1918507  56.3756895   0.9972055  59.0294075
  16.5733981   8.7798119  93.7545395  15.8768356   9.2553222  94.2072201
  17.3373902   9.3525100  93.8220978  68.3941603  23.7877893  13.8270497
  69.2842960  24.0184879  14.0928769  68.1280708  24.4961667  13.2408512
  90.4042625  64.5754480  56.7867136  90.2305317  64.3155050  57.6914120
  90.4190254  63.7516832  56.2994480  71.1132240  42.3401070  46.9318247
  71.4538908  41.9261265  47.7247906  71.8786192  42.4392319  46.3656282
  92.8908157  53.6540461  37.6608777  93.4147549  54.2557526  38.1897235
  93.3819008  53.5631180  36.8442988  56.2949276  61.0612583  26.7131400
  56.9610929  60.8240700  27.3582792  56.7707682  61.5620232  26.0505366
  25.9223437  21.0544753  52.9855680  26.1049533  21.9924998  53.0403233
  25.4089069  20.8641934  53.7706852  61.8381977  73.1067991  10.6653237
  62.5532103  72.4937105  10.4947054  61.2981176  72.6679659  11.3225698
  13.7843513 106.0344410  19.9480379  13.3700609 106.0972309  20.8086491
  13.3467448 105.2957535  19.5248806  55.4616880  31.3971233  17.6712728
  54.8536110  31.3703370  16.9325209  55.5068445  32.3227477  17.9108775
  55.2179432  21.4539266  43.7879705  55.4483557  20.6161165  43.3864546
  54.4127798  21.2736011  44.2731762  65.4409313  63.2784319  22.0537162
  65.7244062  64.1926479  22.0627236  66.2534094  62.7763557  21.9902396
  44.4998264  41.7962933  18.7820637  45.2216673  42.1208382  18.2436895
  44.3958378  40.8822823  18.5174882  78.2491302  62.8708792  44.6030903
  78.8068008  62.2077608  45.0099134  78.7242174  63.6924887  44.7275162
  84.4944286   7.9110670  43.9200783  84.8593330   7.2671586  44.5270872
  83.7733173   8.3141935  44.4035149  93.3145905  65.1250267  11.1863923
  92.4747276  65.3043985  11.6091001  93.2479954  65.5500937  10.3313386
  66.1350203  14.9144864  35.4264283  66.1237955  15.3813910  36.2619567
  65.3827953  15.2623820  34.9475217  73.1112337  60.4698372  27.8981471
  73.2276106  60.4274559  26.9489932  72.3358822  59.9350119  28.0685043
  57.1515369  65.0902462  34.1061807  57.7380943  64.9306297  33.3667874
  57.5732899  64.6521664  34.8453951  88.0974674  48.5566616  13.7929952
  87.2108746  48.8832569  13.9463520  87.9867268  47.6147032  13.6638522
  72.5783539  28.0101705  24.0634346  73.0920172  27.8716350  23.2677031
  71.8499947  28.5651994  23.7847471  85.7517242  32.5619912   7.6046997
  86.6373444  32.9021239   7.4773544  85.6653690  31.8680859   6.9510388
  90.2015686  67.5802040  17.3274171  90.2231312  67.4714947  16.3766551
  90.0197887  66.7030382  17.6647210  62.9604197  67.8794432  31.5112638
  62.5453711  68.6550856  31.1339736  63.8027000  67.8155708  31.0610271
  49.2284584   8.9509976  37.2895503  50.1708126   9.0146703  37.1341562
  49.1411543   8.9683706  38.2426023  48.4195995  56.3947535  10.7738233
  48.9538574  55.6018543  10.7278657  48.5882759  56.8455076   9.9464178
  20.1858330  11.5005434  41.4178181  20.0257254  11.7552042  40.5091095
  20.4792881  12.3057902  41.8440723  51.8453074  33.4900284  56.2840748
  52.6682281  33.7520337  56.6968536  51.8936300  32.5351405  56.2384272
  73.9612293  22.8014922  30.7419086  73.3658600  23.4272695  31.1544204
  74.6109104  22.6077938  31.4176512  81.6721535  53.4594679  49.5801258
  81.4494228  52.9213572  50.3397751  81.3483524  54.3325233  49.8018312
  53.3861685  51.2874317  34.9819493  53.2282925  52.1774244  34.6669602
  52.6153755  50.7939100  34.7016859  84.6495342  54.5237398   5.6685859
  84.7455883  55.4675341   5.7960647  85.5117798  54.1647673   5.8781374
  76.2082767  39.8729467  34.7659564  76.4473057  40.7430696  34.4466090
  75.2704525  39.8017955  34.5880294  32.9373455  45.7666683  24.8917913
  32.4262595  45.1819181  25.4513359  32.3340702  46.4770079  24.6733665
  50.5366087  58.4572029  36.2398052  50.4706812  59.3041468  36.6809130
  51.4652300  58.2311964  36.2927938  79.3180513  54.1399765  19.8638773
  80.0649166  54.3445063  19.3012214  79.5831203  53.3508253  20.3363299
  61.8064880   6.7073542  46.7977571  61.1461687   6.1017442  47.1345758
  61.4214706   7.5748461  46.9220591  76.6647434  17.3071659   5.6125760
  76.8578339  18.2324386   5.4615200  76.5065289  17.2462034   6.5546399
 108.0048275  93.3580494  93.6041546 108.3794594  93.1648731  94.4635487
 107.1036148  93.0401421  93.6587906  60.0879431   8.7238568  51.0164785
  59.7779703   9.6129304  50.8441496  59.3073225   8.1768650  50.9289455
  83.7573814  39.5740509   4.8842302  82.9727936  39.7103715   5.4153293
  84.4621086  39.9791813   5.3896618  56.5047026  68.2365513  16.9030368
  57.3170233  67.8589725  17.2403717  55.9488964  67.4802113  16.7152536
  23.7020802 104.8143578  24.2714357  23.9249682 104.5079327  25.1504469
  22.7903509 104.5495701  24.1494989  56.7396975  31.8230987   6.8858171
  56.4339876  32.2746754   6.0991466  56.1878920  32.1662354   7.5886649
 101.2304401 104.5194340  90.2506733 100.7651901 103.8467121  90.7478905
 102.1469784 104.2445087  90.2752209  66.4190769  39.4138312  37.2770214
  66.5795183  39.6154523  38.1988883  65.4752636  39.5295858  37.1672750
   7.3127931  45.8044958  22.5474310   7.0230889  46.6818142  22.2972012
   7.7844846  45.9336281  23.3702707  68.9980507  47.2639608  27.3658156
  68.9473486  47.7446985  28.1919813  69.8868132  46.9089031  27.3494625
  62.7784967  29.2960715  44.9067450  62.8603315  28.8230944  45.7348919
  61.9126654  29.7021699  44.9474049  69.2069960  33.2869697  33.4980559
  69.3658447  32.4061227  33.1587815  68.3482885  33.2309318  33.9172339
  73.5655594  69.1149187  19.0210223  73.8220215  70.0340080  18.9452946
  74.3593407  68.6260796  18.8038051  89.8126125  42.6275253  25.7881856
  90.4733944  43.3193970  25.8182883  89.0566730  42.9983282  26.2434793
  89.2902088  22.8620744  35.2084994  88.4350777  22.5138116  35.4608941
  89.7978401  22.8620386  36.0200024  77.4434042  43.3615685  12.4011040
  78.0957317  44.0275288  12.1838593  76.6927290  43.5713673  11.8454921
  76.2071562  73.2879353  30.5427432  76.9971800  73.0827188  30.0427604
  76.0094976  72.4819469  31.0197639  33.5118580  22.8286123  45.7744884
  34.3351412  22.3625374  45.9201241  33.7396383  23.5334110  45.1681805
  92.2734737   5.7196903  63.4495258  92.1910572   6.6629171  63.5901070
  91.4143085   5.4499274  63.1250191  65.4244328  68.4778261  23.5753751
  66.2950993  68.8753510  23.5873461  64.8261833  69.2064190  23.7411642
  41.6422462  43.0725670  25.1986456  41.8659496  43.1253147  24.2694497
  40.9813070  42.3818779  25.2470469  83.0653477  79.3064737  16.1418664
  83.0403900  79.9015379  15.3925252  83.7577915  78.6811113  15.9281385
  52.6753235  39.7639012  39.1479158  52.0542765  40.4655981  38.9525890
  52.1549892  39.1043472  39.6066856  47.2308636  31.8768311  48.5455465
  47.8953028  31.5347934  47.9474115  47.3308086  32.8275204  48.4962225
  64.8322296  54.5030069  20.1468134  64.1615486  55.1754522  20.0275207
  64.6207952  54.1006279  20.9892035  26.6327214  31.0899258   4.4083375
  26.6715527  32.0159388   4.1691196  26.3175201  30.6514049   3.6180338
  32.6401448  39.2177653  43.8236475  32.5884151  39.1095400  42.8739929
  33.3358455  38.6191106  44.0953922  81.2103176  42.1459770   4.4962630
  81.7764473  41.8883896   3.7686834  81.1336136  41.3560247   5.0313574
  69.8785830  16.7708123  45.6544113  70.5765533  16.2820482  46.0905123
  69.1044140  16.6176713  46.1961126  52.0826817  38.6952019  35.1687622
  51.1321020  38.8045144  35.1426864  52.4283314  39.5254993  34.8410940
  69.3770599  37.9066324  54.4179869  68.6134052  38.0762029  54.9696302
  69.8043919  37.1532893  54.8255301  29.1297340 108.3855152  66.7292738
  28.7832713 109.0582371  66.1430597  28.7477040 108.5914230  67.5824356
  64.1309881  42.7739859  35.0125432  63.5737944  42.1456099  35.4718018
  64.3690825  42.3320436  34.1975403  45.5819702  48.2536268   7.2007257
  45.6677485  47.3253822   6.9833773  44.7088480  48.4927464   6.8897396
  66.3790560  43.8445234  31.7522168  66.0803223  42.9504490  31.9183946
  66.1493158  44.3254805  32.5472856  34.3454266  32.9017615  35.4099274
  33.5322809  33.0078840  35.9036517  34.9682498  33.4829688  35.8464146
  67.1284866  63.9913464  17.0600200  67.8304529  64.4114399  17.5570047
  67.5124931  63.8215923  16.1998129  39.9777651  55.2180433  33.0333471
  40.1471090  55.1493359  33.9729404  40.5778885  54.5875931  32.6350808
 107.3853874  17.3942113  36.6435146 106.7572117  17.8343558  37.2161365
 108.2122803  17.4277258  37.1245027  70.2245760  20.6706572  46.4483976
  69.6345139  20.1592469  47.0020342  71.0141325  20.7813931  46.9780874
   5.6644547  27.3053479  17.1967590   4.8401690  27.7466798  17.4017227
   6.2665558  28.0147481  16.9721353  34.6989369  45.5796051   8.7825817
  34.2127752  45.4373121   9.5947576  35.5707574  45.2266693   8.9603335
  45.1380396  47.2731924  43.0863857  45.2032423  46.5871429  42.4220657
  44.1974211  47.3831415  43.2256222  47.9757452  51.3822269   2.0120293
  47.8646994  50.4517365   2.2071838  48.7153387  51.6543055   2.5553614
  16.9454288  10.9998250  50.2879190  16.4386880  11.5072548  49.6539164
  17.8577220  11.2103963  50.0888920  63.5881853  55.4903316  32.7260041
  63.9498138  54.6318913  32.9463124  62.8500891  55.6003094  33.3254600
  74.5898056  47.5714254  45.3278828  73.7252617  47.6470900  45.7317019
  74.9894190  48.4319592  45.4544592  37.5288725  52.6430082  29.2892456
  36.9886470  53.0471849  29.9682355  37.1511579  51.7716360  29.1697693
  34.4682264  34.1000915  48.8877010  34.5515156  34.3245983  49.8144627
  35.2727413  34.4305491  48.4879684  88.2960987  59.7689486  54.1361284
  87.8443241  60.2045345  54.8589039  88.2095337  58.8351011  54.3276167
  45.4128551  45.3907156  41.4014149  46.1556244  44.8935604  41.0588360
  44.6990108  44.7545862  41.4460707  40.4903316  42.9363918  28.8048863
  41.0335398  43.3238888  29.4911814  40.6501055  43.4831715  28.0356431
  97.0549679  70.5543470  48.8551235  96.2154293  70.1749706  48.5953331
  97.4009514  70.9431314  48.0517721  47.1463346  48.3746386  41.1141253
  47.5611210  47.5127363  41.0780191  46.2899876  48.2119560  41.5096426
  58.1404877  37.0659852  45.4446030  58.0307293  37.6261759  46.2129545
  58.1508303  37.6733708  44.7048664  34.7586823  26.7725110  39.6414256
  34.9931479  25.9265924  39.2597485  33.8107228  26.8338633  39.5237756
  55.1550913  53.3929253  29.5865440  55.8959103  53.8856363  29.9396062
  54.4013119  53.7000084  30.0902843  30.6691027  58.7493372  14.0970349
  30.6274223  58.3323288  14.9576151  30.3911972  58.0666351  13.4863603
   5.5377871  94.4912243  57.6378870   6.2135053  93.9283752  58.0158329
   4.7365725  94.2481709  58.1017971  74.3583059  84.0830612  33.4497118
  74.9693394  83.3671570  33.2754874  74.2186403  84.4919586  32.5955868
  67.2047472  53.8718510  26.5827775  66.8560410  54.0716982  27.4515104
  66.4419317  53.5911512  26.0772562  60.7222128  34.7575402  54.9854994
  60.8947897  34.8780465  55.9192705  59.7694397  34.8091960  54.9094057
  31.6793704   7.5534451  74.0178537  31.0687256   8.2135797  73.6898804
  31.7746520   6.9345862  73.2938576  10.8236504  19.3521857  90.4585934
  11.0410917  19.2088532  89.5374966  10.3344190  20.1748991  90.4639721
  47.8230667  28.2438898  32.4140859  47.8072929  27.2872972  32.4443674
  48.7027597  28.4784055  32.7096725  73.6979055  25.3002119  47.4780750
  73.8799000  25.9127998  46.7654419  72.7486372  25.3423619  47.5935936
  86.6168594  14.5442796  49.8968506  87.0119858  13.9733410  50.5557346
  87.3511696  15.0467491  49.5439386  31.9545746  33.1168127   1.5442897
  31.1742282  32.6994157   1.9090761  32.1610904  32.5996017   0.7657816
  89.6210289  46.4363861  30.9957576  89.9239731  46.6342258  30.1095748
  90.2338505  46.8990850  31.5672493  89.7019768  55.5706930  48.7656021
  89.3739891  55.9913588  47.9708099  90.6442738  55.4858494  48.6203003
  71.9406414  80.2485275   5.1769614  71.5122986  80.9621525   5.6497246
  71.2830114  79.9481010   4.5496720  63.0546188  25.8734202  41.8113852
  62.2250319  25.4907298  41.5257883  63.3429861  26.4024591  41.0676146
  56.9023800  57.1047878  47.5469303  57.7276707  57.1099472  48.0318069
  56.2274599  57.0496511  48.2234478  28.4379601  13.2704842  33.9160538
  28.4146476  12.4498010  34.4081593  28.8684940  13.8905311  34.5046210
  25.8251762   6.0223269  89.9083614  25.1031160   5.4608291  89.6262550
  25.6235218   6.8790263  89.5320129  46.7056799  24.6082997  41.1190271
  46.1217308  25.3650594  41.0685015  46.1737823  23.8743734  40.8113432
 115.0343037  44.9619865  12.2859693 114.1563129  45.2137995  11.9996953
 114.9228287  44.0878916  12.6598203  59.4471216  37.7879500  13.1398749
  59.8291397  37.7376962  12.2636485  59.6876287  38.6586833  13.4564364
  69.0261364  32.0471740  43.5337257  69.6536589  32.6727629  43.8957787
  69.0246201  31.3211846  44.1575623  92.8555107  45.8665228  10.8637738
  92.3282242  45.8450842  11.6623580  93.5603142  45.2392912  11.0252213
  50.8766127   1.6219258  18.0097151  51.7763329   1.9100253  18.1637990
  50.4936123   2.3119502  17.4680448  54.5463753   4.8901504  44.9544191
  54.5853710   4.9387980  43.9992523  53.8380909   5.4870111  45.1959229
  81.5226364  68.3162880   1.0979300  81.2899303  67.4114704   1.3062170
  80.9808064  68.5344601   0.3396110  61.4066315  34.9651051  28.3552361
  61.6145658  35.6304979  29.0111685  60.6487179  34.5036030  28.7141442
  48.9891624  52.6709175  34.7413349  49.3664694  52.1097803  35.4188275
  48.2259464  53.0702782  35.1587605  74.7987032  81.4939976  32.8043532
  74.1581774  81.1109829  32.2049689  75.3678799  80.7631969  33.0456018
  47.1172094  28.5146022  41.7971325  46.2851334  28.3943343  42.2547579
  46.8957806  29.0478492  41.0336876  56.8735170  28.5922790  32.3344183
  56.6026688  29.3662095  32.8282833  57.4545431  28.9332938  31.6544533
  46.1868954  38.4483147  11.8166018  47.0605087  38.7399578  12.0773292
  46.3163233  38.0396390  10.9607601  68.6328554  73.9873791   6.4113653
  69.2929792  74.2906189   7.0346743  69.1252279  73.8042259   5.6112045
  10.6831324  51.5073013  16.8432915  10.6972003  51.2866116  17.7745974
  10.9389389  52.4291420  16.8116999  50.8387327  31.1893415  44.2320347
  50.3291130  30.7960749  43.5236168  51.5936470  30.6097937  44.3343163
  60.9360886  29.5548511  49.6398926  60.5920935  28.8239384  49.1264057
  61.8267250  29.2888117  49.8684072  80.5047989  16.6879189  47.3094988
  80.4536629  17.1092784  46.4515543  80.4586792  17.4112511  47.9347134
  75.3863621  55.9225559  37.0958924  75.7507181  56.0086966  36.2149525
  74.4403696  56.0006762  36.9725156  29.7348762  64.4704723  17.9889607
  29.3993402  63.6368227  18.3186305  30.0964808  64.2595291  17.1281600
  47.4867725   4.6716270  21.1168671  47.4214697   3.9840716  20.4541183
  46.7471075   4.5106205  21.7027068  82.1385670  78.9808750  27.0261693
  81.6997337  79.0914488  27.8696346  81.5874577  79.4572067  26.4051914
  56.3456917  47.8843355  25.3002763  55.7967806  48.2109737  26.0131788
  56.0682631  48.3873463  24.5346093  70.2508831  62.0857763  37.4147558
  69.7774792  61.3180256  37.7351880  70.0128269  62.7851820  38.0233526
  99.0250111  66.7105246   7.2184730  98.2785892  67.2561073   7.4663341
  99.1343021  66.1062622   7.9527438  40.0763035  63.7253284   4.4881377
  40.2243900  63.7702942   5.4327434  40.7716513  64.2641449   4.1107726
  74.7958183  80.5333138  23.0845380  74.5249987  79.6858835  23.4377384
  75.5392408  80.3297234  22.5169921  50.7087803  26.2874317  19.8498142
  50.2314806  26.7607021  19.1683197  51.5275145  26.7730761  19.9500644
 100.2661705  57.9737091  44.4771147 100.6915474  58.3990955  43.7325811
  99.3380833  58.1847048  44.3753338  87.1860504  10.4364347   7.2481865
  87.8345871   9.7352892   7.3116362  86.7566776  10.2899837   6.4053196
  80.5534363  75.1062107  38.8360095  80.3430271  75.7530594  38.1625509
  80.6684303  74.2872953  38.3539462  99.4247246  85.1580334  69.0113735
  99.1922760  84.5128822  68.3435488  98.8393402  85.8968067  68.8447285
  82.0163441  52.2578621  14.0120530  82.1467018  51.7365360  13.2199287
  81.9834518  51.6141462  14.7197127  68.9709997  64.4959259  21.9516444
  68.9376545  65.3850555  21.5986991  69.8045778  64.4554186  22.4204063
  81.1422062  31.1828399  35.6882477  81.7270947  31.3808203  34.9568510
  81.7289925  31.0177326  36.4262557  79.1133022  29.5794415  28.1449103
  79.6879530  28.8230705  28.0269575  79.6950817  30.3359962  28.0715394
  83.1772804  56.5871954  33.1846261  82.5898933  57.1062565  33.7339783
  83.7540150  56.1415005  33.8050795  67.5048780 108.0060291  22.8530145
  67.2543907 107.6774883  23.7164640  66.7257166 107.8767300  22.3122573
  67.0051003  67.6498556  57.9723835  66.5226650  67.1664476  58.6430550
  67.2609043  66.9836903  57.3343992  -0.0732552  15.0249159  48.8733053
   0.1191842  15.4272020  48.0263281   0.3594213  15.5919790  49.5116329
  74.5006418  98.9025784  34.3515587  73.9180326  99.2914772  33.6992145
  74.0769005  98.0780315  34.5898867  72.1704340  95.4829502  11.2469566
  71.8330860  96.3784218  11.2233448  71.5461922  94.9780178  10.7258058
  80.8866215  22.4474096   7.8716910  80.9653282  23.1591868   8.5068387
  81.0396004  21.6525269   8.3825636  68.7643719  76.6930103  36.3618469
  69.2088842  77.5406408  36.3491106  69.1018105  76.2573385  37.1445084
  91.8323421  34.7058678  39.2335892  91.8984604  35.5166149  38.7290597
  90.8962440  34.5063019  39.2446351  72.8378916  64.6331406  55.0086880
  73.6468649  64.1215467  55.0167179  72.1517229  63.9995337  55.2183247
  74.9315500  55.4765368  55.2779484  75.6772089  56.0759115  55.3093052
  74.8264122  55.2734613  54.3484688  63.0909204  79.3948412  30.9801388
  63.4344387  78.5272026  31.1932826  62.9584789  79.3738127  30.0323796
  61.0615253  31.0800290  28.7392974  61.2194347  30.1370358  28.6939359
  61.1521244  31.2936497  29.6679449  58.7462902  79.2698574  25.2221560
  57.8286934  79.5261765  25.3146195  58.9118576  79.3079567  24.2801523
  55.2768946 100.4371357  38.6585259  55.8687830 100.3565311  37.9105949
  54.4572306 100.7573414  38.2818890  83.7909985  67.1804190  58.8312197
  84.7450829  67.1139669  58.7921667  83.4909821  66.2751102  58.9127159
 106.3992596  35.6301332  39.4507337 105.8689690  36.2684298  39.9278092
 105.8957481  35.4451776  38.6579585  82.5585461  31.3162661  18.9311230
  83.3782864  31.8103623  18.9424527  81.9921398  31.8056583  18.3345437
  88.1300926  48.4879541   7.4149358  87.8053474  49.3681049   7.2249073
  87.9076767  48.3440065   8.3347422  69.8825026  28.2410717   7.0435005
  70.0798655  28.9787841   7.6206148  70.6854296  27.7200055   7.0377296
  73.4800911  39.8890710  17.6308501  73.3525133  38.9463401  17.5249553
  73.0921268  40.2730846  16.8445611  91.5003014  54.3161583  41.5107012
  91.7782593  53.4047651  41.6019726  90.6095982  54.3311310  41.8609285
  77.6492929  56.2501049  59.2091036  76.7232466  56.4919424  59.2226601
  78.0943584  57.0255232  58.8672400 108.9677334  66.5392590  42.4884987
 108.2499218  65.9106636  42.5649214 108.5446930  67.3952532  42.5558424
  62.8852129  30.5583405  19.1659474  62.2171783  30.9293532  18.5894859
  62.3886824  30.1241732  19.8596251  74.2585850  89.6150208  39.2172647
  73.3710814  89.6859360  39.5687366  74.6850681  90.4316044  39.4771290
  95.6600189  68.4622431  73.8392925  95.6188965  69.1163683  74.5369053
  96.5288162  68.5770082  73.4542561  66.1476612  38.0551076  41.2024164
  67.0650053  37.9535747  41.4561987  65.9431934  37.2551966  40.7180929
  88.0003834  39.7391629  34.0302348  88.5925102  39.1924000  33.5138440
  87.1353817  39.3539286  33.8902187  92.9876614  52.4456358  54.3764782
  92.8027725  53.3231068  54.0416813  93.5868740  52.0655155  53.7340784
  83.0858231  26.5296817  43.6481857  82.9821777  27.3678613  43.1976938
  83.7481308  26.6982651  44.3183756  72.5233507  55.4360628  11.2363553
  73.0705738  54.8248959  10.7431459  71.6473961  55.0513363  11.2060463
  71.6322660  83.7622643  16.8166757  71.4711571  84.0157032  17.7255464
  71.8592310  82.8335476  16.8636334  68.6437798  77.2598886  44.4104958
  67.8154373  77.7343702  44.3401337  68.7679386  76.8654490  43.5472298
  67.9735565  54.0777540  13.8708675  67.4353075  53.9997482  14.6585441
  67.5667524  54.7861624  13.3719754  88.4130192  78.8557720  19.5236957
  89.2683029  79.2045355  19.7748590  88.4077454  77.9629135  19.8686647
  76.4583206  31.4885902  40.8845997  76.1643267  30.5825520  40.7903004
  75.6623030  31.9784307  41.0911083  91.9699669  91.1005688  24.1016960
  92.7970314  90.7776833  23.7440228  91.2970448  90.6117058  23.6279655
  96.4767170  35.2006364  60.9379292  97.2307396  35.2920246  60.3554058
  96.7243958  35.6816649  61.7275476  50.2358580  59.3719101  32.7229238
  50.1491642  59.2237091  31.7812490  50.4207087  58.5056257  33.0857062
  64.4102049  20.1562357  57.8028822  64.4207764  19.3844390  57.2368002
  64.1651535  19.8181713  58.6642170  24.7858405   5.8528483  17.7951109
  25.2096653   6.6136217  18.1923878  24.1346049   5.5773890  18.4402823
  68.4486341  78.6402082  12.6983559  69.1708994  78.1592226  12.2943521
  68.8739729  79.2447186  13.3065391  73.1129646  66.2806988  57.2661495
  73.9646769  66.5958977  56.9637156  72.6743555  65.9762526  56.4716911
   4.4776964  69.6052837  16.8870568   4.6673870  70.5131245  17.1238577
   4.9887574  69.4533205  16.0921001  63.7200737  66.4001942  12.6001871
  64.6487951  66.4426613  12.8280067  63.4461451  67.3153782  12.5399446
  46.7983580  54.2143631  35.9477782  47.1255350  55.0547409  36.2686467
  45.8551311  54.2478800  36.1072636   0.2571899  80.5540085  54.4758892
  -0.0644874  81.0817146  53.7449503   1.1831801  80.4119301  54.2794514
  76.7284250  88.2934093  38.9417577  76.1700058  87.7424908  38.3932161
  76.1154985  88.8067150  39.4681358  76.7185831  68.6659431  25.0476336
  76.2885237  68.3625317  24.2481208  77.5340843  69.0649176  24.7443128
   3.9458138  67.9030991  39.6839499   3.4374994  67.6828098  40.4645395
   3.3171132  68.3285952  39.1009235  57.4307871  65.6470871   0.6039476
  58.1722450  65.6883669   1.2079065  57.5403690  66.4109468   0.0376062
  85.0754070  43.9069176  25.6821990  84.8831940  42.9761744  25.7962394
  84.2914677  44.3541908  26.0009885  55.2430201  33.8422370  25.8293223
  55.5785465  33.1060123  26.3408208  54.5590353  33.4599566  25.2795434
  79.8571110  48.2541656  32.6755071  79.3357658  48.3034849  31.8742585
  80.4819965  48.9752483  32.5994349 102.0347691  38.7981462  20.8536911
 102.4703026  39.6338964  20.6861544 101.6408157  38.9027476  21.7197680
  73.3828831  92.8708649   9.9602497  73.8430166  92.1194363  10.3342295
  73.6202765  93.6039543  10.5281079  69.0686798  68.8909817  16.6148221
  69.1525650  67.9616213  16.8281007  68.1456518  69.0902948  16.7714357
  71.5764284  90.0417423   5.8729279  71.6994476  89.7060108   4.9850190
  70.9600687  90.7670307   5.7714909  69.0023327  63.4751225  39.3539357
  68.4024286  63.0629158  39.9755716  68.4405279  64.0243292  38.8071489
  73.6852026  48.3002758  36.9837832  73.7008905  47.5447083  37.5712371
  73.0357170  48.8890600  37.3681450  59.3436146  59.2339516  26.1069298
  59.2162848  58.3000803  25.9398937  59.4494867  59.6204901  25.2376723
  90.8168983  97.9900265  41.8685102  90.7378578  98.8442421  42.2931385
  91.3941956  97.4887657  42.4444389  92.5451756  56.4532423  20.1198244
  93.1030846  56.1914539  19.3874061  92.7258778  57.3858786  20.2371430
  74.3336344   5.2069253   9.2549300  74.0526581   5.9879637   8.7782073
  74.8944950   4.7380173   8.6370379  79.5256376  65.9687996  58.4590816
  78.7022448  66.4559412  58.4898090  79.3032217  65.1009750  58.7961960
  87.3833466  30.5951762  46.0535288  87.0601463  31.4787245  45.8771324
  88.2940006  30.6100225  45.7590485  64.4226408  80.0563145  82.5892639
  63.9660263  80.7464790  83.0703163  64.1448021  79.2445421  83.0136013
  85.3007317  57.8874731  19.0609825  84.6211624  58.2925987  19.5997727
  85.6437016  58.6051083  18.5284436  84.1894341  49.7360373  31.0092616
  84.4542313  49.9572611  31.9021106  84.5519161  50.4394531  30.4707003
  72.4762821  83.5950947  14.2996657  71.9992399  83.8723946  15.0818217
  73.2360315  84.1762447  14.2638934  61.0482836  72.4356270  28.7407231
  61.6335344  73.1480789  28.9978743  60.1877356  72.8479481  28.6653662
  44.9858427  56.6022921  26.8167901  44.2073107  56.9975662  26.4245152
  44.6443176  56.0380650  27.5105071  67.0993757  70.0636864  43.1229639
  66.9484234  69.2635918  42.6196766  68.0283737  70.2555132  42.9948950
  59.9871635  42.0601082  10.6629121  60.4751301  42.4058914   9.9155468
  59.2848253  42.6948023  10.8047545  73.2411575  81.3108349  29.7287107
  72.9706097  80.6531143  30.3693676  74.1165304  81.0347939  29.4571352
  87.2911930  73.9105320  33.9315510  88.0669975  74.2717600  34.3603468
  87.1913433  73.0381012  34.3125057  90.8213806  70.1537228   5.2024448
  91.6395378  70.6321096   5.0683188  90.6187630  69.7805071   4.3446067
  59.0899372  52.1700668  30.6745362  59.9950457  52.1641827  30.3631377
  59.0432549  51.4375496  31.2889218  82.1557999  54.2387438   6.9860840
  81.4968014  54.6972561   6.4648235  82.9888058  54.4668150   6.5733963
  60.2470398  47.1754313  10.7588744  59.7891617  47.7617693  10.1565552
  59.9346590  46.3011503  10.5258858  79.8912239  64.7814798  22.6405263
  80.3465271  64.8210287  21.7994738  80.4075718  65.3426886  23.2190251
  80.2512550  47.0304441  51.3061380  79.7795010  47.1752167  52.1263361
  79.7310448  47.4891472  50.6464434   9.5666361  87.6013088  87.1799564
   9.4657159  88.5379410  87.0103645   8.8249993  87.1953678  86.7311668
  65.5097103  74.5489264  23.8471556  66.3232899  74.8958969  24.2131281
  65.6472445  74.5647001  22.9000187  76.8829775  60.0111675  28.6682081
  77.3049116  59.1808844  28.8891745  77.5303888  60.4749823  28.1372046
  60.0256348  71.7635059   6.8221122  59.7642946  72.1340370   5.9791172
  60.1853514  72.5252151   7.3793596  55.1414490   6.9364822  72.8793621
  55.1981401   6.2306148  72.2353363  56.0405016   7.0533025  73.1864357
  73.2437515  88.3133793  14.7939086  73.1416273  88.1091881  13.8643348
  72.3886251  88.1184578  15.1773024  72.1018744  82.3902225  24.6645236
  72.6211548  81.5996456  24.5176959  72.7458143  83.0978680  24.6931076
  87.9561520  78.3816957  59.7993326  87.5938320  78.8464737  60.5536175
  87.6778507  78.8985300  59.0432453  63.6194611  86.1759281  23.9213204
  63.2340670  85.9456444  24.7667027  63.0179930  85.8059120  23.2751346
  71.6396523  72.8291416  17.7376032  70.9484386  73.3017111  18.2014334
  71.1899424  72.4015856  17.0087755  85.9497166  56.9014502  35.8852363
  85.5503941  57.3910761  36.6042900  85.6283283  56.0067844  35.9971189
  84.4883537  84.1984272  23.0723572  84.8623943  83.5709476  22.4538112
  84.8102856  83.9128590  23.9273667  91.5517807  65.6508636  54.1462708
  90.8330727  65.2383709  53.6671686  91.4573288  65.3296757  55.0430155
  80.4032803  39.9537253   9.6240628  79.9729681  39.1703820   9.9667442
  79.8056936  40.6694174   9.8406458  71.3980770  83.6131954  35.8672023
  70.9299183  84.4285011  36.0470247  72.3232651  83.8462353  35.9443927
 109.1242123  33.4228086  52.0951128 108.4228992  33.9042544  51.6562510
 109.8361111  33.4007144  51.4556313  80.8074188  78.0252171  44.4930792
  80.6621075  77.3708344  45.1763773  81.6875458  78.3598471  44.6651936
  89.5666981  69.6191978  20.2139878  89.1635895  70.1472712  20.9031010
  90.4622650  69.9511576  20.1507831  99.9627399  74.7027206  42.6996374
 100.2737141  73.8470316  42.9951382 100.7590294  75.1783752  42.4631739
  68.4375286  66.2848663   5.2383858  68.8866091  66.8235016   5.8898664
  67.5174427  66.3083458   5.5013019  72.2333336  67.6969194  32.0333028
  71.4532280  68.1116533  32.4016309  72.0232105  66.7632055  32.0171857
  70.3669786  70.1239586  11.3820279  70.9134531  70.8010960  10.9831762
  69.5441532  70.1622438  10.8944547  63.1596088  75.3995323  36.7910647
  63.6903334  75.4011726  37.5876594  62.8220797  74.5059013  36.7299843
  73.3299685  38.6194372  37.8987908  73.2437611  38.3999276  38.8264847
  73.3253098  37.7734280  37.4510455  62.5669003  79.6088123  38.2227135
  62.7702808  80.0886154  39.0256190  63.4144878  79.4880533  37.7946424
  96.3743401  67.6907969  81.8100643  96.5798950  67.4961567  80.8956814
  96.9808197  67.1470833  82.3128605  57.6446772  78.7081432  63.7082100
  58.4604454  78.7144995  63.2074976  57.8702450  78.2684851  64.5279980
  85.6218338  86.6282368  49.0967941  85.3747272  86.7412281  48.1789684
  86.3097095  87.2779751  49.2413664  54.7853279  46.6290092  35.3192258
  55.3006315  45.8388329  35.4814601  54.5882845  46.5984344  34.3830252
  83.2096195  88.7784767  78.3904266  83.4305191  88.5502720  77.4874544
  82.7119350  88.0269432  78.7125015   6.9600540  31.2203860  54.4144869
   6.0952216  31.5114069  54.7036314   6.8060893  30.3577185  54.0293455
 113.1669044  47.9165936  21.1045408 113.7991142  48.5938931  21.3449717
 112.3399925  48.3871889  20.9996533  62.5668287  76.2155914   2.4581838
  61.6388798  76.3006544   2.6770610  62.6261473  75.3858137   1.9847055
  47.7383327  31.2141514  22.3554659  48.6095095  30.8353853  22.4730158
  47.3365545  31.1645293  23.2228446  78.0973864  48.1258440  61.0994387
  78.9364719  48.5071898  61.3577938  78.3320189  47.3190928  60.6408262
  66.6043186  64.5991039  26.0771132  67.4942303  64.7215796  25.7465315
  66.0466528  65.0289297  25.4286575  59.1863918  29.7902536  10.0640512
  58.4531927  29.9609971  10.6552327  59.9240494  30.2575326  10.4561555
 106.7433262  60.2113914  22.9097223 105.8654976  59.8317814  22.9488540
 106.9722366  60.3801918  23.8236904 104.0278530  68.7519264  39.8157883
 104.1121864  69.6102571  40.2309799 103.1748009  68.7782907  39.3823886
  53.0798578  55.5229425  15.9136677  53.7118673  56.2233782  16.0754907
  53.5686350  54.8704958  15.4120266  99.4422626  63.1163406  57.0992136
  98.5621643  63.4195662  56.8762732  99.5084572  62.2527599  56.6916800
 104.6956730  55.3012896   2.0197888 103.7403011  55.3596449   2.0103444
 104.9263000  55.2986336   2.9487866  57.1013689  64.7341967  22.9322958
  57.1765852  65.6842184  22.8426576  57.7139854  64.3833780  22.2858787
  58.2720089  68.4953547   5.0331205  57.5192451  69.0841341   5.0871092
  58.5838366  68.5872030   4.1328114  67.5230360  21.4839458  19.1815543
  67.1378231  21.2513471  20.0263858  67.9775476  20.6903601  18.8989377
  88.1182575  15.3784883  33.6845875  87.5715828  14.5946205  33.6304069
  89.0082550  15.0428653  33.7917519  75.5509853  72.1377087  13.0204964
  75.3006077  72.7857924  12.3620653  74.8958445  72.2331953  13.7118030
  52.4782324  47.8470659  27.2001100  51.6444969  48.2932615  27.0517111
  52.9057598  47.8472710  26.3436890  67.3767567  29.9898434  36.1060762
  67.4481916  29.7126770  35.1926708  67.6030159  29.2091823  36.6116524
  65.0176191  87.7292728  39.5351577  65.9043455  87.9561424  39.2550135
  64.8475838  88.3044720  40.2811241 101.0285091  52.6916361  16.9472599
 100.1789474  53.1206751  17.0492065 101.1032295  52.5286627  16.0070002
  43.8125849  46.9775677  17.2914851  43.7177134  46.8697071  16.3451242
  44.0120077  47.9064989  17.4078774  68.7628555  86.4663601  28.5125566
  69.6526670  86.1137390  28.5012960  68.3167839  86.0137558  27.7967381
 103.5329437  16.9190490  17.2708356 102.9906464  17.6660299  17.5241470
 104.3115807  17.3113668  16.8758118  42.7829027   6.7792791   3.8931879
  42.2843790   7.4939227   4.2894101  43.5824585   6.7259622   4.4167298
  17.8803921  65.6280899  28.0785131  18.6022949  65.3433371  27.5181556
  17.6329505  66.4857864  27.7330208  71.8510199  85.9221649  30.2072477
  72.4224329  85.5216026  30.8624339  72.1656799  86.8231773  30.1337504
  80.6375122 107.5374985  39.1336775  80.4242134 106.6645432  38.8040018
  81.2247944 107.3776245  39.8724389 102.5338078  94.6867561  34.3077826
 101.9966793  93.9569092  34.6160722 102.5345516  95.3079414  35.0360417
  16.5893209   5.1307869   1.6347502  15.7876647   5.6526440   1.6700038
  16.9625711   5.3229535   0.7745245  90.5061626  80.8205986   5.1740444
  91.3500023  80.6944466   4.7401530  90.3767014  80.0205040   5.6832767
 103.9970398  79.8175716  65.7272434 104.6848392  79.1525316  65.6975937
 104.3865967  80.5839539  65.3063679 102.2026730   0.6694863  54.2770100
 102.7879238   1.4209332  54.3721056 101.3593483   0.9794293  54.6071053
  78.4090233  24.4519901  36.0628080  79.1075277  24.3518710  36.7095661
  77.6137829  24.1898870  36.5266299  96.4356041  35.7213759  12.4846780
  97.2986507  35.5440283  12.8587615  96.0862732  36.4363170  13.0167079
  61.5638304 107.7609062  55.6390762  60.8365107 107.6642418  55.0243425
  62.1738243 108.3517170  55.1974010  51.4344645   1.6882169  85.2575302
  51.0877085   1.6326986  86.1479855  51.0767603   2.5059706  84.9117565
  83.5731125  81.0213280  14.0630770  83.4035778  81.7986488  13.5308611
  83.2890224  80.2894688  13.5154343  65.9445477  85.7744598  33.8986373
  66.3825083  85.1770687  34.5048928  66.2846231  85.5331612  33.0370355
  73.2264900  75.6670380  74.5661020  72.7288961  76.4374971  74.8400021
  72.7388382  75.3201103  73.8190603 103.9676094  57.7972889  25.9137917
 103.0382347  58.0030584  25.8130455 104.3171978  58.5184050  26.4372516
  87.3641586  84.0353966  47.6265097  86.5964317  83.4779263  47.4997902
  88.1096745  83.4464264  47.5100803   7.7017879  50.4989004  19.4528198
   7.6289964  50.4257441  20.4044390   8.6432332  50.5510950  19.2879295
 101.7587948 104.2753029  34.9460483 100.9996796 104.7184372  35.3249979
 102.0563602 104.8621750  34.2508698  68.3947992  50.8752203  15.8908975
  69.2922401  51.0354710  16.1827123  68.0302668  50.2850151  16.5504444
  79.6398830  75.7980919  47.6213312  79.4844437  76.7415476  47.6656151
  78.8020897  75.4302549  47.3402119  64.2183161  99.7368240  44.2986155
  64.0830374 100.2363968  43.4934139  64.8630857 100.2453136  44.7904968
  59.2131567  63.8045168  21.3265491  59.3817043  64.0810442  20.4257965
  59.9031782  63.1684160  21.5149093  74.6004295  58.0634880  50.3963232
  75.4532719  58.4652948  50.5619907  74.7797441  57.1236324  50.3688860
   3.6091590  19.9206710  25.9755373   4.3433070  19.5859671  26.4905429
   3.1568316  19.1361916  25.6653380  68.5901880  33.7166214  54.9055672
  68.3448124  33.6748219  55.8298397  68.9425755  32.8479981  54.7117949
  85.7578373  90.2117538  31.0694313  86.0126972  90.7160759  30.2968144
  86.5171814  89.6597767  31.2563491 110.8393478  62.9640484  32.6505232
 110.3878212  62.5781584  33.4011531 111.7301846  62.6177835  32.7029443
  81.3930511  85.4454041  21.5872645  80.5514240  85.3938198  21.1342263
  81.4435482  84.6336174  22.0919299  74.8662186  78.0042219  24.5477867
  74.8130989  77.3669481  23.8355422  74.9839783  77.4735737  25.3356814
  86.8525696  37.3997426  40.5741024  86.6851425  38.1027412  41.2017870
  87.7996731  37.4214673  40.4371452  88.0284405  49.5801640  45.8488750
  87.2428322  49.9051952  46.2886572  88.5816097  49.2524099  46.5579605
  73.8740158  71.1638498  48.2970381  74.3860817  71.9360352  48.5373497
  73.5037851  70.8551121  49.1239882  87.2081852  85.0998783  32.9870868
  87.0259762  84.1602612  32.9997206  86.3663960  85.5042934  32.7771425
  83.4015083  67.6959038  43.1893206  82.7957726  67.2929525  43.8113642
  83.2417011  67.2343254  42.3661327  92.5174522  39.9617290  41.0135794
  92.2839165  39.2524624  41.6124344  91.7724228  40.5615568  41.0506201
  93.2769966  82.6158047  43.4162426  92.9285336  82.2305965  44.2202473
  93.2572937  83.5595894  43.5747337  41.9923735  20.6257057  89.5933247
  41.6527700  19.8275542  89.9981117  41.2155628  21.0735917  89.2583656
  30.4624557  10.2349377  90.7081318  29.6770525  10.7817972  90.6902790
  30.4953957   9.8921692  91.6012478  99.8787022  90.9145164  19.2656016
 100.5104351  90.5364609  18.6538672  99.3278503  90.1767921  19.5274329
  47.1370173  39.0844774   0.4909167  46.4118290  39.3527246  -0.0733302
  47.8315353  39.7163939   0.3050270  70.5133963  61.0004854  67.8970623
  70.7221270  61.7304659  68.4799814  71.0975790  60.2958059  68.1770372
  71.0628319  47.4088478  20.0385118  70.6363535  47.0990038  19.2395461
  70.5170965  48.1375360  20.3341770   0.6630819   0.7822531  52.3890591
   1.1129562   0.1397273  51.8404198   0.2759483   0.2649650  53.0952978
  70.1178837 107.2260284  53.9145279  69.2658186 106.9954777  54.2847490
  70.0227165 108.1396008  53.6451674  68.1554079  64.0157461  42.9297686
  67.5906658  63.5760450  42.2941875  69.0344238  63.9466763  42.5572157
  80.5665684  89.4721031  11.6877270  80.9505939  90.3427601  11.5841234
  79.6540976  89.5792961  11.4191520  85.7760239  48.6553049  28.6670065
  86.0130501  49.4172144  29.1957331  86.5739536  48.4418583  28.1832814
  84.5562267  75.2080297  28.0909133  84.1323280  75.6068850  28.8508248
  85.2954197  75.7849979  27.8987288  66.3260889  82.7986240  25.1011515
  65.3944111  82.7647686  25.3181028  66.3483810  82.8274536  24.1446447
  66.5936470  93.8737488  23.3712721  67.0136166  94.4121838  24.0420508
  66.6738605  94.3869972  22.5672913  31.2326121   2.6890695  20.9825611
  31.3844585   2.1162128  20.2308893  32.0782566   3.1098345  21.1377215
 102.6703167  75.9273577  45.0467873 103.5348034  75.7795525  45.4302645
 102.3376656  76.7032719  45.4979277 114.1883469  59.0725136  46.8308353
 114.1554642  58.6724377  47.6997948 113.9262772  58.3713388  46.2342596
  86.8977070  78.5754919  41.8843794  86.7399788  79.1053867  42.6657629
  86.2851810  78.9193439  41.2341452  87.7814293  98.8380337   7.9723442
  88.6376190  98.4121132   8.0143255  87.8365231  99.5498848   8.6098945
  89.7344303  33.8712406  23.2732630  90.1417255  33.4243870  22.5311923
  88.8306427  34.0211105  22.9959059  93.9605808  51.3894606  15.5446374
  94.2591000  52.1452713  15.0388002  94.3796921  51.4924049  16.3990247
 113.6474705  62.9722786  20.4983139 114.3376255  63.4234285  20.9845018
 113.3760834  63.6005068  19.8290491   4.6889323  71.2500238   8.8592446
   4.1286516  70.4965878   9.0453917   5.4603970  70.8755541   8.4339827
  60.4302073  64.7281218  38.5163116  59.5706463  65.0509071  38.2457542
  60.3223515  64.5057821  39.4410610  57.1259642  97.3303795  30.3713560
  57.7385712  96.6082764  30.5110574  57.6550198  98.0186939  29.9681711
 103.7820911  67.1392727  23.2060528 104.4171143  67.5127316  22.5948954
 102.9444981  67.1973658  22.7463841  75.9637547  67.2337103  13.4731507
  76.3586664  68.1054020  13.4523892  76.5699720  66.6842318  12.9763520
  -0.0708819  90.4952049  31.1349893  -0.0262668  91.2473965  30.5446911
   0.6467795  89.9274635  30.8541632  87.9352379  59.5032215  10.2976716
  87.0930576  59.9464035  10.1948917  87.7700520  58.8235664  10.9511399
  54.9751425  88.1401443  27.0193839  55.2184725  88.9248085  27.5106287
  55.7570171  87.5886250  27.0463347 101.8431473  48.3421898   7.0574224
 102.3137283  48.7598848   7.7787542 101.0047054  48.0806541   7.4380106
  59.5440340  45.7453728  91.7934418  59.7429276  45.5737352  92.7138901
  58.8745403  46.4290905  91.8165302   1.7956445  93.1030178  18.1085122
   2.4929416  93.7061691  18.3658266   1.6970035  93.2389641  17.1661651
  98.1376266  85.6641388  55.3937817  97.5814819  86.3350964  55.7897043
  97.6343441  85.3480530  54.6434259  99.2402649  86.1334610  26.4369130
 100.0075245  85.8238888  25.9555578  98.9840889  85.3901577  26.9829059
  78.4932709  34.5767045  49.5949793  78.8562584  34.5339894  48.7103033
  79.2588329  34.6520281  50.1646042  63.6298800  59.5592117  59.8413324
  63.5233974  59.8861170  58.9480114  63.8390350  60.3374767  60.3578472
  22.5298285   9.4106591  38.9129090  22.9526901   8.7084150  38.4186697
  22.1757460   9.9954498  38.2429266  53.8155651  60.7778978  23.2767534
  54.4802856  60.2602196  22.8224564  53.1434536  60.1421642  23.5224032
  68.2975721  71.8835354  54.5910931  68.3873940  71.1783266  55.2320671
  67.5739431  72.4162579  54.9209404  89.3321705  69.2938328  35.9225368
  88.7937546  68.6942577  36.4391232  90.0315571  68.7439251  35.5694246
  53.0739737  31.7712331  86.6267776  53.8769627  31.5111232  86.1753559
  53.1178999  32.7267671  86.6621971   3.8894954  96.4309978   8.0200440
   4.2364448  96.5257549   7.1329820   3.5864899  95.5240440   8.0630994
  74.3964720  71.9486856  27.1828866  74.4260645  70.9965801  27.0888066
  74.9994421  72.1371651  27.9020071  97.5112247   8.9152414  27.4854374
  98.0691147   9.6027893  27.8491187  96.8431377   8.7695861  28.1552720
  66.7201042  47.9597092  21.8516660  67.4922991  48.0279732  22.4131656
  66.0346842  47.6203775  22.4272394  79.6392012  58.1393528   5.5131835
  79.7921276  58.2581997   6.4505851  80.2103424  58.7829304   5.0938463
  97.5100040  56.2650681  13.3946347  97.3702145  55.4817724  13.9267373
  97.9327011  56.8856239  13.9883316  14.7591197  14.9386120  37.3104072
  14.8140287  14.7183311  36.3805175  14.2057598  15.7191145  37.3393846
  72.4804401  74.0523052  67.4514198  71.8891859  74.0108681  66.6998005
  72.9529762  74.8771429  67.3392534 106.6169643  90.3001976  27.5595880
 106.3207054  90.5204487  26.6764379 106.1334324  89.5049000  27.7830482
  55.8084822  86.4832020  24.3823886  55.4339838  87.2475052  24.8203683
  56.2689304  86.0112286  25.0762653  79.6715450  52.0906401  48.0841112
  80.3183174  52.5770664  48.5952902  80.1928425  51.5453243  47.4949503
  89.0914631  87.4438381  26.6139197  89.9670506  87.5897503  26.9720864
  88.9510918  86.5010071  26.7010856  79.8933315  71.4709425  39.7542548
  79.9118137  72.2424889  40.3204775  80.1825142  71.7933321  38.9006305
  74.7787380  95.4698181  88.4193039  74.2729378  94.6883869  88.1962299
  74.4096088  96.1595726  87.8677559  80.7534313  57.7644062  12.6912177
  81.3982773  57.2267628  12.2314942  79.9654102  57.7077627  12.1508050
  75.7824278  61.8389750  47.7813768  75.6068134  61.0023308  47.3507690
  76.6956902  62.0309019  47.5684214  48.3977556  59.9368095  14.2918193
  47.5687504  59.7410917  14.7284877  48.6991930  59.0910721  13.9600050
  65.3132200  79.7164583  26.4418364  66.0901880  79.8271990  26.9898176
  64.6056128  80.1188374  26.9454455  85.4616642  48.5402441  37.6606464
  84.9122334  48.6994791  36.8931866  85.3663826  47.6035643  37.8332400
  84.0534973  58.4228754  29.2077684  83.8629532  57.5130224  29.4360089
  84.2140865  58.8520384  30.0481629  96.4879990 103.7335110  70.6372404
  96.0204983 103.0179501  71.0681105  95.8003426 104.2504787  70.2175903
  74.4862843  68.8591766  26.4682460  74.1074657  67.9809570  26.5064478
  75.2835417  68.7537479  25.9491086  55.5813885  95.9311962  33.4784579
  55.0973892  96.7530537  33.3977485  55.3141499  95.5782032  34.3271136
 100.6025600   5.7169551  43.3191061 101.3511372   5.6541359  42.7258921
 100.0242329   6.3592815  42.9077721   0.1873520 108.4439182  54.6086836
  -0.5424149 108.8144493  54.1123199   0.6763070 109.2055511  54.9202442
   1.8605442  74.7175598  28.2143974   2.6514074  75.1592970  27.9051495
   1.8715493  73.8689518  27.7717113  59.0352535  72.4084187  23.4665656
  58.8861609  71.6106224  23.9740324  59.9698639  72.3901415  23.2606435
  95.2626133  56.1716795  46.1958122  95.9144783  55.6371403  45.7424164
  95.7767391  56.7473507  46.7619467  75.7427597  83.4966183  29.8983073
  75.2707100  83.7683010  29.1111660  76.1629772  82.6723099  29.6530461
  57.0906878  70.4081392  15.4511166  56.7784405  69.6602535  15.9604311
  58.0430698  70.3124475  15.4443526  94.8508072  67.5818157  47.2099447
  95.4979324  67.7266169  46.5196609  94.2593765  66.9213438  46.8490744
  78.9397812  91.4417076  20.7990813  78.5184383  91.1209011  21.5964413
  79.5872831  90.7704735  20.5836463  86.9586372  62.7607155   7.4195278
  86.1195755  63.1520891   7.1765602  87.0581818  62.0183420   6.8235379
  29.1249919 103.9102650  81.2415695  29.5368910 104.3690491  80.5093861
  29.8426008 103.4354496  81.6608715  73.9041281  96.2192059  46.7431974
  74.4751835  96.9809532  46.6438913  74.3968773  95.6222534  47.3062992
  19.3928444  73.3988094  43.6174870  19.4042408  74.0106964  42.8814840
  20.3153753  73.2008839  43.7787199  77.7587843  90.1442814  32.0066261
  77.4234486  89.3642712  32.4486208  77.9229736  90.7682610  32.7136779
  58.8505363  95.2649212  30.3076768  58.6275864  95.0850201  29.3943524
  58.3373642  94.6310806  30.8088136  76.1356211  78.3046865  46.4718151
  75.9905195  79.0109253  45.8422089  75.3530741  78.3106804  47.0230150
  43.1858778  42.1264315  94.1521263  42.6529980  42.6652098  94.7369289
  42.5879955  41.8727922  93.4489727  93.6360741  49.0856838  47.2640419
  94.3806648  49.3669510  47.7957439  92.8973866  49.0754604  47.8727102
  94.4132805  72.4781322  41.7456913  94.8575211  73.0575705  41.1267138
  94.0825558  71.7598486  41.2063217  90.0893497  70.7035017  52.0744658
  89.5938301  69.8889208  51.9899273  90.9945965  70.4208040  52.2042608
  16.2165642   1.2743419  42.0552683  16.8492544   1.6925222  42.6392698
  15.7117867   2.0007047  41.6894436  53.5706377 103.1976700  42.4870539
  54.2187643 103.0192280  41.8056440  53.0138826 102.4191189  42.4978209
  65.8706856  58.5179806  36.5037227  65.1030588  58.8776398  36.9482684
  65.6699467  58.6040115  35.5717707  75.4250717 100.4053688  70.4865122
  75.7366562 101.0689831  71.1019564  75.1225233 100.9051514  69.7282791
  88.1686878  59.3937683  47.9876947  88.9787865  59.7694731  48.3323908
  87.5281906  59.5227814  48.6872387  82.7972221  68.7916183  34.8405099
  83.4263134  68.1065702  35.0667453  83.0240822  69.0385151  33.9439535
  85.1685905  80.9332466  18.5594606  85.7809734  80.4120636  18.0402517
  84.7622681  81.5257931  17.9269814  34.5036769  83.6454105  26.6007614
  34.9236012  83.1019783  27.2675276  33.8075662  83.0929947  26.2450933
  85.4367733  95.7907391  60.5167437  84.5902252  95.9731197  60.9245777
  85.4999065  94.8356342  60.5127716  78.2165337  60.6972837  34.4878531
  77.3287821  60.3394747  34.4779897  78.1376362  61.5457964  34.0519309
  79.0436125  77.0144987  28.3506465  79.0267324  76.1836910  27.8755569
  78.1837273  77.4017096  28.1866312  45.0737715  88.3927441  54.0195084
  44.3602037  87.7556515  53.9853239  45.8184958  87.8999901  54.3641901
 113.5319614  72.5303793  25.5559587 113.5938931  72.7794075  26.4781213
 114.4306469  72.5878429  25.2314687  94.2066669  96.4481831   3.1486648
  94.3405437  96.0818672   2.2745237  94.4167328  95.7290649   3.7444586
  71.3354826  75.7083845  43.8319445  72.1116495  75.3950262  43.3676100
  70.7090950  75.9159470  43.1385565 113.9942455  86.2491703  35.0890231
 113.3061695  86.6782379  34.5804167 114.8050404  86.6610336  34.7903299
 115.1473713  92.6877975  35.4844713 115.8615208  92.7818775  34.8541021
 115.5803967  92.6835442  36.3381124   3.8688374  51.5258741  29.4251347
   4.1759229  52.2011852  28.8202477   4.4299170  51.6206789  30.1948309
  78.9380693  64.8198843   3.3144557  79.4725847  64.4455910   4.0147635
  78.0795717  64.4108963   3.4237462  83.9422989  24.0729117  49.1630888
  84.2508316  23.1930947  49.3797970  83.2640362  23.9328861  48.5023403
  75.6815147  86.4660168   0.0838811  76.1640739  87.2628975   0.3037570
  76.3600731  85.8295059  -0.1411524  78.9945030  39.9219012  41.6272354
  78.9908409  39.9351335  40.6701374  79.8861361  39.6627760  41.8597794
  78.7695312  79.1802120  31.2586904  79.1117001  78.3569336  31.6070676
  78.1960964  79.5125914  31.9492960  91.9180393  80.9409523  49.2095661
  92.7191639  81.3201141  49.5710516  91.5703869  81.6209793  48.6325550
  60.8941698 102.3126793  40.2053499  60.4737711 102.8979492  40.8353901
  61.5360737 102.8638840  39.7577381  17.6833892  97.7845573  93.2859421
  17.8017735  98.7241459  93.1467152  16.7792296  97.6992893  93.5883617
 114.6673107  81.4832973  28.3021116 114.7649002  81.3221264  29.2405844
 114.0334797  82.1984196  28.2465386  64.2797327  94.1030979   3.8299936
  63.9640474  93.7661076   4.6684527  65.0008488  93.5197067   3.5935971
 105.9168053  94.8390007  27.9418516 105.5077076  95.2897263  28.6805820
 106.6061115  94.3061829  28.3383250  91.3665676  67.5955200  34.7355318
  90.6447220  67.7834558  34.1356540  92.1552181  67.7963877  34.2316341
  77.7522326  98.5991669  18.8173771  78.5032129  98.0269432  18.9749038
  77.6640701  98.6217976  17.8645146  69.9144125  72.9479074  38.8879085
  69.9761009  72.5199318  38.0339384  69.0830708  72.6413059  39.2499781
  84.0006733  65.4262114  46.2246466  84.1884041  66.3641644  46.2597656
  83.3479118  65.3384399  45.5300808  87.3079014  52.9348373  26.6167665
  87.8389359  52.4518108  27.2499442  86.8905449  52.2558022  26.0867095
  70.2806997  74.9815178   8.4628665  69.7101259  75.7500696   8.4641117
  70.0192642  74.4878674   9.2401642  84.9914265  69.3419695  23.2995200
  85.8685207  69.0311050  23.0752301  85.1420879  70.0665188  23.9066100
  88.4068584  92.0056438  35.5908203  89.2198944  92.5081253  35.5388141
  88.3281994  91.5878963  34.7331882 104.1613674  83.1449032  46.3255596
 103.2927036  82.7688503  46.4678383 104.7659874  82.4231529  46.4980125
  89.9023628  76.2575388  51.7152691  90.0813198  75.3413820  51.5034533
  90.4329395  76.7552519  51.0931778  62.0659399  89.6080399   8.7094337
  61.5483475  90.3392315   9.0466148  62.9715061  89.8412514   8.9138710
  26.9790030  97.4341869  10.1456261  27.4273348  98.2732201  10.0395536
  27.1221209  96.9795322   9.3155438  96.6249180  81.8043709  33.3113623
  95.8450508  81.7299271  33.8613510  96.5175533  82.6390266  32.8552461
 104.3430424  48.5023403  37.5003386 104.8890781  48.5724878  38.2833791
 103.4630775  48.7294865  37.8008342  17.7098286  88.7022114  31.9054675
  18.1238079  89.4677734  31.5070081  17.0558405  88.4229088  31.2647486
 104.2532825  88.9620018  52.7552557 103.4796429  88.9162827  52.1934509
 104.6178532  88.0772305  52.7332973  66.0256624  72.5790358   9.3266964
  65.1617813  72.2896338   9.6202749  66.5758324  72.5213814  10.1078641
  66.0876703  47.5778198   7.2525150  65.7916689  47.2504807   6.4031261
  65.3463316  48.0832195   7.5860035  81.5124607  58.5865879  19.0006971
  81.3825989  58.8451529  18.0882764  80.7538605  58.9449501  19.4614911
   0.7484439  42.6539993  16.7558014  -0.0054640  43.2243395  16.9060218
   0.3723479  41.7782688  16.6670024  87.2117901  67.9972219  22.9573917
  87.6461315  68.2980728  23.7555552  86.7911148  67.1750498  23.2089829
 110.7177830  62.8558159  19.3037009 110.8564949  61.9840431  18.9335620
 110.8611774  63.4532499  18.5697103  76.3367462  35.1484179  32.7687955
  76.9506788  35.8812046  32.8171921  75.9744787  35.0807214  33.6522055
 102.4618149  63.4215307  23.1246424 101.8928432  62.7464199  23.4944105
 102.7883434  63.0396843  22.3098993  84.8108101  41.2962341  51.7013979
  85.4397964  40.6501722  52.0226622  85.3442669  42.0583630  51.4759827
  92.8566647  97.1398926  32.3603058  93.3725548  97.0979023  31.5551186
  92.2363663  97.8533268  32.2103977  99.9468899 102.2704887  19.3335855
 100.2548313 103.0719662  18.9104664  99.8336029 102.5131130  20.2525687
  68.9066744  85.7588291  24.0604877  69.2606401  84.9201393  23.7646389
  68.3177519  85.5299950  24.7795391  77.0303822  82.4748135  45.1557112
  77.8238201  82.0948887  44.7784281  76.4430332  81.7291260  45.2790499
  98.5915756  65.6570005  31.6870952  98.5633659  66.5945053  31.4960027
  97.7676296  65.3166246  31.3385582 104.4313335  75.8276510  61.1685038
 104.6530437  75.8299255  60.2373362 104.0874863  76.7053080  61.3349819
 111.0997009  67.9816055  20.8701301 111.8613338  68.5529947  20.7717991
 110.5622768  68.4112453  21.5355802  52.4746323  65.8530664  13.2384431
  52.5819778  65.6385469  12.3117888  51.5972328  66.2312460  13.2966590
  87.8384590  65.2902889   7.9608619  88.1096363  64.4938993   8.4174329
  87.3021698  64.9777985   7.2321814  79.7044611  65.6224728  45.3226948
  79.2746496  65.7629490  46.1663580  79.8346949  66.5030146  44.9706841
 112.4270248  98.6702633   9.3383604 112.7025890  97.8969765   9.8306316
 113.2418346  99.1335392   9.1442668  93.2151031  49.2288256  32.9598832
  93.6675549  50.0233984  33.2430339  93.8128948  48.8238049  32.3315263
  97.0901299  99.6772003  55.3457212  98.0104637  99.4669151  55.1875734
  97.1122551 100.3600407  56.0161495  84.8311234  50.1647234  33.5734248
  84.6635914  49.8250532  34.4525075  84.5820045  51.0876751  33.6217737
  64.9181271  53.9336205   9.3524277  65.0145435  54.7019482   8.7897527
  64.3876553  53.3251190   8.8380742  98.8584805  88.2899666  53.0972719
  98.6278248  88.3847618  52.1731281  98.7515545  89.1684151  53.4621429
  78.0810833  97.1855259  71.2796640  77.6163721  96.3605690  71.4200878
  77.6454592  97.5802422  70.5242443 106.2735462  63.6159849  13.7825179
 106.0411930  63.3884621  14.6827841 105.6072617  64.2494392  13.5159934
  61.7173529  53.3980799  35.1462007  61.1369896  53.1219578  35.8555436
  62.5979519  53.2069302  35.4690719 101.7575455  67.0612907  12.4933672
 102.0893764  67.7538157  11.9219375 101.0230637  66.6831923  12.0098317
  62.9129410 106.5400314  23.4238553  62.9804087 105.9862328  24.2016649
  62.0400620 106.9286060  23.4814835  57.5273180  88.5784626  14.8838329
  57.7466583  88.7547874  13.9689398  57.9423761  89.2901707  15.3710997
  99.2480469  79.8296976  15.0757194  98.8985157  78.9389420  15.1003993
  99.1981220  80.0811195  14.1534781  97.4328709  71.1764908  23.3793235
  97.4615002  71.8072557  22.6599193  97.5472355  70.3254509  22.9563737
  82.5755024 107.0396328   9.0042818  81.8759251 107.6306915   8.7259543
  83.3828926 107.4947262   8.7650472  42.8926754  27.6262569  82.4941063
  43.6031437  28.2668233  82.4603558  43.2346964  26.8643594  82.0263863
  85.4407883  96.0678291  27.5179958  86.1015797  96.7180347  27.2796488
  85.4479218  96.0588455  28.4751272  67.0326519 108.3187485  92.0404816
  67.0034790 107.3620415  92.0302296  67.8921604 108.5360336  91.6795635
  99.2417526  69.9931955  32.8243995  99.0773010  70.3901196  33.6797595
 100.1743412  70.1408005  32.6671672  46.0675097  89.4032192  63.0147839
  46.1120272  88.4489059  63.0743074  46.7728567  89.7118378  63.5835314
 108.6503506  73.1841850  23.3328342 108.9675522  72.7311420  24.1140938
 109.1996098  72.8510618  22.6232028  16.7831039  12.8600180  19.3313253
  16.9971669  12.8154874  18.3994317  16.0206938  13.4371543  19.3746316
 106.8873310  54.7946930   8.5129219 106.3826370  54.2299414   9.0982246
 106.3125420  55.5417871   8.3464766 102.8671741  74.1837263  68.7908363
 102.6141262  75.0002003  68.3600569 102.8582191  74.3929529  69.7248507
  72.4554634  64.7473717  65.8350039  72.6789045  65.6772566  65.8752060
  72.6791430  64.4856882  64.9418545  80.4634190  81.0160542  26.0705113
  79.6256733  80.7652283  25.6812882  80.2258587  81.4617825  26.8836093
  76.2325096  71.2474108  54.3890429  76.7269945  70.6229877  53.8581896
  76.1186886  70.8079863  55.2317667 108.0612850  50.6315804  50.7068110
 107.3103523  51.1140394  51.0526037 108.2876682  51.0891056  49.8970842
  80.1038170  39.8999119  47.5882959  79.4129610  39.6886683  48.2162428
  79.8794508  40.7745218  47.2705698 114.5867920  64.7526693  49.9238729
 115.3941250  64.5565414  49.4485044 114.1398048  65.4008865  49.3795872
  72.5252199 101.4285851  36.1731052  72.9431677 101.0023689  36.9213629
  73.2339001 101.9080067  35.7439590  25.8588457   0.8601563  27.4801159
  25.3684545   1.5674891  27.8989577  26.6518307   0.7726210  28.0090213
  10.4003775  76.9955397  87.4386311  10.8544469  76.1885500  87.6811600
  11.0875809  77.6616812  87.4232674 105.1338482  97.2489357  10.7804763
 104.6904564  97.7910137  10.1279461 105.9798241  97.0407104  10.3840041
   1.5968408  74.6873999  33.7025809   1.2563287  73.7982941  33.8014436
   0.9933925  75.2325106  34.2074943  56.1329460 100.0106430   4.5614621
  55.8814859  99.9897575   5.4848063  56.7850304  99.3152618   4.4750243
  69.6540117  96.6958714  22.6628947  69.6754932  96.9312954  21.7353463
  70.4906988  97.0070076  23.0084085  76.6632175  82.1276951  37.0632362
  77.0029163  81.6140175  37.7960205  76.7907810  83.0382252  37.3295093
  69.6332216  76.8703413   5.8144891  68.7579250  76.6933203   5.4698813
  69.4774961  77.3370552   6.6355604  77.2129583  84.1072655  20.8544469
  76.5048218  83.5818768  21.2269306  77.7476406  84.3572235  21.6080165
  32.5856709   4.9646857  51.2421942  31.9698548   5.6958687  51.2909126
  32.1319842   4.2403215  51.6731167  77.9603434 106.4256287  32.7266312
  77.0637751 106.1547947  32.9242444  78.3169651 105.7087898  32.2020411
  49.3747711  95.0916672   8.1475317  49.0762806  94.6877384   7.3326820
  48.7408447  94.8031330   8.8041270  60.9889650  35.0342107  86.0630131
  60.1952839  35.2213717  86.5642929  61.7031240  35.1698208  86.6857624
  97.3126602  92.3240757  38.4668803  96.3655281  92.3095417  38.3291578
  97.4397373  91.8787670  39.3046069   4.2439160  92.7043629  16.8043685
   4.0185070  91.7897892  16.9745779   3.9177638  92.8708267  15.9199786
 111.7111683 104.9670219  46.6477585 112.4897957 104.8862553  46.0968971
 111.8619537 105.7610130  47.1606684  56.2213039  23.4926414  84.8832226
  55.6337261  24.2481613  84.8700809  57.0855045  23.8643646  85.0598717
   4.9238381  11.8623710  36.1876130   4.6134344  11.9308352  35.2847338
   4.9810591  12.7685559  36.4905787  22.8410244  81.7340088  20.9429717
  22.0028329  81.4760113  21.3265204  23.0661297  82.5515270  21.3870692
  14.6850944   7.6483083  30.2560163  14.1364932   7.9341233  29.5255518
  14.8921919   6.7352051  30.0570583  84.7291946  86.1356926  14.2569757
  85.3580189  85.4153919  14.2124617  85.2677631  86.9262600  14.2227459
  64.2276955  84.2645454  49.9510956  64.8671198  83.9116859  50.5698490
  64.4064522  83.8022518  49.1322136   1.8734361  92.2268009   0.9956416
   1.9579874  92.3886490   0.0560211   1.0297825  91.7840195   1.0874493
 100.1388073  84.7140408  31.7115355 100.0916958  85.5338573  31.2196898
 100.1168919  84.0310192  31.0412860  35.7612586 103.7417984  71.1340523
  35.2268744 104.4780922  70.8365011  36.6057324 104.1334343  71.3570309
  92.0897102  90.3574181  31.7338371  92.7586937  90.2273941  31.0616875
  91.3489914  89.8269272  31.4403105  85.7719326  74.9544668  58.6621952
  84.8318958  74.8696327  58.5029221  86.1167908  75.3440237  57.8587341
 105.6751442  81.3991451  23.8936543 105.5189037  80.5203724  24.2394590
 105.4142570  81.9857883  24.6036005  33.8115120   7.0102209  22.1531606
  34.4763303   7.3502964  22.7519917  32.9975080   7.0423788  22.6557493
  84.1833878  33.0918980  36.0496354  84.0991783  33.3808565  36.9582844
  83.4463596  33.5032797  35.5982041  90.9952164  79.2980480  19.6234107
  91.7854977  79.8295259  19.7194457  91.2653828  78.4177351  19.8847365
  11.6394007  69.9117899  46.1073399  11.3394082  69.4852495  45.3046560
  11.7804456  69.1922235  46.7226171  59.7356033 102.5721931  28.9352298
  60.6487370 102.4633026  28.6695886  59.2337751 102.1140385  28.2610679
  68.8156223  76.8941355  61.0545683  68.0744028  77.3246956  60.6286049
  68.7587357  75.9820366  60.7698250  83.0126572  61.8695736  26.6813016
  83.8099575  61.6648293  26.1928082  82.9724789  62.8259277  26.6841912
  98.2537460  46.1457729  55.2389050  98.2249260  46.6800165  56.0326242
  98.3713341  46.7772913  54.5292616  90.6248665  68.7801504   0.1462081
  90.2180195  68.6938334   1.0083292  89.9959087  68.3831167  -0.4562892
  17.0827711  75.1180506  34.0090036  17.0915234  74.1751194  33.8445997
  17.9822683  75.3988600  33.8408256  92.8369808  93.7621784  10.0923109
  92.0922184  93.6628819  10.6853509  93.4469986  94.3272686  10.5664289
  96.0457897  92.1462822  21.0021424  96.4979553  92.0629406  21.8416858
  95.1418591  92.3562717  21.2367582  36.3623571  -0.2921217  48.8902569
  35.6058192   0.2847900  48.7851286  37.0797253   0.1727181  48.4595108
  42.7882862  92.1396160  26.5182996  43.2876873  92.9227448  26.7496800
  42.5519943  92.2689342  25.5997825  83.7780380  66.6463089  20.5811453
  83.9419937  66.8098164  21.5099144  84.1324234  65.7707930  20.4258704
  62.8205681  75.1226091  29.3039012  63.6533451  75.0651121  28.8354897
  62.8201962  76.0007191  29.6848917 104.3168449  15.4546916  35.4634809
 104.6337318  16.2715340  35.0780177 103.5128117  15.7015800  35.9204435
  85.1963902  80.1967335   9.0503418  85.2808380  79.2746878   9.2931086
  84.4629002  80.5165100   9.5756626  97.4339485  62.0301771  46.9888639
  98.2434750  61.9875193  46.4798689  96.9934654  61.1997509  46.8083143
  85.3238392  86.3905621  84.7122478  84.8061943  87.1140575  85.0655460
  85.7274246  86.7485428  83.9215565 115.2709579  26.2048864  29.7682905
 115.0788975  25.8412910  30.6326652 115.2395821  25.4511976  29.1790533
  56.1195850 102.9594517  45.2979279  56.2123108 103.7562370  44.7756624
  55.1751852 102.8091908  45.3399801 109.6807575  93.3702564  38.6560059
 110.0452709  94.2067814  38.3668923 110.1581860  92.7131271  38.1495690
   7.1155232  54.1983604  52.2953606   6.3734496  54.7937918  52.1903801
   6.7472422  53.3277798  52.1447134 113.6173630  54.8955774  50.9968901
 113.7135315  55.7376146  51.4418125 112.7122116  54.6359158  51.1686707
 102.0434380  29.6198320  21.6373968 101.5745258  28.7885332  21.7101645
 101.3692093  30.2547574  21.3954854  28.0784607   4.8963505  20.3709817
  27.9843736   5.8482945  20.4053664  28.6157203   4.7366467  19.5950425
  74.2115068  71.9294262   4.6169305  74.3198919  71.0056734   4.8431417
  74.8225164  72.0722866   3.8940945  78.3208466  94.3023109  47.0191622
  78.0422926  95.2173138  46.9814873  78.8503647  94.1805077  46.2311220
  82.6819324  62.9357004  12.6673329  82.7297974  62.1831274  12.0777750
  82.9412842  62.5882912  13.5207224  65.1623487  25.7120514  33.4013104
  64.9220514  26.2279415  34.1709495  65.1673079  26.3433480  32.6818156
  74.3269777  95.0936413  69.4189644  73.3876896  95.2557945  69.5065641
  74.7206402  95.9660816  69.4079590  96.1469364  76.5131950  44.9405766
  95.3927994  76.1356401  44.4878531  95.7652569  77.0494318  45.6355667
  16.4523554  61.2459373  48.0522776  17.2665536  61.3498068  47.5598097
  16.4723539  60.3396797  48.3597326 114.0610790  97.7994156  38.0612826
 113.6843586  96.9533634  37.8193855 113.3203220  98.3042717  38.3968854
  97.7908611  84.2760277  28.1661654  97.9190731  83.4222698  27.7527905
  97.6486301  84.0753174  29.0912127  71.2813902  94.1644764   8.3730036
  70.3524923  93.9849854   8.5184985  71.7341661  93.6218643   9.0186024
  96.9581413  88.0279350  30.4238033  96.2066650  87.8608513  29.8549485
  96.5862465  88.4655857  31.1895609  43.9315271  81.7609882  13.8904727
  43.6317205  80.8941364  14.1641712  43.2523203  82.0712852  13.2916176
 111.0637856  49.7178650  27.3860407 110.2748203  50.2531958  27.4708343
 110.7426167  48.8161564  27.3867726  75.4791832  77.0423460  40.6844711
  75.7683802  77.6174784  41.3928652  74.8589182  76.4434910  41.1002588
  85.6968784  94.7797108  23.3503509  84.9112988  95.1730347  23.7303281
  86.3527966  94.8355579  24.0452528  95.1312447  97.9963493  54.3206453
  95.8454323  98.6312294  54.3762827  94.4353104  98.3707905  54.8607349
  17.9723549  83.4318924  44.2163992  17.7023983  82.5163364  44.2878628
  18.1828153  83.6902809  45.1137161   4.6833098  72.3546791  58.0437231
   4.3661621  71.5343046  58.4214020   4.5042092  72.2721577  57.1070576
   0.2394143  69.6184444  18.8416719  -0.5034748  69.5083332  19.4351566
   0.2738317  68.7999392  18.3465981  87.4507904  73.4364891  37.2910833
  88.1999779  72.8779793  37.0836663  86.8612957  72.8709459  37.7899742
  93.5293865  77.9349756  34.6585655  92.8727341  77.4050474  35.1104712
  93.8130188  78.5738182  35.3125238  66.1906672 100.3367043  26.3203526
  67.0165586  99.8564529  26.3794613  65.5496073  99.6785927  26.0517287
 101.2512684  83.5789585   1.5966374 102.1064377  83.7212944   2.0024036
 101.3581848  83.8892174   0.6974486 101.7456245  34.9365902  27.6068711
 101.5811157  34.9374175  28.5498261 101.1300945  35.5800915  27.2557878
  14.5524490  57.6468134  11.4462805  15.2316952  57.0874071  11.0695541
  13.8114417  57.5608110  10.8464944 105.3195286  86.3334084  51.5223265
 106.1399078  86.8261528  51.5426445 105.5906677  85.4207993  51.4230204
 109.0126705  20.4478335  29.4794822 108.8704205  20.0012565  28.6448765
 108.1339073  20.5691767  29.8390293  94.1209793  30.6642032  90.9462070
  94.5414066  30.8972359  90.1184654  94.8229408  30.2802753  91.4716339
 102.7181149  99.7357559  41.3549328 101.7833424  99.8212719  41.5423203
 102.8247643 100.1237106  40.4864025  21.8306351   1.8035413  35.7087255
  22.6782870   2.1757101  35.9520578  21.2043500   2.2329234  36.2915039
   6.7201072  57.7135038  35.3529596   6.7725116  58.2572412  34.5669317
   5.8590043  57.2988176  35.3003573  58.0075264  81.0295105  18.3148587
  57.3334503  81.6225338  18.6467803  58.7003088  81.0611057  18.9746189
   3.9682633  97.6301384  47.0216179   3.3393925  96.9425869  47.2407627
   3.8855889  97.7371693  46.0740185 101.9408894  60.6362200  33.9456868
 101.3149166  59.9121284  33.9550042 101.9810963  60.9297943  34.8558664
  95.0572491  76.6969585  28.2419777  95.3530884  77.3098564  27.5688720
  95.3667736  77.0766401  29.0643358 114.1946220  92.3753166   4.2103985
 113.7180805  92.5554085   3.4000251 114.6931934  93.1750774   4.3778574
   2.8283530  86.6839695   4.9007732   2.4749482  85.7946110   4.9201325
   3.7604213  86.5673733   4.7166941   2.4489874  66.7820549  45.6262159
   1.6345564  66.7877531  46.1291075   2.1895224  67.0575666  44.7470093
  16.5159655   3.1749165   3.8535464  16.9950390   3.8290146   3.3447474
  15.5966640   3.4243485   3.7592089   2.5064701  89.2065334  57.2315788
   3.1753147  89.5941925  57.7960253   2.3547338  88.3371735  57.6022863
  63.9258480  97.8122425  40.5588198  64.0236902  97.0918941  41.1815262
  63.1659412  98.3007908  40.8751965  14.7617006  97.0236778  70.8531713
  14.7736931  97.3267269  71.7610550  14.1245890  97.5914001  70.4195642
  51.9244766  25.5959201  55.3274965  51.0720110  25.2517295  55.0609255
  52.4476242  25.5871058  54.5259523  72.3591089  90.8502388  40.8102703
  71.6570425  90.5752945  40.2205706  72.0472860  90.6093502  41.6826057
  82.8556538  81.4564419  29.6922994  83.2264996  81.4657116  30.5746913
  81.9146252  81.5687466  29.8267913  74.3763304  88.2827663  42.7939558
  74.2719936  88.1201363  43.7314510  75.2527475  87.9561901  42.5902987
  97.4271297  82.9436588   2.4273479  97.3600101  83.8260651   2.0625487
  96.8694592  82.4081326   1.8630451  95.2652359  24.3571043  50.7728863
  94.8561287  25.2149701  50.6591892  95.1398659  23.9185381  49.9313545
  93.7466526  64.5476723  40.2013874  93.7840939  65.3063536  39.6189547
  93.6237907  63.8012743  39.6148491  98.9737606  81.4636517  46.0044956
  98.3178043  81.5664101  45.3150082  98.4630013  81.3351536  46.8037748
 115.3998280  73.6132145  45.1878643 116.2817860  73.9773703  45.1118755
 115.1477242  73.7835932  46.0954142  52.4602556   2.4031994  77.9668283
  52.3758698   1.4670542  77.7858829  53.2717943   2.6596153  77.5287724
  88.7031841  88.5986614  16.8618536  89.5377254  88.5628319  17.3292863
  88.3885098  89.4917774  17.0016575  83.3654118  69.4348288  27.6512575
  82.6108742  69.6355200  27.0975208  83.6719608  70.2885246  27.9569769
   1.0072908  89.6219254  41.9907618   1.4886168  90.3802013  42.3217773
   0.8657121  89.8141003  41.0637999  67.6618624 107.5517082  60.6444025
  68.1135273 106.9827557  60.0210905  67.7902365 108.4350967  60.2988958
 106.3900566  49.6034336  35.7863426 107.2074032  49.2725134  36.1587238
 105.7158661  49.3319607  36.4092398  78.9164591  97.7137375  29.8882508
  78.7401962  96.7844105  30.0349736  78.0500221  98.1107140  29.7992229
  97.1881676  54.4505453  45.2616835  97.2496128  53.5021687  45.3759050
  98.0435181  54.7060966  44.9162865 101.1050892  81.2303543  18.7297571
 101.4663124  81.2739658  17.8444040 101.8707848  81.2677670  19.3029487
   8.8621205  61.3302851  19.8846483   8.2015634  61.8230486  19.3977368
   9.6539783  61.8643570  19.8217273   6.0679716  95.5519390  33.8617420
   6.1336380  94.8569679  33.2068014   6.4836371  95.1855373  34.6422577
  89.8786545  84.9434853  46.1112642  89.8313236  84.4622612  45.2851820
  90.3805065  85.7310581  45.9012556  99.0223694  88.7261868  46.9894934
  99.4556618  89.1409016  46.2434959  99.3025303  89.2414379  47.7459717
  92.7719021 107.3955345  44.1074753  92.4301529 108.0900478  43.5443592
  92.0182705 107.1160126  44.6272278   9.2438430   4.3670595   5.4558903
   8.7777531   3.5710371   5.2002722  10.1683569   4.1550791   5.3271657
   5.5395061  64.0939522  57.8319931   6.2878639  63.6102962  57.4823236
   5.3980285  63.7202263  58.7017870  39.0190983  43.2679462  89.0605545
  39.9504685  43.3108473  89.2772198  38.6570096  44.0878344  89.3965721
  71.8540812  82.5010395  57.7194595  71.9296551  82.6772976  56.7816639
  72.3859024  81.7175961  57.8595400  81.9602108  58.7140608  57.6042175
  82.5203800  59.2771912  58.1383705  81.0924053  58.7947655  58.0000019
  87.3476791  72.3572016  30.1619363  88.2024765  72.2430611  30.5773115
  86.9786739  71.4746904  30.1268744 105.8860302  15.4381454  14.7355533
 105.7249069  14.5026851  14.8587775 106.8064117  15.5556774  14.9707234
 100.5928898  96.6087627  24.5164371 100.2269077  96.2897968  23.6914754
 101.4914417  96.2789345  24.5232415  90.2189350  90.9301472  46.2350798
  90.3719330  91.5801716  45.5493021  90.7837963  91.2060356  46.9569159
  85.5541992  92.1129036  70.3724909  85.3649330  91.1766243  70.4341698
  85.0059605  92.5130558  71.0474253  76.5957499 106.0901642  24.0024304
  76.9777822 106.8907452  23.6427617  75.8907509 105.8671379  23.3945894
  96.1613083   1.1197373  38.9278698  96.9419479   0.6474149  39.2172575
  95.6985283   1.3362063  39.7373223  53.7878180  22.0355010  94.0624142
  54.4145536  22.7235484  94.2860794  53.8551617  21.9500971  93.1114197
   4.1495699 108.9501476   8.0628264   3.8631573 108.1308270   7.6591945
   4.7925818 109.3070316   7.4501252 107.1380520  35.6358480   3.7951270
 106.6213417  36.3919044   3.5165131 108.0284214  35.9749961   3.8870627
 106.7603016 107.3826408  29.7428107 106.9564438 107.4092770  28.8063002
 107.3959923 107.9794502  30.1377225   8.5200357  85.8115673  35.4283929
   8.9696008  86.0433197  36.2410498   8.9408445  86.3516426  34.7594643
  78.3246469  99.7168350  32.0707035  77.5702858  99.5526695  31.5048218
  79.0192747  99.1660595  31.7096400  60.2972984 101.7601681  19.0224230
  60.1863670 101.7353535  18.0719960  59.6335983 102.3800278  19.3249249
  95.0514221  61.1391497  60.1408958  94.9836636  60.6428432  60.9565639
  95.6232548  61.8760967  60.3557301  87.0335579  94.8514366  39.5947337
  87.9252434  95.1459312  39.7801948  86.4739227  95.5326366  39.9675679
  61.0014391 108.4318161  49.7152090  60.5268717 107.6077366  49.8243332
  60.6515503 109.0021515  50.3996992   8.2406139   0.9892951  31.4463449
   8.8358462   0.2404625  31.4119911   7.4835950   0.6711480  31.9382143
  56.9024897  67.6275778  24.2394781  56.2869310  67.4410295  24.9483657
  57.3567295  68.4221983  24.5196152 114.3900585  90.5093384  33.6336350
 115.1819134  90.4274273  33.1021333 114.4573212  91.3773632  34.0314150
  33.4399962  15.2855039  12.2290182  34.3268347  15.6387115  12.1583343
  33.0753350  15.7076788  13.0068505  54.3255472   0.6187189  20.0084257
  54.3570614  -0.3102797  19.7799516  53.8532305   0.6448250  20.8405685
  89.1370678  86.6074371  31.7384696  89.7952271  86.1733627  32.2812724
  88.3567715  86.0596752  31.8241882  66.6419411  26.2925839  93.8948536
  67.2628832  25.5915427  94.0928555  66.1694384  26.4328575  94.7153950
  66.2342930  25.7047629  23.5991836  66.9043636  25.0812292  23.3191109
  65.5197001  25.1579070  23.9255905   2.6489779  96.5448666  24.5265484
   1.8339604  96.9759178  24.7837973   2.4780609  96.2166786  23.6437631
 111.1123848  54.0904999  13.0311036 111.1193275  53.2553911  12.5633657
 110.5597878  53.9317989  13.7964034 113.1067085  94.5913315  42.7107525
 112.8722286  94.7552681  43.6241961 112.2671890  94.5346165  42.2544384
   2.4821255   5.1735801  27.9110503   1.8594924   5.7925528  27.5296950
   2.3939513   5.2968013  28.8561821  76.5613794  91.4354229  50.5130148
  77.0660162  90.7348919  50.0996828  76.0545397  90.9950542  51.1952305
   3.4831294 104.3375492  59.1716290   4.4392774 104.3026447  59.1998196
   3.2205617 104.4509411  60.0851059  92.0117664 108.6627769  66.4321804
  91.5310001 108.0993938  65.8258057  91.9741440 108.2005596  67.2695398
  91.5012360  86.9394016  35.5209708  90.6147766  86.5916061  35.6182575
  91.4643860  87.8058434  35.9261227 108.7181664  64.8451424  30.1970553
 108.7419891  64.5488548  29.2871785 107.8544426  64.5796490  30.5128646
  92.7854061  60.0234747  24.2220402  93.2124996  59.5486593  24.9350476
  92.0410824  60.4595900  24.6367717  64.9368477   0.1657395  39.4801497
  65.3620195  -0.6645279  39.2654014  65.0500727   0.7027021  38.6958790
  84.3997002  70.6769753  11.1723292  83.9674664  71.2493420  11.8062091
  83.7855816  69.9539089  11.0447919 113.6918640  92.8861046  24.3491077
 113.4174728  92.4054337  25.1300669 113.4132290  93.7871933  24.5122552
  77.6945877  98.6378670  42.7030754  77.9254866  99.3887234  42.1561575
  78.3186817  98.6687756  43.4281826 114.4083786  53.8675165  16.6577065
 114.6273899  54.7207403  17.0322430 113.4539795  53.8195658  16.7129052
  84.0420914  23.0059481  22.5067258  84.4828510  22.1589422  22.4393368
  83.9361095  23.1466150  23.4475851  53.3066177   5.5389220  83.7309361
  52.4002981   5.8339965  83.8189793  53.6910152   6.1345553  83.0877495
   3.6776805  82.9415226  51.9090748   4.1384715  83.0437088  51.0763311
   3.5527295  83.8363838  52.2250509 114.0810204  62.9656029  16.5005016
 114.0560722  62.3361492  17.2211933 113.7270546  63.7723637  16.8747652
  91.7311478  91.5997314  26.7756557  90.8201504  91.5007114  27.0522833
  91.7025375  91.5156364  25.8225846 100.9593582 100.2364922  14.6442723
 101.3052654  99.4070244  14.9737513 100.0131226 100.0997448  14.5975924
  88.4740925  76.9921398  24.6685791  89.3832779  76.8645000  24.9393582
  88.0913258  76.1151600  24.6937203  97.3642159  73.0610895   1.0646620
  97.5573063  73.6719942   0.3535029  97.9913807  73.2871675   1.7515245
  57.8905725   2.7017543  55.3578997  57.1088743   2.7301601  54.8061991
  57.8001928   1.8917152  55.8597994 105.8804798  88.9581203  80.1969051
 106.1069489  89.8525333  80.4518127 106.5477180  88.7158489  79.5547771
  79.3400192  98.1043911  49.0544653  79.7251511  97.4185753  49.5999527
  78.4240675  97.8449535  48.9546824   6.1589390  91.5242004  29.2193365
   6.5708083  92.3786640  29.3477607   6.8417197  90.8927345  29.4458199
  55.7094622 107.1119022  18.4024465  55.2792692 106.4020443  18.8791752
  56.5797758 107.1719837  18.7963748  80.0865173 104.6812344  64.7764730
  80.7783222 104.2127800  64.3093634  80.4795456 104.9116039  65.6183147
   7.2501707  96.0028934  30.5244493   6.4122379  96.4628220  30.4737830
   7.1439439  95.2472305  29.9465895  12.4683380  18.6948013  50.0585175
  12.6851916  17.9661500  50.6401300  11.6091287  18.9924145  50.3575468
   0.2520280  37.6380348  60.7924557   0.4416136  37.6197720  61.7305183
   0.9603404  37.1314883  60.3950453  21.8796659   5.6869501  16.5630257
  22.1278834   6.3157773  15.8853841  22.5389028   4.9956930  16.5013587
  73.2416821  79.1622353  31.6052151  73.9865494  78.5686350  31.7002940
  72.4737644  78.5931635  31.6570592 107.6437092 108.2899570  41.4415264
 108.0739212 108.2211399  42.2938299 108.1353664 107.6941490  40.8762646
 102.3058987  38.5948467  35.2558255 102.7810192  39.0188527  34.5411777
 102.9750347  38.0982113  35.7268238  79.1346836  36.9133902  33.0194545
  79.8689890  37.5266480  33.0502677  78.8705349  36.8099046  33.9336443
  87.0410252  94.7083187  42.8242493  87.4182415  95.3660679  42.2400331
  87.1249485  93.8847828  42.3436642 113.9479351  24.3853235  16.4942312
 113.7841511  24.5779943  17.4174237 114.7161293  23.8143158  16.5013516
  95.3853130 107.3587132  43.6750555  95.5970097 107.1107006  42.7751112
  94.4301891 107.4202919  43.6881542  35.8520627 102.4098778  59.7405052
  36.1482382 101.5619755  59.4094753  36.4907622 102.6399136  60.4153252
   4.2057559  81.5689754  24.7252417   4.8008630  82.0133972  24.1214490
   4.6980274  81.5059376  25.5437326  72.5229692  79.9129725  64.6066761
  73.1052351  79.1659117  64.4684696  72.9079962  80.3831291  65.3462267
  78.5065651  86.2668037  40.0982141  78.5092402  86.1758804  39.1453457
  79.3013859  86.7630768  40.2936888  27.6003027  91.8831921  26.9232273
  27.6831627  92.8339577  26.8495941  26.6670227  91.7352295  27.0759487
 102.1437263  85.4132366   6.5629649 102.1215439  84.9477482   5.7268667
 101.5116882  86.1243820   6.4580125  16.1555839  94.9593925  35.9584284
  15.4770708  94.9253464  36.6327357  16.8362558  94.3646145  36.2733197
  99.9806786 108.9416885  49.6489048 100.1760006 108.0202484  49.8192930
 100.1624775 109.3825054  50.4788780   2.1144396 107.6310062  22.7745605
   1.4570156 107.6307201  22.0788407   2.8821117 107.2183037  22.3788428
  85.1118565  90.8785820  88.8585567  85.0871372  89.9882221  88.5079956
  85.9453011  90.9286404  89.3266296   4.4865450  99.5321274  19.8789275
   4.9521482 100.3622913  19.7775483   4.6448985  99.0668392  19.0575457
  95.4163647 103.1311512  34.6726799  96.2900162 103.3437634  35.0009346
  94.9854279 102.6917553  35.4057980  14.8346496   4.2542064  36.2971115
  15.3263080   4.8990133  35.7884574  15.3844321   4.0825483  37.0616388
  99.0509701  79.4360590  53.6274052  98.4993458  80.0423717  54.1216993
  98.4519100  79.0161133  53.0101585 114.9137878  32.4079776  42.2643661
 115.3718376  33.1602168  42.6392841 115.3357697  32.2688174  41.4165449
   3.8176879  70.1289225  59.3917799   3.5861298  70.2557135  60.3118563
   4.3928891  69.3638229  59.3928003  16.2977302  26.6570330  40.5011082
  15.7826233  26.0383725  39.9832726  17.2066092  26.3979864  40.3492355
  38.4769201  10.4426634  27.0426202  39.0234280  11.1855602  26.7863679
  38.1915545  10.0581026  26.2138200  47.3546362  16.6201091  33.3186722
  47.5897408  16.6319370  32.3908687  46.5493584  16.1039400  33.3551383
  21.5436292  14.7481453  56.4044189  21.9238329  15.0421751  57.2322035
  21.2749910  15.5546391  55.9643793  92.4586678 103.2543945  46.6645718
  92.0371532 102.3950100  46.6654491  91.9111156 103.7891483  46.0897112
  26.9078159  75.8627701  39.0503860  27.2569776  75.3940773  39.8084402
  27.4334812  75.5516052  38.3134437  34.4522953  21.1451960  49.3960047
  33.5808659  21.0528207  49.0108919  34.6347785  20.2892613  49.7837019
 101.2880898  94.1358757  10.9156823 101.8961525  94.4634342  10.2529645
 101.4734459  93.1982708  10.9682846  81.9753838  24.3316960  20.8932161
  82.3408794  23.7452269  21.5555596  81.4971256  23.7534404  20.2989793
  27.9732633   4.4619602  26.5832496  27.8251576   3.6927158  26.0331941
  27.0987105   4.8207802  26.7337155 113.1262589 104.2029667   8.1376910
 112.6153469 103.9159298   8.8945270 112.6958370 105.0078869   7.8494805
  31.1908698   5.0904977  34.4117665  31.9053817   5.4740417  33.9032412
  30.7614112   4.4878414  33.8046384   4.4986296   2.7048254  40.0990772
   4.4319543   2.5897110  39.1511655   4.3179572   3.6340752  40.2407980
  74.8533726  74.7821856  86.0977840  75.4562998  74.0712643  85.8802891
  75.3752899  75.3854561  86.6268349  14.9461544 105.9968185  23.2618546
  14.1071987 106.1524963  22.8280950  14.8875690 106.4893723  24.0805006
   0.9326862 108.5035515  33.7635326   1.8840975 108.4080887  33.8075328
   0.6311740 107.7025604  33.3348775  40.9930563  43.3134556  33.6359978
  41.1179495  42.7776814  32.8526855  40.1559544  43.7551308  33.4931135
   0.5121482 102.1085262   3.4029850   0.6746461 101.8900776   2.4853224
  -0.4267560 101.9643402   3.5208821 111.6342545  89.7828960  66.5946245
 110.8316708  89.9939632  67.0716429 112.2429085  89.4841099  67.2702694
  89.7085190  98.1020164  70.0056076  90.6080627  98.3576775  69.8014498
  89.7908497  97.2380733  70.4094076  11.6511321  94.1169453  54.7418451
  12.1502483  94.2375088  55.5496693  12.2889996  93.7760925  54.1148090
  95.2535439  83.5252571  60.6959772  95.4768753  82.7385807  61.1934566
  94.2964935  83.5400677  60.6881809  11.1591005  83.7948990  23.3178687
  10.8052576  83.5975838  22.4506354  10.8358383  84.6742439  23.5140538
   6.0696375  87.4304485  29.8052144   6.1449659  86.5544415  30.1835942
   5.5400431  87.3064041  29.0175748  69.4700384  98.9054012  52.4526358
  70.3637075  98.6992455  52.1786118  68.9781141  98.1004333  52.2905779
  14.4564199  31.9506168  19.3273711  15.1011121  32.3580623  19.9058115
  14.9542749  31.7089820  18.5463548  29.4476321  -0.1295379  34.8935676
  30.1740459   0.4101559  35.2054882  28.9095596  -0.2793792  35.6709075
  22.0036101  85.1345348  83.7268829  21.5409207  84.5193100  83.1579781
  21.4763308  85.1655579  84.5251656  13.1445241 107.3249245  44.7419691
  13.9821529 107.7880859  44.7512722  12.5000823 107.9905701  44.9824762
  50.0118828   7.3980707  16.3342226  49.1704798   7.8022099  16.5462160
  50.3423357   7.0783955  17.1737695  31.3539720  15.4993594  40.8489704
  30.7179713  15.6889570  41.5387440  31.9923949  16.2099445  40.9099340
  81.4769268 108.4983635  30.6349802  82.0442581 107.8312778  31.0214448
  81.9892406 108.8582993  29.9109554 104.9821281  81.3190460  43.3027887
 105.7762337  81.8489552  43.3722448 105.0453758  80.6966591  44.0272665
  85.5146980  77.9168177  20.2299380  86.0612774  78.6626196  19.9824202
  85.7279110  77.7583551  21.1495352  49.5148945  24.8110914  39.4485736
  49.0143824  25.2816725  38.7820363  48.9000082  24.1668391  39.7994113
  15.0869381   2.9591018  60.6086397  15.6209230   3.7489694  60.5237865
  15.6612527   2.2496301  60.3204632  36.9227171  22.4176049  26.1988497
  36.0223913  22.4528790  26.5219617  37.0777988  23.2857394  25.8266616
  17.2809398  98.5466194  19.5494425  17.7946794  97.9186726  20.0573635
  17.6805496  99.3947411  19.7424209  85.1893520  82.4028111  21.2216425
  85.2595520  82.3860645  20.2671671  84.3099117  82.0712471  21.4029741
  60.7695436  92.3870564  24.7730517  61.3189077  93.0246067  25.2290750
  61.2852907  91.5806866  24.7763515  27.1205306   3.2957122  15.0132155
  26.5737677   2.5106788  15.0448799  26.5942216   3.9349490  14.5330000
  22.4086022  51.2182426  84.3570709  23.0306935  51.8538904  84.7108841
  22.2279668  50.6274080  85.0881767  46.6869354   2.9052624   5.8467561
  46.5884113   1.9606826   5.9663153  47.1359253   2.9947436   5.0061417
  65.3438520  89.1571236  15.2842140  66.1554861  89.3917370  14.8342860
  65.6020880  88.4746552  15.9037173 102.3244286  95.8405685   2.9264763
 103.0682468  95.4295063   2.4860378 101.5603447  95.3651047   2.6003665
 112.0090485 108.9659405  61.9420719 111.4038181 108.2357025  62.0712137
 112.8526211 108.5494900  61.7654562  79.6158075  99.2077160  27.5927114
  79.5385695  98.4926605  26.9610739  79.4730425  98.7924480  28.4432411
  82.0838451 102.6384544  11.0700941  82.1014690 103.4259701  10.5262637
  82.8658772 102.7079773  11.6176617  80.5630398  94.3096161  28.7130761
  80.9558964  93.5415459  28.2983875  81.2950420  94.7486019  29.1463113
 108.0202007  61.6134977  62.2783899 107.7656746  60.7010412  62.4157524
 107.7211761  61.8146706  61.3916254  87.4200439  92.6461029  41.0289812
  86.8209076  91.9298935  40.8184767  87.5215530  93.1233311  40.2054644
  16.6483438  82.3206139  57.3708582  16.9547701  82.7383518  56.5659809
  17.1937847  81.5388107  57.4575901 115.1559258   4.0876013  43.4145069
 114.7065067   4.9094036  43.6117363 115.9347725   4.1010502  43.9707851
  51.8609953  21.9156790  25.8344579  51.6383648  22.8189445  25.6091213
  52.7393627  21.7888856  25.4758072  14.4069040  80.0403881  43.1418133
  13.7334609  79.6705103  43.7126923  14.0518284  79.9430084  42.2582579
 113.9881706 106.3109970  45.3337193 114.2578411 106.8424511  44.5846748
 114.5114422 106.6425800  46.0634279  88.1645203  45.3667593  93.1005764
  87.4189949  44.7788286  92.9790401  88.9225101  44.7846127  93.1534386
  43.1217813 101.5620232  44.8027134  43.1067944 102.5138092  44.7021198
  42.3081207 101.2652588  44.3951321  87.9423141 108.8949966  31.9696498
  87.9183197 107.9411697  32.0462751  88.3545399 109.1902065  32.7815294
  20.3017378  34.3600202  45.1192379  19.9861360  33.6028481  44.6259689
  21.2267971  34.1730833  45.2790928  18.6532688  24.9027920  24.0227342
  18.3902168  24.0405202  24.3444848  19.5587850  24.7852755  23.7355733
  65.2693319  97.5518036  35.4483247  64.6672106  96.8883324  35.7852125
  64.8906231  98.3843613  35.7305598   9.8784626  68.9263678  43.4113932
   9.9761117  68.2582951  44.0898991   8.9902204  68.8006496  43.0775499
  16.2944043  90.3696442  41.9502687  16.9785047  90.3968430  41.2813187
  16.7056859  90.7450008  42.7288485   6.4096212   2.4485382  35.4119492
   6.1405849   2.9397857  34.6357226   7.2787029   2.1122369  35.1932478
  12.9589856   4.6930787  54.6178675  13.8804078   4.8133469  54.8475361
  12.9745686   4.4179618  53.7011909  -0.0088174  65.1031494  40.4297638
   0.6569566  64.4236708  40.5360031  -0.6068176  64.7514963  39.7702408
   1.3616934  71.7682457  14.5016873   0.4109168  71.8776369  14.5187116
   1.6879183  72.4096251  15.1329100 107.6595402  80.5200005  40.0414515
 107.7074242  79.6068001  40.3242922 106.7702770  80.7939529  40.2659178
  31.0556579  22.6935315  33.2999349  31.4830780  22.7226734  34.1559100
  31.6181612  23.2214403  32.7332497  99.8801899   3.6519498  19.1701698
  99.4244385   4.3355179  18.6789870 100.8043098   3.7779942  18.9548862
   4.6208394  46.0933781  90.0424671   4.9073234  46.2516689  90.9419727
   5.1208943  46.7189693  89.5182419   7.1028841  92.8746128  65.9245253
   7.7375913  92.5188828  65.3025675   7.3521191  93.7936592  66.0218239
  90.2234077  83.2727146  43.6270380  91.0687637  83.0395222  43.2433224
  89.7309399  83.6607552  42.9037619   7.4805021   1.5589327  10.6764281
   7.1522409   2.3062655  10.1764584   7.3260742   0.8042277  10.1082695
  40.6566477  50.0094271  33.7385654  39.7251558  50.0751019  33.9489031
  40.7532406  50.5009413  32.9228950  86.2855148  47.2205591  82.6159191
  86.5905666  48.0561304  82.2623634  87.0803738  46.6954422  82.7091408
  12.3669374  98.5788631  37.8230166  11.4654028  98.2688427  37.9087782
  12.7404320  98.0394459  37.1260524  84.5877552 108.2490826  33.0185127
  83.6618900 108.0063152  33.0102801  84.7990227 108.3562660  33.9459348
  47.4380064  22.2919035  43.3981895  46.7098284  22.6676130  42.9033804
  47.1299505  22.2780585  44.3043566  62.0997238  98.6867714  61.8566751
  62.7113247  98.0661678  62.2529507  61.3125181  98.1702614  61.6841841
 104.8980331  17.0161664  25.2062297 104.7321415  17.5680423  24.4419336
 104.0351963  16.6833222  25.4531336  48.9039660   1.6001159  24.9379945
  49.1119432   1.7501040  25.8602095  48.6066723   2.4518219  24.6179199
  70.7867527 102.3488617  38.3581686  70.0746250 101.7139530  38.2807732
  71.4320183 102.0651627  37.7105808  28.2350898   4.7532338   5.3958476
  27.6055861   5.4730254   5.3527725  28.5690618   4.6733335   4.5023644
  95.7965755  72.6496315  87.3990822  96.1698055  72.0105553  86.7920303
  96.4362907  73.3613443  87.4207973  25.0204182  95.3826332  18.3673179
  25.6928444  94.9520874  17.8393948  24.2603445  94.8041248  18.3052719
  42.4538898  43.5864544  31.1043024  42.8598881  42.8776264  31.6032553
  42.5964880  44.3677092  31.6386652  33.5154724  29.5154595  28.9798117
  32.7407002  30.0677943  28.8754702  34.1033220  29.7921872  28.2769012
  57.3379898  44.0392828   1.9912608  56.5842915  44.6099186   2.1414228
  57.1779585  43.6526966   1.1303470  69.9758244  37.3249102  15.6051064
  69.4474602  36.5274239  15.6379020  69.3435097  38.0245876  15.4412282
  34.0656781  98.4035492  27.3814845  33.6739254  99.2470646  27.1550941
  33.9606524  97.8713226  26.5928602  63.5072184   5.7678998  24.4573474
  64.4536638   5.6599271  24.5512366  63.3955050   6.6805375  24.1911817
  52.4472475   1.7060892  47.5191212  52.8441286   1.7236407  48.3899879
  52.1525574   0.8021385  47.4083853  53.2302952  21.8207693   6.9143248
  53.5635662  21.3408446   7.6725030  52.3849344  22.1656370   7.2018373
  74.5181322  31.5104437  91.6153240  73.6508608  31.8918681  91.7516804
  74.6382618  31.5219903  90.6657600 113.1851864 102.3603630  47.8579426
 112.3399830 102.3540306  48.3071899 113.0129719 101.9355869  47.0176220
  49.8070955  15.3167593  49.8623705  49.5146418  15.3345859  48.9511204
  50.7595873  15.3956747  49.8098135  12.6933157 105.7430077  36.5996480
  12.2768390 106.0468769  37.4061441  13.5047996 106.2476444  36.5442896
 109.6714687  40.8876944  89.0007687 109.3687916  40.0004196  88.8074684
 108.9794731  41.2636042  89.5448875  18.6939824  80.0728989   5.7677096
  18.6818802  81.0277462   5.8335757  18.5920405  79.8960114   4.8325345
  54.6604776  25.9024501   8.2016575  54.2691231  26.1892962   7.3765546
  55.4261398  26.4661407   8.3123201  52.5313044  22.9466629  37.3091912
  52.5979233  23.2734895  38.2063985  53.4188557  22.6618981  37.0914960
  37.9244900 100.3030682  19.5212758  38.2334352 100.4137707  18.6220932
  37.0004511 100.5507755  19.4892538   5.9380460  15.9477293  27.6298475
   5.9479916  14.9912035  27.5953293   5.0311863  16.1703885  27.8402305
   7.1495503  96.8327522  47.7836895   7.9368758  96.3234711  47.9759979
   6.4257604  96.2367725  47.9764986 102.7987576  47.9244852  82.1779060
 102.1656132  48.2673168  82.8086376 102.5961876  48.3824539  81.3621521
  38.9458466  34.4485402   8.8814068  39.3900251  33.6059594   8.9762425
  38.1796885  34.3808746   9.4511908  69.8403549   6.0927588   1.1462644
  70.7346773   6.0805017   1.4872506  69.6739435   7.0133096   0.9434723
 111.0997200  76.2010193  25.7422614 111.5473557  75.8172846  24.9882030
 111.7989063  76.3767052  26.3719511  63.5104799   8.4603488  24.3141246
  64.1993093   8.7308866  24.9212122  63.8719130   8.6402214  23.4462285
  31.1298895  18.7910616  20.8792734  30.3439188  18.7187421  20.3377461
  31.8452001  18.5298908  20.2993155  14.8006678  14.6680832  24.7289729
  14.9361384  14.2305207  23.8884854  14.4059956  13.9979553  25.2870011
  51.9891977   8.1254560  30.6448317  51.8273020   7.9001409  29.7287226
  52.8253412   7.7072138  30.8501887  67.3959017  17.8303182  40.0749922
  68.2803679  18.0674660  40.3537607  66.8532848  18.5717547  40.3434515
  58.5694790  19.9389672  51.7083359  58.7591600  19.7644269  52.6301765
  58.6430025  20.8896518  51.6245079  91.4319420   8.4833193  10.8269453
  90.5301380   8.4833193  11.1478555  91.9209576   8.9749843  11.4867604
  17.2817516 103.1215668   3.4043089  17.8694689 102.7240849   2.7617878
  16.5095413 102.5559521   3.4046790  39.6081066  59.3250751  19.6325660
  40.3397417  58.7478876  19.8511910  38.8440752  58.9023495  20.0247312
  65.1068878  52.2734451  18.3262455  65.1931524  52.8342438  19.0971518
  64.1761065  52.3105526  18.1060147  83.4615040  49.3638992  35.7469440
  82.7838230  49.9655676  35.4387832  83.4468365  48.6435652  35.1167583
  54.6581078  11.0495472  17.4160802  55.3076458  11.7503572  17.4726093
  54.0702629  11.3240170  16.7122746  54.6239901  17.5102627  10.4061496
  54.1742802  18.1904721  10.9074545  53.9470387  16.8576610  10.2270436
 114.1492939  49.0112782  90.5503845 114.5657921  48.1628036  90.3992462
 113.3007622  48.7959909  90.9375477 100.1811314  69.1105795  89.7790432
  99.3462276  68.6787033  89.5983601 100.2385235  69.8050451  89.1228008
  55.4278564   3.7135774   5.6115192  55.3846836   4.2841750   6.3788432
  54.5192719   3.4586006   5.4512239   7.5414109  80.1815891  34.1646814
   8.4476483  80.3430653  34.4271541   7.4060571  80.7517242  33.4078050
  70.1937771  91.8479538  84.9910259  70.0832844  90.9960365  84.5688152
  69.9249411  92.4815941  84.3258381  50.3580046   9.1157073  13.5758924
  50.3452682   9.3612623  14.5009720  51.0798359   8.4912187  13.5037661
  31.6915631 106.0072041   8.5495311  30.9341598 105.4235363   8.5058981
  32.0875859 105.8224297   9.4011503  83.2181358  14.0764427  38.5381651
  83.0876732  14.2553651  39.4693995  82.3971558  14.3445504  38.1254482
  40.6009007 108.6888790  12.7869701  40.7245016 108.1318665  13.5555398
  40.5851746 108.0791092  12.0492899 104.7948360  77.7343798  94.2383385
 104.0567207  78.2401657  94.5783520 104.7827816  76.9226265  94.7454357
  35.4220486   5.2042001  54.6021271  35.0047898   4.3455693  54.5322704
  34.7086954   5.7990474  54.8334599  68.1362247  70.3396130  78.9103413
  68.4928036  70.8468485  79.6395826  67.2215462  70.6154966  78.8513184
 104.8551464   1.8172784  31.4901853 104.8407269   2.6662603  31.9320607
 105.5470181   1.9005208  30.8339787  82.5101280   7.5650394   9.4448233
  81.9090557   8.2600135   9.1765732  83.3811569   7.9197276   9.2666739
  42.8029919  31.0969520  22.1661448  41.8552113  31.2115502  22.2355032
  43.0837679  31.7842102  21.5619302  41.0492849  22.7885914  19.7741139
  41.6079569  23.4150052  20.2342510  40.1578045  23.0931306  19.9436665
  65.5624914  12.1489584   8.3867049  65.6976461  12.5127780   9.2616904
  66.2206984  11.4581990   8.3102375   5.0256562 103.9462948  44.5856619
   4.2388338 103.9223099  44.0410852   5.7495093 103.8680840  43.9642525
  41.0614252  10.1693451   8.6692137  40.2580261  10.0957704   9.1843528
  40.8213377   9.8408073   7.8028113  56.3788509   0.4636532  37.3036051
  56.6255426  -0.3721883  36.9076967  55.5519056   0.2823043  37.7502728
 110.4414272 101.5719891   8.0945265 109.9184227 100.7783222   8.2075816
 109.8925209 102.1465492   7.5608474  29.7729254   7.5271773  61.6192865
  30.2421808   6.7162097  61.4234209  30.4521346   8.1296766  61.9224358
  22.1992087  92.0095158  28.2848930  21.7108750  91.2018776  28.4445167
  21.5259051  92.6632118  28.0962706  53.1050014  46.0973549  18.5091412
  54.0511084  45.9697819  18.5787356  52.9887295  47.0470715  18.5364711
  91.7548943  49.9184513  18.8043153  91.1124420  50.5307531  18.4457445
  91.4592361  49.0586185  18.5051441  35.9257650  83.7205410   5.4002583
  35.0440955  83.8739681   5.7398933  35.8147526  83.6920166   4.4499457
 101.6280556  27.1579218  23.0407214 100.9315395  27.2183180  23.6945152
 102.4349022  27.2959423  23.5368848  53.0524492   1.5324590   6.9391775
  53.3163691   1.9976626   7.7330053  53.4222412   0.6555054   7.0413476
  52.7969074   8.1186175  -0.0024983  52.5073481   8.3526343   0.8793314
  52.2412300   7.3791331  -0.2487037  79.6014881  89.7686481  78.0316591
  80.3403664  90.3376579  78.2473564  78.8337231  90.2402210  78.3547592
  22.6945710  82.6364136  38.2973647  21.8749380  82.2230339  38.0261564
  23.3749104  82.1417713  37.8405261  10.7064724 103.5481834  17.9961562
  10.2231836 104.2841721  17.6206672  11.6224122 103.7315273  17.7871752
  95.6300926  85.3929615  91.8807602  95.8332157  86.1412048  91.3194180
  96.2121868  85.4935741  92.6339340  41.9665909  57.9734373  16.9562256
  42.7488756  58.3515358  17.3578560  41.3250351  58.6837435  16.9663143
  74.7227383  25.6006765  42.5635576  73.8334322  25.2620006  42.6668215
  74.8462915  26.1819768  43.3139277  36.8675613   4.7494158  40.2136993
  36.4684224   4.2120570  39.5294738  37.5452137   5.2505189  39.7599196
  66.4717817  42.2235727  29.5140910  66.2152719  43.1325102  29.6698856
  65.6441832  41.7593098  29.3885350  63.2315207   0.1927061   4.3624750
  62.9411888   0.3383599   5.2628773  63.5382271   1.0502964   4.0680224
  32.4720550  69.4406700  14.8567522  32.2642303  69.5557928  13.9295053
  32.9393864  70.2402782  15.0985336   7.7773857 104.4583130  18.3540130
   7.4434114 104.2617512  17.4787664   8.1295049 103.6256695  18.6685824
 109.7598457  82.1442223  31.2836003 108.8156509  82.1494198  31.4407563
 109.9667263  83.0459309  31.0379338  76.0175657  17.7888942  22.3424745
  75.3027344  17.3402047  22.7940512  75.6810713  18.6696315  22.1772313
  71.1243057  12.7191770   8.6479867  70.2702904  13.1346834   8.5286367
  71.6802073  13.4122825   9.0040880 111.8136597 103.8322926  57.4191713
 112.6436329 103.5083199  57.7690601 112.0503616 104.2544270  56.5933323
  31.4162731  29.9569535  75.9644651  32.0500469  29.2402887  75.9336329
  31.5673947  30.4453158  75.1552105  91.3542938  22.0270491  90.1123047
  91.9397068  21.7633986  90.8222389  90.7797432  22.6831698  90.5068111
  46.5792322  81.6794109   7.3330319  47.2535086  81.2349033   6.8192261
  46.9674301  81.7792988   8.2022589  35.1859164  31.5788317  16.3138020
  35.3879833  31.4580703  17.2416043  34.4430852  30.9970260  16.1527562
  65.6766748  40.0011396  48.5409021  64.7461081  39.8435688  48.3813715
  66.1248159  39.4974303  47.8614330  54.8067284  95.8001232  18.7500989
  55.4008055  95.0544643  18.6646330  54.4792938  95.9484005  17.8629518
  63.0344534  28.0671263  47.4102020  63.6449480  28.7101102  47.7709007
  62.7542973  27.5521111  48.1668425 115.7164097  98.9195919   6.9222164
 115.1940250  99.7204876   6.9660115 115.3341389  98.4235859   6.1982858
   1.6671537  94.4939041  10.6408179   1.5822870  95.2360249  11.2393904
   0.9829019  94.6345615   9.9864107  75.3492832  10.3822112  29.3309927
  75.8854961  10.4064178  30.1235318  75.3797245   9.4679838  29.0490460
   5.6081718  81.7715454   8.6814398   5.3882366  81.1918449   9.4106853
   5.0450724  81.4791107   7.9647595  46.5091658  21.2293506   8.3057529
  46.9693851  21.8093419   7.6990896  46.7239380  20.3470349   8.0030602
  46.2142467 107.3647213  22.0181179  45.5246019 106.7656040  22.3039198
  47.0277786 106.9426918  22.2943330  51.6242552  95.8023167  34.3993759
  51.9190025  96.5212345  33.8403511  52.3887444  95.2318192  34.4788790
  37.7468753  10.8174992  74.5608521  37.8150320  10.0041425  75.0608873
  38.6147499  10.9345186  74.1744137  50.6492138  38.4931135  17.0562768
  51.5418291  38.8387322  17.0530105  50.2632713  38.8341594  17.8631032
  44.9570751  24.7725272  33.7140656  45.6647635  24.2135835  34.0349865
  45.1236153  24.8544025  32.7750278  21.2405705   6.9619972  32.0077229
  21.4121890   6.0250777  31.9130564  21.2768245   7.3036051  31.1142898
  49.9213076  27.8450680   2.2891773  49.6481895  28.1976819   1.4422402
  50.4555082  28.5385823   2.6763451   1.3114136  95.2014637  53.8092804
   0.6830161  95.7842731  53.3830452   1.1124315  95.2761078  54.7425890
  49.1241503  24.6250010  29.6027112  49.5033073  23.8598061  30.0350857
  49.8610449  25.0326228  29.1476679  69.3977451  79.8753166   9.6851128
  69.3529558  80.1253605  10.6079900  70.2383709  80.2201939   9.3840486
  89.1922760  74.6447802  79.9391317  89.6658230  74.6646357  80.7707500
  88.3799553  74.1787672  80.1371384  77.6364326  36.9843912  35.4667211
  77.7872324  37.3247671  36.3485551  76.8623972  37.4549866  35.1574612
  11.1819148 100.0377560  26.1315966  10.5481517 100.4483604  26.7197990
  10.7313883  99.2618847  25.7980227  74.2633486   4.7703877   5.7127213
  74.8220730   5.5438524   5.7889634  73.4216070   5.0462675   6.0754764
  74.4479752  29.8021173   3.6328644  73.6134434  30.2137685   3.4085193
  74.2066145  29.0521765   4.1765267  77.8406858  26.5407205  34.5133734
  78.1293917  25.8019876  35.0492430  77.5663137  27.2035384  35.1471114
  38.8790154  96.2873936  37.4328542  39.1093826  97.1887684  37.6580000
  37.9224133  96.2859726  37.3990560  52.0709515   4.3559343  34.3644953
  52.9264736   4.7024855  34.1110873  51.4450026   4.8581359  33.8427544
  42.2007322  16.6636729  65.2232075  42.8485918  16.2496257  65.7933664
  42.5153780  16.4884615  64.3363428 114.8872471 108.6859417  94.4465542
 115.2674770 109.2333698  93.7595558 115.6425571 108.3269501  94.9122429
  79.8705339  22.0855331  16.3501155  80.0404930  21.5538478  15.5725205
  78.9219761  22.2138715  16.3498688  17.8088236  31.8056750   2.2085726
  18.3522773  31.0383129   2.3875852  18.1742632  32.4931479   2.7654096
  51.1007833  70.5597734  30.1152992  51.1280107  71.1016893  29.3267441
  51.5259171  71.0928822  30.7870793  91.4345646   5.7768148  42.6850796
  92.0953083   5.9089321  43.3649254  90.6052589   5.9915829  43.1121302
  53.0090570  29.2290139  11.9629347  52.0944786  28.9840150  12.1034777
  53.1310654  29.1659236  11.0156405   1.9617416  92.2473717  69.9989271
   1.2858360  92.7112007  70.4931307   1.9779682  91.3698101  70.3808546
  98.8290405  25.5418873  39.6214294  98.0080700  25.8418369  39.2312050
  98.5782719  24.7907424  40.1591349  53.1781435  40.4973269  23.7521768
  53.0169582  41.3161755  24.2209363  53.6851788  39.9658227  24.3658972
  50.4519939  48.0935192  12.1339023  50.8832550  47.2564507  12.3058450
  49.5714092  47.8543329  11.8447745  80.3943062  37.2950721   1.7261517
  80.5707455  38.0456328   2.2933906  80.9266186  36.5883851   2.0914897
  98.6793995  80.0810814  17.5601089  99.4005203  80.4685307  18.0561948
  98.9711475  80.1129150  16.6490114  38.2007456  20.7555938  14.9423742
  38.7974739  20.8690476  15.6821549  38.7710381  20.5326605  14.2066443
  58.8314056  23.0807042  24.2879748  57.9230547  23.3284926  24.4603968
  59.2537880  23.1064391  25.1465559  95.7784653  83.8879204  64.3781281
  96.5619946  84.4345188  64.4376278  95.0681496  84.5055962  64.2044830
  43.7689924   5.0094140  57.8770494  43.8533831   4.0567788  57.8370810
  44.6545839   5.3352594  57.7164555  83.3189583  31.0653853  33.8650823
  83.9480591  31.7791939  33.9696932  83.8475704  30.2696061  33.9245987
  82.3438549  72.9255724  90.1926041  81.6737270  73.5090923  90.5484962
  82.1913433  72.9338503  89.2476749  45.6016874  29.6866083   4.2938942
  46.4382601  29.5439625   4.7366428  45.8421469  30.0149012   3.4275022
  88.5978031  24.3116593  47.7637577  88.8634396  23.5206532  47.2947359
  88.2898235  24.9045205  47.0782709  19.3963087  38.0822015  16.6898751
  18.6946440  38.1761527  17.3341358  20.0629282  37.5600338  17.1361852
  88.9258289  41.9251156  15.2702069  88.3938503  42.0519400  16.0557914
  88.3223438  41.5467119  14.6307957  82.3561954  20.5408287  24.7024918
  81.8149471  21.3062382  24.8959517  82.2873497  20.4323649  23.7539530
  67.0707130  38.7341118  27.0055389  67.9666138  38.4395480  26.8417525
  67.1725702  39.5465159  27.5013804  86.0902786  40.7903004  42.1940041
  86.8382072  41.0835171  42.7144384  85.7917213  41.5777063  41.7389297
  16.9585252  68.5982800  91.9516754  16.0468388  68.4669256  91.6912746
  16.9221282  68.7140083  92.9011536  50.9888458   0.6040034  20.6403422
  50.2578926  -0.0127971  20.6016707  51.0178518   0.9960429  19.7675896
   7.9768902  96.3696861  19.4364691   7.7504247  96.1810970  18.5257661
   7.1399379  96.5724850  19.8543394  23.0057073  35.6286192  91.1741257
  22.9169416  36.5800428  91.1180687  22.6427770  35.3052115  90.3495502
  71.0139990  14.1027737  36.9664288  70.5708218  14.6639085  37.6027894
  70.3205824  13.5433054  36.6165757 103.1196213  56.5672493  29.4579673
 102.6045609  57.1334743  30.0327134 103.9809322  56.9832134  29.4211507
  40.7310486  14.2845678   8.3031148  39.8224211  14.0634584   8.5074168
  40.6771946  15.1286614   7.8549671 105.4046631  28.9116645  27.0407486
 106.0338593  29.1872430  26.3741136 105.7628632  28.0932355  27.3844051
  32.7969384  32.9892731  11.4401174  33.3372879  32.2642517  11.7541230
  32.4248958  33.3722758  12.2345519  68.6361551  38.0706716  43.4289312
  68.8096189  37.1514773  43.2258940  68.9610052  38.1840873  44.3221521
  27.3799968 106.4774609  18.6034453  28.2364511 106.7675972  18.9173615
  27.3229313 106.8205929  17.7116835   5.5809981 105.4463196   4.9098638
   6.3113600 104.9234581   4.5790783   5.0400138 104.8226738   5.3942508
  71.3227749   5.5264580  62.4179411  71.3373184   5.4695415  61.4625454
  72.2076797   5.2789652  62.6861191  68.2648134  24.4304371  34.8026586
  67.3081923  24.4090796  34.7771358  68.4820223  24.3284726  35.7292962
  59.0636778  27.7381253  12.8270817  58.8124704  28.0502701  13.6963880
  59.9468565  28.0827045  12.6948404  88.8173389  89.8252487  80.2859020
  88.9660645  89.7080708  79.3476200  87.9953384  90.3128052  80.3390598
  42.4622488  57.6980209  23.6730313  43.0988646  58.3920765  23.5020304
  42.5902414  57.4776220  24.5956779 114.9053383 104.7576714  51.7160273
 114.8748970 104.7905350  50.7598782 114.0302849 105.0293446  51.9929934
  89.4229984   4.3564123  36.6430330  89.0610313   3.5174739  36.3577342
  88.6594868   4.8683935  36.9097877  36.2285733  62.6789999   2.5375298
  35.7770300  63.4738970   2.8212130  36.4119601  62.8259087   1.6096187
  82.5327396  76.6218662  92.5307655  81.7385674  77.0426989  92.8600407
  83.2373142  77.2283411  92.7587605  84.5844650  78.3678150  93.0821037
  84.4112110  78.9625788  93.8118172  85.5297947  78.4271479  92.9440117
  64.5951843  12.3401606  25.0752091  65.2545834  12.5294232  25.7427430
  65.1012754  12.0785534  24.3060112 107.2180748  93.5513496  24.7487259
 106.7377281  94.2352009  24.2819977 106.6102028  92.8127480  24.7833586
  57.5008726  40.6823587  27.4065185  56.9876385  41.4594221  27.1851540
  57.9702711  40.9247446  28.2047319  43.3113527  13.9797401  48.1817484
  42.6660538  14.5989907  47.8406477  42.8194523  13.4357107  48.7968063
  48.8356972   6.8940836  13.1068218  48.1175995   6.8040115  13.7332809
  49.0629816   7.8234816  13.1350172 101.7142963   8.7711543  15.6723464
 102.4994469   8.8359958  16.2160063 101.8528652   7.9848897  15.1443124
  79.6090126   3.4997299  29.1264009  80.0009632   4.3421140  29.3566012
  79.5990276   3.0078384  29.9474812  88.2071209  13.4121275  43.0454922
  88.7750053  14.1807210  43.1002474  87.3366833  13.7694919  42.8697872
  63.6899662   9.2678130  13.9915419  63.5142040   8.4535193  13.5200918
  63.1419325   9.9202007  13.5553300  78.2723475  16.3429856  21.3495874
  78.0487156  16.0476112  20.4669929  77.6058865  16.9972849  21.5592408
  61.4684486  96.2376022  10.9441924  61.0059834  96.7220974  11.6280186
  60.7739782  95.8992958  10.3789544  92.6297951   1.5481097  16.1191535
  92.8449345   0.6377279  15.9162915  91.8501759   1.4925711  16.6717291
  43.0248737  30.2879500  14.8148620  43.4619713  29.7855139  14.1273046
  43.6031580  30.2091122  15.5735469  76.4546585  25.3837442   8.7762600
  75.9744406  24.6238136   8.4474295  75.8843374  26.1284184   8.5854030
  98.3301830  98.4782028  88.7299824  97.7715302  99.0818787  89.2195892
  97.7714157  97.7200890  88.5588932  26.1233377  46.2741232  33.4002924
  26.7713118  46.5851307  32.7681231  26.2878060  46.7937517  34.1871643
  95.7789993  62.2243309  19.2762971  95.9015465  62.7612305  20.0592113
  95.2028751  61.5146542  19.5603192 110.3877640  56.6484737  86.6141033
 109.7627258  55.9538460  86.8216133 111.2460041  56.2391806  86.7242622
  38.7018228  18.8116217  47.3036909  39.5942712  18.9304829  47.6287127
  38.2872200  18.2367194  47.9469824  30.4518938  39.3939424  11.9160235
  29.6899557  38.8684320  11.6720545  30.3617668  40.1981926  11.4048553
 109.3201542  75.0216103  72.0894909 108.5378361  75.4200172  71.7080641
 109.2762852  75.2491760  73.0182123  81.5009880  16.4022291  43.2855749
  81.1336708  15.5615640  43.0124569  82.4263000  16.3482964  43.0465508
  56.3296080  73.5067892  15.7304561  56.0738611  74.3962860  15.4862857
  56.8505335  73.6171675  16.5258706  78.9438772   8.8949496  31.5737700
  78.0007553   8.9402157  31.7309546  79.2244244   9.8093009  31.5352130
  60.2125978  62.4187708   0.1576671  60.2964640  61.4710331   0.0528318
  59.4584799  62.5298977   0.7366228  92.9728031  30.6841183  40.2082396
  92.5279903  31.5194845  40.3515434  93.2062626  30.6932282  39.2799902
  75.9658098  35.5772376  43.1389666  75.9121227  34.6489620  43.3662367
  76.3403177  35.5868936  42.2581244  35.5169201  42.5046587   2.3669204
  35.1144791  42.5559092   3.2338956  35.1848578  43.2732058   1.9029114
   8.9645416  78.0365133  74.7406006   9.7169411  78.5493040  74.4453526
   8.8671744  77.3514700  74.0791845  92.4444389  78.2091284  81.9396877
  92.0110703  77.5739241  82.5097275  93.3369827  78.2670689  82.2806263
  36.3650441  49.9928093   9.7576469  35.5004358  50.1930141  10.1162601
  36.1843395  49.4908333   8.9629149  87.8599834   2.5179452  28.0068302
  87.3150158   1.8344334  27.6168990  87.4163246   2.7401233  28.8253880
  67.3888302  26.3377833  47.0529699  68.0633640  26.8784475  47.4639606
  67.2530603  26.7365241  46.1934328  92.7032852  28.2952070  37.7698183
  92.8758049  27.8609943  38.6052394  93.2648182  29.0702891  37.7822828
  68.3394861  14.5914531  86.7595100  67.7582932  14.4983280  87.5143433
  68.0066013  13.9601970  86.1215973  67.3278809  41.3377666  22.5073195
  67.5903940  42.2237062  22.7571797  67.1946764  40.8837843  23.3394194
  56.1628199  30.6471014  20.7221818  57.1138000  30.5787706  20.6373286
  55.8595610  30.8735251  19.8429787  56.7759275  23.8930321  11.5672064
  56.1225080  23.7924647  10.8749938  57.2866201  24.6589994  11.3050508
  17.3412025  93.9899349  71.5776205  18.2029915  93.6876965  71.8643379
  16.9978881  94.4789791  72.3254156  45.8198118  40.3119135  14.5946991
  45.9450245  39.4395804  14.2210829  46.6536617  40.5123186  15.0198615
  33.6989737  44.2609310  28.4720063  33.1715083  43.5741711  28.8799000
  33.7139273  44.9670219  29.1181040  34.8964810  30.3565931  45.0406361
  35.3178716  31.2097764  45.1442719  34.8229241  30.2392602  44.0935087
  87.2766209  16.8044996  44.9486732  87.3250675  16.9765639  44.0083122
  87.7800083  17.5138664  45.3482056  48.2123852  45.5993080  31.1482573
  47.3310900  45.5339527  30.7804465  48.2704067  46.4979172  31.4728665
 106.4775753 101.4027309  75.3009033 106.2780476 102.2213554  74.8467255
 105.6983376 101.2249660  75.8276129  32.6344013 107.8644943  41.0170984
  33.2664156 107.1585083  40.8815479  33.0333614 108.6268902  40.5978060
  34.3470836   7.9922861  65.0467110  34.6541381   8.7220389  65.5846786
  33.5858035   7.6519829  65.5166817  38.3273697 104.1234875   7.1388644
  38.7702918 103.3817577   6.7266810  37.4437928 104.1093731   6.7710012
  78.4787655  33.0300713  33.8985753  78.4771013  33.7710667  34.5045090
  78.4838867  32.2580147  34.4643784  48.3648109  38.1084824  28.6087322
  47.5504780  37.6272345  28.7553382  48.7997198  37.6332688  27.9007363
  31.0351205 102.8967667   9.2990309  31.6055989 103.0775261   8.5519618
  30.1554680 102.8545761   8.9239812  44.7353649 104.6789360   1.4588033
  44.0982866 105.3660297   1.2631750  44.2035627 103.9049149   1.6440298
  55.1814699  10.7161951  33.4427595  55.0934601  11.5966797  33.0777454
  54.3107367  10.3298688  33.3488894  18.5385323  58.2386065   9.0448785
  19.4516134  58.1901360   8.7617463  18.3141637  57.3395777   9.2849505
  52.4199486  19.2412579   4.9036503  52.7434158  18.8408411   4.0966386
  52.0312214  18.5155582   5.3919983  40.5660963  36.5725112  48.5553551
  40.7121515  37.4913478  48.3303213  40.6178045  36.5487957  49.5108652
  62.5314665  59.6595049  18.0193067  62.1295500  59.2464209  17.2550690
  62.3109150  59.0799856  18.7485194  64.9904156  26.0512447  10.9538019
  64.7585011  26.5173554  11.7570388  65.1597023  26.7439651  10.3152788
  82.2534275  25.7727695  67.0524406  82.0265675  25.3850842  67.8977013
  81.4474010  25.7167768  66.5391970   5.4191768  75.3434277  78.5514879
   5.0498569  76.1107445  78.1143904   4.7678268  74.6549034  78.4176540
 115.0675011  93.5881519  89.8457432 115.3261280  94.1724110  90.5584621
 114.5557022  92.9012489  90.2728939   1.1928113  84.3610382  89.5461750
   0.9779675  83.5872173  89.0253448   1.4487839  84.0117073  90.3997993
  70.1054716   2.3489723  26.7238569  70.7564163   2.6243824  27.3693395
  70.3750467   1.4651793  26.4739132  72.9402447   2.8141263  37.5840449
  73.2071686   3.1496584  36.7282391  72.4592257   3.5377309  37.9856062
  38.4469271  53.5557270  24.5540476  38.2637715  53.9094782  25.4244184
  39.2842722  53.9483833  24.3072605  18.5275245  50.4356098   6.0052699
  19.2456579  51.0388041   5.8137655  18.1292176  50.2591372   5.1529545
  11.2086892  69.8039150  12.1049631  11.5666640  70.4434776  11.4892995
  11.9462800  69.2289400  12.3089135  61.2393570 108.2597446  64.6593761
  60.8523083 107.3878193  64.7379208  61.6515255 108.4162521  65.5089951
   9.2450947  40.6252098  50.4208803   9.0704381  39.9254036  51.0501623
   8.5597396  41.2726307  50.5863142  45.9501648  22.0410466  45.7188320
  45.0404119  21.9666839  45.4306507  46.1588764  21.1786938  46.0780239
  68.9826059  52.4438381  20.4756498  68.2188177  52.3178196  19.9126410
  69.2212009  51.5605450  20.7568884  34.4946170  37.6016331  51.4161110
  35.3011274  37.4948478  51.9204617  33.9534998  36.8534660  51.6684389
  68.7546253  18.3464122  24.1700482  68.4418964  17.7256179  24.8281097
  68.1543541  18.2364035  23.4326172  38.0814147  17.5169051  84.7822380
  37.4726725  18.1427443  84.3898201  37.5185418  16.8604827  85.1927471
  12.2545826  90.6020069  29.1204906  11.3686395  90.9340763  28.9753366
  12.7786684  91.0080433  28.4300542  34.7553849  10.5544960  33.4056354
  34.3158245  10.3205419  34.2231202  34.0431643  10.6850159  32.7795839
  59.0743876  63.1974506  29.1942668  59.4690084  63.9621019  28.7749600
  59.4153452  62.4512529  28.7011480  14.2647159   0.9350242  92.1428680
  13.3458543   0.6714003  92.1921539  14.5368016   0.6909490  91.2582111
   9.4175297  90.5473614  90.4753685   9.7433740  91.2254143  89.8835087
   9.9578077  89.7811413  90.2823639 111.4881039  45.7721949  89.2413139
 111.3523197  44.8274231  89.3134689 111.7791748  45.9041166  88.3390427
  36.8367219  84.8825359  55.9558010  37.3317862  85.2125168  56.7056370
  37.4446464  84.9490166  55.2194309  36.7412281  24.7925067  24.5145178
  36.0612249  25.2911639  24.9674749  36.9768071  25.3365970  23.7630534
  36.6295791  55.4233265  13.1853688  36.2345099  56.1785316  13.6210489
  37.4083900  55.2268124  13.7060106  75.5126143  -0.0867082  12.7495837
  76.1755133  -0.1136030  13.4395659  74.7968149   0.4260526  13.1250024
  84.7428989  83.0488968  94.7294426  85.0136089  83.6026096  93.9970875
  85.5549145  82.6480579  95.0395870 102.7700329  52.5301361  64.6885586
 102.8220367  53.3105230  64.1367245 102.6473427  52.8710365  65.5745411
  22.3967695  91.9135475  55.8941650  23.1708574  92.4418545  56.0888577
  21.7296863  92.5509357  55.6392956 101.8933201  11.1973441   4.5515531
 101.6284466  11.2833166   3.6357576 102.7903271  10.8656883   4.5113179
  86.2069225  13.3118796   4.2853674  86.9534779  13.8875759   4.4510579
  85.8498287  13.1267393   5.1539516  86.4324570  45.6491089  20.0334406
  86.3915253  45.8722496  20.9633684  86.7761612  44.7559118  20.0163579
  62.3983812 102.2113419  21.0751247  61.8089581 101.9219398  20.3786612
  62.9944849 102.8244686  20.6450438 106.5384579  25.9519124  24.3930387
 106.5376663  25.2694249  25.0641894 107.4592018  26.0471034  24.1493225
  46.2499475  24.6119523  22.9643822  46.0356665  25.3643227  22.4127865
  46.8726063  24.9546385  23.6055470 105.2823734  28.3767343  46.6449404
 104.3330479  28.4431982  46.7479324 105.6013680  29.2684674  46.7838097
 106.7135048  94.6962547  32.7840042 107.4917603  95.0150776  32.3269510
 106.0013485  94.8144817  32.1554422  25.6754231  68.8324499   8.2977271
  26.0678601  68.2199955   7.6755321  26.2994242  69.5566273   8.3469313
  60.8353472  53.1273603  14.0779185  60.2593803  52.7748919  14.7563410
  61.7176771  52.8988647  14.3703520 104.1121006 100.3576660  85.6006908
 104.3652534 101.1849022  85.1910210 104.1481400  99.7175217  84.8899555
 109.9696732  75.3183413  91.1932659 109.5999622  75.6639671  92.0057297
 110.8514023  75.0335932  91.4334583  17.4290538  76.9127083  27.8881478
  17.9627538  77.1563768  28.6444688  17.8292668  76.1065435  27.5623369
  54.1875553  46.2259293  23.9085507  54.6235514  46.9840622  23.5194850
  53.2694674  46.3214540  23.6551285  84.3940449  76.4351511   2.8408313
  84.4334126  77.0737457   2.1288797  84.3989468  75.5851555   2.4007002
  71.1752081  19.3068039  23.1425261  70.4041243  18.8337457  23.4553838
  71.1205578  20.1622462  23.5685110  81.2825775  33.0021000  17.1809375
  81.0774994  33.8492346  16.7852926  80.9166145  32.3591852  16.5735149
  87.1320057  33.9246082  27.2609138  87.5222397  34.7195649  27.6242256
  87.8366661  33.5224128  26.7530465  46.7259598 108.6595154  15.5716419
  46.6516733 108.6899853  16.5254688  47.4094200 108.0103397  15.4052484
  77.4804068  59.0008736   8.5794735  76.8592834  58.3068180   8.3587414
  76.9310331  59.7562265   8.7889141  66.6449833  36.9162178  19.4955683
  66.9519711  36.7938828  20.3939128  67.1254396  36.2628078  18.9871955
  52.6047182  10.1818979  25.6163502  52.3692417   9.9672300  24.7137427
  53.4036303   9.6810484  25.7810450   8.4455562  11.6465449  23.6986160
   7.7200532  12.2695315  23.6565995   9.2307448  12.1938396  23.7119794
 101.3486004  30.3653646  38.7750769 100.8654976  29.5975518  39.0805316
 101.8586826  30.6453705  39.5351052   1.0485710  75.9976721  65.4340506
   0.3542665  76.4550781  65.9083366   1.8596873  76.3212395  65.8260012
  95.6398106  63.2403517  89.3113327  95.6494045  63.1447363  88.3589649
  96.2833309  62.6037073  89.6224594  85.3960133  38.9722514  25.2246904
  84.5385838  39.3907833  25.3013515  85.2152348  38.1309009  24.8055458
  37.2651505  25.7147908   5.5425900  36.4235497  25.3898048   5.2227062
  37.8940678  25.4537010   4.8698884  72.8105450  48.1493521  13.4682834
  73.5200548  48.0371666  14.1009283  72.7953243  49.0896225  13.2897055
  36.3060760  45.0780678  31.4792156  35.7710361  44.3170881  31.7047834
  36.9039249  44.7586536  30.8033586  94.7935295  55.3035307  73.8433790
  94.7997189  55.8058405  74.6581650  94.0328407  54.7279358  73.9226294
  33.5140729  23.0988002  59.0446234  34.1947985  22.9812503  59.7072124
  32.8254652  23.5895920  59.4931459  58.7971973  18.3058202   6.3917392
  58.7229824  17.7420068   5.6217796  59.0606165  19.1566336   6.0410851
  79.1806602  45.3536367   9.8636931  79.3780375  45.1319408   8.9536786
  78.3771324  45.8715296   9.8151761  56.3839436  18.3805764  37.8658915
  56.8628454  19.1288078  37.5094724  55.6613445  18.7708771  38.3575726
  94.4756317  23.5164261  54.1917896  94.9998379  24.3135285  54.2696714
  93.5927582  23.7845325  54.4465160  58.8315582  16.0848224  11.0008252
  58.4776545  16.2276244  10.1229906  59.6637774  16.5577209  11.0034060
  14.3204379  14.9748755  16.2613404  14.0044689  15.2787364  15.4104209
  14.7405016  14.1352117  16.0749435  53.3597898  55.5943727   3.4518242
  52.5679398  55.9099150   3.0163482  53.1037760  54.7560167   3.8363379
  78.4943914  30.9175205  35.8662558  78.4032583  30.9039474  36.8190098
  79.4373560  30.8531451  35.7149100  25.2407765  10.8942831  66.6481352
  24.7241068  10.3888452  66.0205841  24.6144605  11.5043008  67.0377970
  56.4991093  32.6267695   4.3675804  55.6518316  32.8530765   3.9839968
  56.9875860  32.2248793   3.6491758  74.3653631  28.6608481  32.5136113
  74.3560219  27.8845501  33.0735302  75.2847004  28.7695742  32.2702360
  61.3891840  28.5152078  20.6655407  62.0300198  27.8971100  21.0169911
  60.5887461  27.9997754  20.5662465 103.4363174  65.9636593  88.6171246
 102.9033470  66.0544300  89.4070148 102.8357029  66.1624146  87.8987885
  87.7087688  12.9411173   0.4069359  87.6926899  11.9943345   0.5468535
  87.0512772  13.2838893   1.0122845  59.1820431  11.1177957  21.8916774
  58.4011412  10.8163226  21.4274168  59.8245668  10.4211664  21.7571163
  65.1567173  20.9309769   0.7097599  65.0779486  19.9773276   0.6856509
  64.9650049  21.1642528   1.6180877   3.4470630  96.9080830  93.3976746
   4.1703659  96.6285038  93.9588356   3.8696629  97.2006607  92.5901794
  58.7159157  96.5790558  26.2932587  58.2147026  95.9946823  26.8620443
  59.6208811  96.4844608  26.5904498  74.4692612 105.6769562  42.6756334
  74.7019005 106.5114117  42.2684669  75.0140858 105.0309658  42.2260761
  54.2447186  21.6320753  23.9648700  54.3503904  20.6816697  24.0072203
  54.2372561  21.8307471  23.0285430  15.4257166  86.3981628  63.1867838
  15.6198347  86.4390659  62.2503662  14.5279539  86.7221069  63.2596588
 104.1545296  36.6194344  27.8520036 104.5520687  35.7571268  27.9729414
 104.8939800  37.2272134  27.8592348  74.4250011  27.1541095   8.1240648
  74.1942215  27.2132969   9.0511411  73.7961149  27.7258062   7.6837242
  75.5202866   7.4344587  16.4404607  75.1853085   6.5832752  16.1584902
  76.3725758   7.5105041  16.0114539  40.5928850  30.8523011  13.4701788
  40.9627628  31.6065526  13.0113459  41.1899948  30.7012653  14.2029023
  64.5057011  23.3620834  29.5759726  64.0190125  22.8698349  28.9148688
  64.9071789  24.0827966  29.0905666  43.7870073  27.8618312  26.7301631
  44.0927267  27.3779130  25.9629679  42.8961706  27.5430202  26.8750978
  80.2175713  42.4452448  14.7066116  79.8392105  41.6367054  14.3611622
  80.7607841  42.7795267  13.9928877  75.8249426  20.9140682  47.7929974
  76.4733362  20.8058453  47.0972252  76.0898209  20.2878666  48.4667492
  50.3314924  20.8319211  45.2896452  49.7883606  20.1295662  44.9319601
  50.1278353  21.5928078  44.7457600  39.8575568  42.9986668   9.1341311
  40.2556467  43.4934664   8.4179384  39.5165086  42.2070980   8.7177980
  36.5340686  89.0858555  10.7104051  35.6379771  89.3917561  10.8507109
  36.6915274  89.2259121   9.7766912  64.3503094  37.6695085  20.6131339
  65.1600266  37.4964452  20.1328826  64.6187162  38.2302451  21.3409829
  60.8573580  66.0723352  21.4048529  60.4011583  65.2323961  21.3536811
  61.7719746  65.8388519  21.5635729 105.6878853  11.7993367  17.4008179
 106.3130188  11.3643730  16.8209469 105.4098511  12.5753880  16.9143283
   9.4046360  98.8833523  19.7950149  10.1299918  98.2773209  19.9460733
   8.6292928  98.4080887  20.0936818  90.6507683  53.0341005  50.1548624
  91.1303997  53.8501453  50.2971792  90.9522724  52.4540138  50.8540249
  68.0929232  30.9018326  24.2837191  68.3387566  31.8201423  24.1718793
  68.7714291  30.4137254  23.8172317  87.3429108  25.3196406   8.6224389
  87.5612068  24.8429227   9.4232655  86.4534378  25.6410480   8.7699395
  82.2354317  70.2955914   2.8467870  81.3367271  70.3407097   3.1731713
  82.2062397  69.6342659   2.1553893  64.7764921  72.0989990  24.6340895
  65.1574087  72.9305077  24.3517208  64.1203737  72.3452616  25.2860856
  49.3790150  53.7577724  22.3110962  48.7166119  53.1155348  22.0561838
  49.3588257  53.7557268  23.2680821   3.4086779  34.1640902  53.3947897
   4.3312591  34.3858647  53.2687283   3.0044395  34.3276119  52.5426865
 107.0763969  30.9850001  49.7880888 107.7952957  31.1023617  49.1670895
 106.3050461  31.3139248  49.3264914  51.7080832  46.7999649  22.9252100
  51.4666367  47.1468163  22.0663548  50.8912802  46.8060684  23.4242368
  -0.2580401  55.3141689  13.0801427   0.4399637  54.9452972  12.5388908
   0.0462107  56.1958838  13.2951796  75.4824400  60.3365755  22.0127058
  75.7147598  60.1690435  21.0993671  75.0619984  59.5278978  22.3051143
  51.5584707  33.2302523   3.8656738  52.5117636  33.2730627   3.7906229
  51.3199377  34.0245223   4.3436563  60.7524252  19.9641705  56.5389204
  60.9978724  19.0474510  56.4139652  60.4530954  20.2516818  55.6763840
  59.9410486  34.4678235   8.1975555  59.2030048  34.6868443   7.6287347
  59.6012449  34.5813036   9.0851867  75.8938026  54.2186165  28.0413580
  76.6316271  53.6126423  28.1095147  75.8119869  54.5958519  28.9172769
 103.9545441  55.2865887   4.6988410 103.9048386  54.3562746   4.9185544
 103.0660534  55.6137228   4.8395419  15.2135181  18.1304526  92.2845459
  15.7260203  18.8647389  91.9463158  15.4425371  18.0859900  93.2128811
   9.8555714  65.7861996  85.5322266  10.6200981  65.9659958  84.9850464
  10.2218795  65.5191565  86.3752747  55.4579353   8.6938870  14.5597470
  56.3295221   8.8179749  14.1840160  55.3127098   7.7485687  14.5208359
  14.4553590  74.6969318  89.1077995  13.9486206  74.7735643  88.2993603
  15.2969158  74.3354988  88.8296318   0.0907510  12.0005381  19.0980279
   0.8568836  12.4790370  19.4147491  -0.4794322  11.9277287  19.8634183
 112.9431248  92.3353291  92.8981113 113.4101868  93.1633472  92.7864265
 112.3150349  92.5073624  93.5996437  69.9969244  48.5494471  10.5123305
  70.4337883  49.1833067   9.9434692  69.1071463  48.4889889  10.1646638
  36.1544538  99.5512962  58.4125900  35.4960394  99.4200706  57.7303171
  36.8347692  98.9072895  58.2159662  84.6363068  34.5440078  21.1234021
  84.2163563  34.7849345  20.2976751  84.0273857  33.9281702  21.5310574
  68.1359196   7.5743198  63.9284372  67.6943398   8.4225351  63.8863611
  68.9791107   7.7634186  64.3401384  77.5724649  43.4045172  29.1369557
  76.9371653  42.6975584  29.2502475  77.8816414  43.5929632  30.0230312
  57.0349789  41.7200327  32.5311589  56.8382645  40.9294462  33.0336642
  57.8743505  42.0218801  32.8783989  71.3329411  28.0710602  49.8226976
  71.7725182  27.2663736  49.5479536  71.1142206  27.9223895  50.7426405
  55.6183624  32.6535344  14.2974651  55.3359795  31.9274879  14.8536563
  55.2812719  33.4354210  14.7347891  29.2686152  46.9000196   4.4082248
  29.4860911  46.0067129   4.6745816  29.0374112  46.8243361   3.4824556
  90.7461071  30.8949709   7.8235793  91.1495304  31.7308187   7.5894094
  90.0423622  31.1298013   8.4284204  35.3589487  40.3181410   0.7269058
  35.9183335  40.4550171  -0.0376755  35.3444052  41.1674452   1.1681624
  19.5908701  43.4534216  11.5526068  20.3663588  43.4360075  12.1134531
  19.0700352  44.1837358  11.8866730  80.7259655  49.2949438  41.7502975
  80.4713821  48.9162350  42.5917244  81.0761452  48.5567904  41.2515545
 104.9260330  78.8423014  87.5027370 105.5763245  78.2026339  87.2126102
 104.8540974  79.4582796  86.7736053  77.4291277  15.7354701  66.4355469
  77.3700380  14.9382365  66.9620085  76.8162823  15.5922103  65.7143497
  61.8844509  40.3399611  24.9996018  61.3690758  39.9804735  25.7216740
  62.6993036  40.6312799  25.4087257  13.0414677  72.5792694  85.4609680
  13.2737219  72.7316093  84.5449543  13.3727813  71.7011881  85.6492138
  47.5876188   3.5400560  46.0104084  48.2425880   3.2743388  46.6558838
  48.0701399   4.0875059  45.3909731  20.8825684  83.5095692  81.8554688
  20.2218556  82.8169823  81.8526936  20.7138944  84.0047073  81.0538292
  10.7634306  83.3173752  89.7066975  10.1211524  83.4665298  90.4005718
  11.1258316  84.1845608  89.5253372 112.0257282  83.2205772  89.2388058
 112.7874374  83.6424637  89.6363354 112.0317554  83.5222244  88.3304024
  68.7853527  43.3983278  26.8912959  68.7832975  42.5337315  27.3020315
  69.1857433  43.9726400  27.5440431  76.4244509  23.2997775  23.8672614
  76.8355274  23.4755254  24.7136450  76.4446115  24.1414475  23.4118319
  45.8489943 108.4153175  25.4533052  46.5420723 108.5793972  26.0928035
  46.2898254 107.9656315  24.7324157  89.8632908  41.3486528  37.0468330
  90.2500916  40.5667686  36.6527939  89.0255547  41.0493565  37.4001956
  76.5453100  13.4594536  59.0881681  76.4711332  12.6278210  59.5562696
  76.0557842  14.0816367  59.6262026  10.8243835   2.7047637  80.3903675
  10.9910929   2.3757160  81.2736416  11.5500212   3.3045346  80.2172852
  61.8723154  32.7304792   7.0696485  61.0633564  33.1717944   7.3286122
  62.0889473  32.1705985   7.8151917  59.1351461  58.1474733  31.7526245
  58.3652925  58.5160112  32.1859121  59.0451288  57.2015429  31.8681335
  59.0104342   5.0003916  78.9575195  58.4016895   5.0397062  79.6951628
  58.5063362   5.3291601  78.2131863  53.9102554  26.4744544   2.1010901
  53.8349056  25.5237055   2.1825157  54.8510647  26.6347241   2.0274682
  22.4088192  78.2616997  83.5265732  21.8045545  78.9096069  83.1642056
  21.8443608  77.6330328  83.9764595  82.1492481  35.6476450   3.0055112
  81.6334248  35.0460362   3.5423797  82.5167370  36.2719512   3.6311507
  60.4688168  17.2626102  29.2608714  60.5257511  18.2089555  29.1288853
  61.3224459  17.0189214  29.6188664  76.1342287  28.2422400  23.1735587
  75.6473017  28.1277347  23.9896584  75.6928968  28.9672422  22.7310348
  65.8752775  57.0660686  32.2612762  65.1091242  56.4937305  32.2203588
  66.6005611  56.5170479  31.9633245  63.0906773  70.4956961  19.5646727
  63.5300303  71.3332462  19.4173384  62.4641514  70.4239464  18.8445663
  69.1435862  54.2661905   5.5372238  68.5444593  54.6975422   4.9279481
  69.5868540  53.6030245   5.0081182  77.1879196  30.2935553   7.3832351
  76.4961386  30.9146309   7.6111364  77.4338961  30.5268693   6.4880860
  13.8807380  84.0899086  89.6312141  13.8626850  83.2573414  89.1592598
  13.1898296  84.6116638  89.2229939  77.4918747  42.4653292  14.8528802
  78.4370518  42.6159334  14.8665822  77.1769571  42.9866362  14.1144383
   9.3588477   9.2191714  78.9198685  10.0908065   9.6763891  78.5058403
   9.7102988   8.3572710  79.1431236  70.4886198  12.4033308  42.8032494
  70.2732801  12.5320315  41.8795061  71.4435482  12.4600959  42.8367376
  55.3236341  35.1989126  31.6841173  55.8983278  35.7949638  32.1644092
  55.6671286  35.2030134  30.7906818   0.9805603  54.8541784  77.9930210
   1.8669537  54.9444056  77.6431656   1.1063200  54.5169687  78.8799858
  65.8746195   1.2663957   7.3873693  66.2850094   0.4507548   7.1000671
  66.0239697   1.8769163   6.6654330  87.7058220  20.1272321   1.4600760
  87.3097324  19.6403146   2.1827486  88.5910416  19.7703445   1.3875541
  91.1269855  25.8392859  40.9345770  91.1823082  25.5887032  41.8567371
  90.3870773  26.4452624  40.8950186  99.1613197  26.5069556  25.0634885
  98.3201981  26.9638371  25.0623488  99.8133087  27.2056127  25.1185083
   2.0202258  19.2891455   5.9405738   2.7610785  19.0966284   6.5152967
   1.2988932  18.7713480   6.2980604  73.8952112  45.4482174   0.8649729
  73.8877344  46.2312508   0.3144886  74.3799353  45.7102966   1.6476540
  89.3377113  30.0308752  29.7027040  88.8960934  30.8684587  29.8429370
  89.4832516  29.9921584  28.7574267  65.2789402  55.9171820  24.3163323
  65.8099174  56.7014313  24.4550753  65.0733900  55.6079388  25.1985741
  62.1514702  22.0465422  43.2234573  61.7558098  21.2524819  42.8640842
  61.5849543  22.2855258  43.9570665  77.9595566  41.5783978  10.2495348
  78.0872631  41.0082436  11.0077238  77.8652287  42.4549961  10.6222379
  47.8585720  53.1541443  39.4858718  47.0882940  52.8137350  39.0308714
  47.5669527  53.9845705  39.8621464  76.1774063  58.5346031  16.8133414
  76.7356968  59.2548990  16.5205657  76.1898422  57.9114056  16.0869074
  75.5743694  31.6134310  30.7451844  74.8267841  32.2098851  30.7052541
  75.2039051  30.7518911  30.5535150  80.4990387   8.1051195  60.0291824
  79.5787621   7.8881371  60.1783228  80.4790592   8.7802255  59.3509054
  79.2764854  38.1606627   4.3373522  78.5406113  38.3000946   4.9334064
  79.3673229  37.2090912   4.2874610  65.8001518  36.9699192  28.6178589
  66.2248182  37.5439715  27.9804015  65.3407812  36.3199306  28.0861425
  85.5315018  94.0089798  68.3605433  85.3894329  93.5497189  69.1882658
  85.6300926  93.3108616  67.7131367  87.2397232  35.7467604  37.1391582
  86.9889832  35.1890826  36.4027095  86.7432976  35.4012990  37.8810835
  15.0328887  75.2747917  85.8528042  15.1910353  75.0741100  84.9303341
  15.6928515  74.7670698  86.3249207  85.2546501   8.6643726  41.2066603
  86.2086582   8.6737019  41.1291504  85.0914860   8.5249192  42.1394873
  22.2193027   8.1371689  89.2721653  23.1533003   8.2741094  89.1136456
  22.1782756   7.7602065  90.1510620 101.3822746  59.2203856  16.4635766
 101.2467766  58.6515856  15.7057261 101.8228722  58.6634064  17.1053565
  92.9831123   6.3876730  74.6752501  93.7877178   6.0416824  75.0614166
  93.0467987   6.1624712  73.7471008  78.9881563   7.9748231  46.2918711
  79.3684673   7.8085279  47.1543932  78.2122231   8.5060537  46.4706230
  59.2207289  32.7461743   1.6884111  59.3403292  33.6908579   1.5909366
  59.5192146  32.5575018   2.5780982  47.0774412  12.6630032  92.8767014
  47.6854515  13.3756983  92.6801682  46.2119579  13.0705118  92.8434563
 110.2280235  36.0084510  15.8618200 109.3806934  35.6409121  15.6104577
 110.7967281  35.2463222  15.9712136 107.5718307  27.8540897  42.7821875
 107.9332161  27.5109100  41.9649601 107.4014568  27.0765877  43.3138800
  76.5463495  19.2251074  27.7974892  76.3747787  20.0138903  28.3118963
  77.2424269  19.4806266  27.1921611  44.9386263  55.6275892  14.5168138
  44.2432499  56.0117435  13.9828551  44.5506620  54.8305559  14.8779976
  89.2487812  58.4763765  14.5183969  89.0964890  58.4680939  15.4633665
  90.1623154  58.7466526  14.4253790  91.4157104  30.3692603   4.6453178
  91.3958549  29.4491386   4.9084011  90.6992817  30.7737637   5.1345408
  68.1369448  34.3115950  18.5864115  69.0772676  34.3162465  18.7653136
  67.7753353  33.6935687  19.2216384  81.2462234  35.6577349  20.0102162
  80.7134151  34.9538183  20.3801513  80.6159687  36.3419604  19.7847056
 106.8926907  45.1428986  13.3837700 107.4253464  44.5730066  13.9385164
 107.5292492  45.6409693  12.8709722  94.0099525  69.0717554  89.5685863
  94.1281033  68.2499647  89.0922070  94.8902035  69.3074656  89.8615456
  78.1697893  47.0445681   3.1051362  78.9340258  46.7036057   2.6404661
  77.5174332  46.3473988   3.0371630  90.7714748  82.9754257  81.9399929
  90.2386761  83.2222462  82.6959229  91.6289997  83.3633041  82.1144676
  34.4128847  16.6493571  21.8169165  35.3700733  16.6531968  21.8196130
  34.1753221  15.8421588  22.2732377 101.9168472  51.9322491   0.7382392
 102.2260475  51.7871189   1.6324225 102.0858097  52.8599977   0.5740049
  85.8615017   8.2912934  30.2532053  85.7608986   7.4711406  29.7700262
  85.4541206   8.9512825  29.6922374  81.8162346  34.8786068  49.8126507
  82.7598000  34.7291732  49.7527742  81.7359638  35.7570004  50.1844215
 113.8457108  84.3369675  82.5886917 114.6744728  84.2569065  82.1164894
 114.0052509  85.0218391  83.2380962  34.1457367  30.4821801  22.9211831
  33.7036443  30.3006458  22.0918274  34.9978757  30.0543857  22.8370166
 107.5479603 102.3762798  78.8753843 107.8524590 102.3129177  79.7806454
 107.6448441 103.3025551  78.6543703 112.7758694  65.5468035   3.4535909
 113.4241009  66.1191988   3.8639402 111.9412518  65.9962368   3.5864350
  83.2196236  29.2280483  42.7051258  82.8286076  29.6713686  41.9522619
  84.1604233  29.2419720  42.5292206   4.7832364 106.3288975  82.6058292
   4.2638656 105.9288788  83.3032990   5.5568725 106.6742706  83.0512905
 108.9369011  66.6985512  86.1622334 108.6103630  65.8230686  86.3699245
 108.5278511  67.2676468  86.8141842  83.5795975  35.7061815  14.2288828
  84.3821144  35.2270842  14.0223289  82.8736591  35.1137376  13.9702308
  98.2276440  54.8649931  22.5789356  97.8468990  55.5819988  22.0718169
  98.0404377  55.0903463  23.4902000  72.8908491  51.5596771  13.4969604
  73.1043005  51.1862516  14.3520761  72.0411015  51.9812822  13.6250782
  47.2685623  52.6279259  14.0204918  47.0271587  52.5388575  14.9424601
  47.4994278  51.7403030  13.7465250  62.2612190  40.1405048   1.0251552
  62.8043795  39.4133496   0.7211012  62.4637938  40.8580875   0.4249290
 105.5261993  55.0294590  49.6305275 104.6932888  55.4589891  49.8254728
 105.5116177  54.8976898  48.6825562  33.6316919  25.3729510  50.2234793
  32.6759839  25.3731060  50.2769089  33.8837337  26.2710309  50.4383278
  69.4634151  57.3460627   1.4831677  68.5781193  57.4440145   1.1326164
  69.8361778  56.6143656   0.9913344  94.8669624  72.7894402  78.2211590
  94.4096756  71.9667387  78.0471182  95.0857067  72.7495718  79.1521740
 108.5214615  74.6262264  87.0105171 108.9179420  74.2322731  87.7875900
 107.8006744  74.0381193  86.7850876 100.4185009  73.1505060  58.6441183
 100.5041885  72.3981094  59.2296028 101.3190842  73.4306622  58.4807587
  63.7682533  18.7144673  41.2215233  64.1084862  19.5241821  40.8409548
  64.1579962  18.0187333  40.6921053  30.2779651   9.3109453  93.3425045
  30.9904385   8.7101609  93.5608387  29.6826196   9.2582452  94.0901852
 103.1345654 104.8749447  12.9314196 104.0370274 104.9377060  13.2442582
 102.9424477 103.9372730  12.9409146  66.2570953  38.4009957  17.2118425
  66.8121862  37.7594161  16.7685807  66.2367249  38.1106925  18.1237316
  93.8350010  37.3348904   6.8979502  94.5407677  36.9342446   6.3903904
  93.3203411  37.8187895   6.2520403  33.9811158  54.1546202   5.6021565
  34.7979975  54.4898701   5.2326357  34.1251922  54.1627026   6.5484166
  59.2285585  31.6732883  16.1776280  58.6571074  30.9336472  16.3840413
  58.9122677  31.9916701  15.3321552 105.5342624 107.6332160  94.6250782
 105.7910440 108.4098550  94.1279625 104.6118066 107.7778646  94.8357588
  79.4084549  52.9752970   9.9138939  79.4688034  52.0436668   9.7025758
  80.2308750  53.1730270  10.3619552  66.2743664  29.8041487  51.8544102
  67.1407318  29.4420743  52.0402670  65.6924772  29.3624949  52.4729395
 104.2230988  12.2905195  11.5811789 104.9866962  12.1138775  11.0316753
 103.6459160  12.8162098  11.0273409 106.7499065  61.7363596  28.5590243
 105.9134960  62.1996641  28.5142183 106.5599728  60.9477901  29.0672731
  34.8046923  88.2457066  84.8072624  33.8891506  88.4370136  84.6037483
  35.3039002  88.7719059  84.1826534  70.3448105  53.8665771  11.0037506
  69.9823761  53.1737185  11.5558529  69.6650267  54.0326405  10.3506458
  97.1329308  34.1560173  56.9860268  97.5783634  33.3105087  56.9318247
  97.5651455  34.6084309  57.7104187 114.2391491  37.7889895  40.5605555
 113.9772320  37.2028899  39.8505425 113.7769604  37.4552298  41.3294601
  90.4847240  18.5954320  11.5758324  90.4304790  19.5206749  11.8150318
  91.4235115  18.4170306  11.5203166  89.1301250  40.0190163  23.2194519
  89.4778824  39.4575262  22.5266123  88.6557865  39.4209337  23.7969685
  88.1929684  19.6100032  39.8833323  87.6727772  18.8667846  39.5779467
  87.7580261  20.3764391  39.5096612  39.3318081 105.8741188  50.6270742
  40.0519133 105.3830433  50.2314281  38.6180687 105.8052158  49.9929905
  55.7999849  40.3307486   7.1739888  55.6080055  41.2017775   6.8265921
  54.9449921  39.9055052   7.2402018  64.4403362 107.3712730  31.8164110
  63.9533091 107.5765800  32.6144600  64.9952507 108.1374645  31.6706634
  44.2771769  49.8102951  58.7024546  45.1077223  49.5539236  58.3015776
  44.4839382  49.9237680  59.6301460  82.3073959  53.9117193  19.4922268
  82.5637341  54.7665501  19.8383415  82.8712654  53.7832737  18.7294769
  98.7103748  33.1542659  11.2888932  99.5435715  33.2900763  10.8377063
  98.5427189  33.9833355  11.7369604  36.3297486 106.1055088  63.4079409
  35.4099703 106.0635376  63.6696243  36.3450384 105.7338619  62.5259686
  55.1036119  34.0588784  18.4533584  54.9292850  34.9591231  18.7279487
  56.0426712  34.0423965  18.2686377  43.5826731  72.9727221   7.2501177
  43.7936831  72.0604753   7.4488890  43.3029699  72.9598951   6.3347852
  40.5299282  61.9962502  32.0127320  40.8706236  61.4950800  32.7536654
  39.6138811  61.7275572  31.9427824  95.2326012  42.1620417  11.6081429
  96.1301613  41.9188166  11.3813055  95.0261307  41.6275740  12.3749173
  81.6363430  49.7791433  20.5843043  80.9968281  49.0791988  20.7159615
  82.2872543  49.6414089  21.2724686  86.5394497  46.0536194  26.7783713
  85.8729362  45.8898973  27.4455881  86.3604641  45.4056406  26.0969615
  22.7004552 109.2398834  31.6638041  22.4193287 108.4065628  32.0416570
  21.9400334 109.8137474  31.7569065   3.6946797  66.6283751  83.3884048
   4.2740983  66.3733196  84.1063499   3.1575951  67.3320723  83.7525177
  74.3577003  65.6240988   2.6191804  73.7320757  66.3341808   2.7627423
  74.4427109  65.5685616   1.6673814  66.5156555  35.4510069  30.7639289
  66.3387251  36.1955667  30.1889849  67.3102665  35.6974602  31.2373042
  87.1707153  34.0202212  22.1587420  86.8919563  33.1477022  22.4366617
  86.4254570  34.3642378  21.6663384  78.2103395  57.7275705  22.7163243
  78.3048153  58.1703424  23.5596848  77.7778101  56.9001532  22.9273367
  19.7683024  27.2540665   5.8834779  19.7627449  28.2095599   5.9403443
  19.6453023  26.9597006   6.7859471  51.7881155  20.2511716  32.7574825
  51.0898781  20.5663037  33.3314085  51.8012476  20.8749032  32.0315218
 109.4765663  28.1065321   7.5439268 109.3620014  29.0520716   7.4487430
 109.7996616  27.9931974   8.4377933  80.7078743  83.0879784  82.3569012
  81.5825081  83.3119869  82.0390129  80.5885696  82.1723557  82.1046448
  96.4239883  68.4434223  29.7109842  96.4024734  67.5369787  30.0177956
  97.3417759  68.7024641  29.7934127 116.0677714  80.7375050  91.4150333
 115.7608471  80.1308537  90.7412338 115.3835258  80.7184505  92.0841217
  74.2538691  25.6079674  24.5249510  73.5150766  26.2154317  24.4874430
  73.8595772  24.7437501  24.4070697  60.9234619  17.7446830  10.6174779
  60.3353739  18.1184971   9.9612427  61.7463923  18.2191622  10.4996383
  56.8312979  21.8204713   8.1753373  57.5478649  21.2240720   8.3922935
  56.2559557  21.3072443   7.6080513  64.7054720   4.6518776  45.9318781
  64.7335052   4.1015267  45.1492167  64.2210913   5.4312241  45.6594324
  59.4034338  21.5768886  21.9275761  59.4791460  21.9939375  22.7858114
  59.4227219  22.3040414  21.3053942 112.3303223  75.2075577  87.7770901
 112.6101112  75.0419044  86.8768120 113.1462669  75.3224850  88.2641888
   3.5227874 106.1550903  92.8950691   3.9921144 105.3367233  92.7330971
   2.6725203 105.8797741  93.2378197 103.5269070  63.3536291  17.3292553
 103.9193058  62.5893593  16.9071794 102.6087666  63.1133747  17.4538934
  99.4367886  50.5495262   8.4650683  99.9924469  50.8946037   9.1639268
  98.6596489  50.2210093   8.9171284  69.2405939  39.7994208  48.0980253
  69.1673136  40.1642323  48.9799404  69.6741343  40.4853725  47.5903368
  50.6207991  22.9539180   7.7718067  49.8836184  22.4093652   7.4956471
  50.4162836  23.8246632   7.4309111  76.1683989  10.7653618  45.1348209
  75.3423834  11.1578941  44.8522425  76.2895393  10.0162375  44.5514059
  70.3805590  19.3892694  18.4020972  70.1031637  19.9175787  19.1505456
  71.1555862  19.8390460  18.0655432  89.3406868  45.8135843  16.5586925
  89.7529793  45.1717138  17.1368372  88.4122372  45.5808926  16.5659165
   8.5209882  90.0257111  83.9063740   9.4375998  89.8318291  83.7102509
   8.3721906  90.8908176  83.5246944  73.5158634  52.7133656  23.4351730
  74.2475891  52.4123001  23.9738488  73.1307697  53.4331799  23.9349747
   6.3071805  60.9698391  93.2971764   5.4037595  61.2438250  93.1390858
   6.3113487  60.6716442  94.2067337  45.0700474  26.2377977   3.6589298
  45.4076242  26.4981794   4.5159444  44.1360140  26.4436531   3.6967906
  54.6425247  51.6182375  37.4002671  54.8640299  50.7141447  37.6233912
  54.1857147  51.5529346  36.5616417  96.5320492  19.6882355  10.1727593
  95.9306717  20.4318166  10.1320446  97.1622372  19.8511636   9.4709420
  64.0383053   6.7566615  48.3410311  63.6807108   7.2234827  49.0963030
  63.3052444   6.6948187  47.7286339  81.4671993  50.3249502  54.0028954
  82.0737743  50.2810240  54.7420645  80.8113098  49.6536493  54.1910696
  52.6039886  41.5182686  42.1198273  53.2184505  40.8056450  42.2954178
  53.1186247  42.1646500  41.6365337  90.4132175  19.6626449  36.1137724
  91.1069298  19.1692638  35.6760788  89.6103954  19.3956637  35.6660914
  33.6800623  96.1264133  21.7939115  33.2263732  96.4123440  22.5867796
  33.1151104  96.4153671  21.0772777  58.2673073  28.5684443  23.2229471
  58.7215185  29.4059443  23.3152580  57.5187063  28.6353636  23.8156939
 110.6740570  24.9147320  53.2722378 110.7586956  23.9996266  53.5399151
 110.7250690  25.4092455  54.0902138  96.0090065  37.2667289  14.9390531
  95.5721188  37.9673386  15.4233146  96.6728115  36.9353843  15.5438721
  86.5050888  55.3770876   8.4398860  86.2151718  56.2762117   8.2857788
  86.9797707  55.4174614   9.2701149  77.0784664  28.9841676  30.0014853
  77.4052811  28.9907050  30.9011412  77.8032064  29.3304801  29.4808626
  54.5521641  13.5052824  27.2138858  54.8149109  13.5480225  26.2944436
  53.6182594  13.2971704  27.1866798  67.7436447  38.0045915  33.6353946
  68.2102108  38.2554173  34.4326639  66.9525337  37.5661874  33.9487243
   9.1068190  82.1859932  72.9116440   8.5616422  82.3276615  72.1377277
   9.9993497  82.3555088  72.6101732  64.8180628  56.3183641  16.0500765
  64.9147511  55.4176521  16.3592756  64.3175936  56.2403536  15.2378690
  93.6745644  66.9547653   5.4863763  93.5625172  67.6261854   4.8134214
  92.7887821  66.6324902   5.6529915  32.1443653  55.7356405  11.4827180
  32.6926899  56.2914371  10.9289491  31.5116596  55.3460884  10.8792555
 110.1209545  19.3512106  50.2670622 110.5691814  18.8532114  49.5834541
 110.3791714  18.9233434  51.0834455  71.1082077  62.6261950  21.9059157
  71.8177605  62.5492096  22.5437546  71.4850903  63.1359577  21.1887455
  83.9766884   6.5761250  66.1028004  83.4267235   7.3526585  65.9990025
  83.4847355   5.8752906  65.6749582  71.6147327  24.3791318  31.5403986
  70.7472754  24.6989036  31.2924075  72.1681643  25.1601100  31.5360427
  51.8839407  26.9856882  74.1484785  51.5943527  26.4598465  74.8940372
  52.5136042  26.4276814  73.6919880  87.9284286   7.7636194  41.2651253
  87.8890324   7.1005285  40.5759287  88.7888336   8.1692481  41.1583233
  86.2112141  20.3993320  27.9035115  87.0863533  20.5527520  27.5473881
  86.3641834  19.9130678  28.7136865  99.6382999  46.0969353  58.2668686
  98.8024139  45.6775856  58.0627537 100.1979542  45.8927917  57.5176334
  91.7079926  54.4404221  44.8676920  92.4236202  53.8570690  44.6150875
  91.3468361  54.7500563  44.0370703  93.1539822  52.5274229  19.4228160
  92.7814293  51.9964027  18.7189305  93.6087227  51.8980789  19.9826169
  83.1749439  86.2412357  45.7427979  83.9808846  86.6065884  46.1077785
  82.5175095  86.9223499  45.8845758 110.2262020  43.8514090  13.7017715
 110.3152275  44.7229385  13.3161032 110.6332397  43.9286232  14.5646703
  23.0399203 105.6234360  87.8269005  23.3689046 106.2616920  87.1939468
  22.8694749 104.8374081  87.3079014  92.7456284  61.2837124   0.5936404
  93.5389900  61.4757633   1.0935652  92.7347660  60.3294992   0.5188663
  93.1823540  54.0861940  16.6097939  92.8826809  54.9883890  16.7214739
  92.5174332  53.5567284  17.0500088  62.4947786 108.2738113  16.9858885
  62.0664597 109.1170883  17.1330941  61.8867683 107.6297665  17.3488688
 104.4535255  54.4698048  13.2041693 105.3444576  54.1807222  13.4014332
 104.3751812  54.3737316  12.2550321   4.1757423  63.9364100  87.3702049
   3.2769555  64.2375469  87.5033665   4.2982528  63.2505178  88.0265331
 109.2978954  44.3439245   8.2366186 109.6018028  44.7617817   7.4308473
 109.8503304  43.5674572   8.3268386  61.1644793  67.8123474  13.1648040
  61.0133553  67.0876122  12.5580466  61.7392874  67.4461365  13.8369012
  96.0446072  29.5404673  38.6689234  96.8260479  30.0894308  38.7339115
  95.4481792  29.8937106  39.3290114  26.9756198  74.1456270  91.5962124
  27.6500750  73.6818743  92.0924759  27.3826432  74.3249321  90.7486153
  47.4218559  78.9940500  58.8990355  47.4595118  78.0807304  59.1830397
  46.5936375  79.3203402  59.2509127   2.8981429  64.6059942  78.9568663
   2.5071666  65.4661036  79.1104174   2.6254535  64.3739700  78.0691528
 108.5498619  93.5395908  21.2931132 109.1906452  94.0681171  21.7688131
 108.3587933  94.0472889  20.5044651  18.4421313 102.9237843  86.1679077
  19.1922259 102.3398972  86.2804413  17.9055309 102.7772141  86.9468880
  84.8132515  99.4381332  32.9585123  85.3859615  98.7663651  33.3285928
  83.9861584  99.3333721  33.4287977  67.6779604  29.8671484   9.9745089
  68.2349062  29.9507380  10.7484961  67.9197645  30.6118441   9.4238782
  33.9448833  30.5939174  85.4479694  33.6938000  30.7914734  86.3502789
  33.2648206  29.9972844  85.1352787  54.5722151  16.5239501  22.2596002
  54.1650391  15.8061135  22.7445245  54.0702963  16.5786815  21.4463925
   9.3693131  78.0402946  85.0068283   9.6703815  78.7873173  85.5240726
   9.4505358  77.2915745  85.5976391  89.7396564  42.6995707   3.4659424
  89.3300915  43.5344124   3.6929250  90.6052303  42.7390003   3.8727197
  72.7566051  35.3780651  52.0529652  72.7113199  34.6153164  52.6295042
  73.0166197  35.0212431  51.2036705 105.1314068  20.4620838  45.9028578
 104.8179913  21.3635468  45.8295870 105.6736469  20.4603958  46.6916513
  61.2552309  85.5802059  31.2902927  60.3116226  85.5121422  31.1446953
  61.5709209  84.6779156  31.2407756  85.1644325  71.5063906  25.3204370
  84.4713306  72.1464872  25.1588464  85.9341145  71.8714476  24.8839188
  67.0297194  54.2922401  31.9364715  66.1879015  53.8501167  32.0464921
  67.6175642  53.6105251  31.6109991  79.5612574  47.7310944  47.0837641
  79.0561342  48.1778812  47.7630758  80.4239368  47.5966978  47.4761391
  93.0503178  86.2592888  90.2111912  92.7675915  86.5922832  89.3594837
  94.0000439  86.3786507  90.2117729  83.1174183  11.7720425   8.5628963
  83.8109016  11.1348331   8.7340212  83.0082607  12.2359633   9.3930125
  78.2314110  35.9416342  18.5340464  77.8221178  35.1459622  18.1940174
  77.7451515  36.1376619  19.3348920  29.4442630 109.0302944  31.5136552
  28.6534810 109.5590115  31.6202259  29.1735673 108.1437111  31.7522430
  70.5742788  57.7275085  31.1200166  70.4093075  57.3231411  31.9717813
  70.5388784  57.0002079  30.4987192 106.3496590  73.7999868  53.2067204
 106.9882011  74.0795660  53.8627243 106.0316086  72.9557514  53.5266256
  97.7108192  36.4948511  44.3998766  98.1326866  35.7175255  44.0337896
  97.3414230  36.9466400  43.6411524  93.3902645  59.0326786  29.0632391
  92.7343178  59.1288710  28.3727956  92.8974724  59.1339254  29.8775673
  71.8891811 108.1984138  40.3870058  72.8444147 108.2488823  40.4219532
  71.6655636 107.4792290  40.9777641  15.4112661  78.6432362  81.5475464
  15.0981367  78.2715321  82.3721790  14.9656820  78.1337738  80.8706856
  73.5387516  57.9525900  10.0930548  72.9571724  58.2940865   9.4138062
  73.0499840  57.2290707  10.4853046  90.5400085  36.7680550   3.9894906
  91.1532021  36.3192534   4.5715582  90.6177807  36.3040376   3.1559020
  96.4190578  93.8120556   7.3411208  97.3064899  93.5416412   7.5768363
  96.2650681  94.6037960   7.8565347  63.6675119  30.4171729  35.2683258
  63.9517212  29.5134711  35.1312852  63.7824965  30.8363485  34.4155049
  48.0297565  73.1632853   6.0988396  47.3973322  73.7464046   5.6790209
  48.5629797  72.8291416   5.3775549  87.1485138  51.3346672   3.3244118
  86.6655254  51.2538147   2.5019664  86.4705372  51.3481140   3.9999899
  78.0513668  82.7155399  24.9333763  77.1407700  82.4485493  25.0589061
  78.2641697  83.2181549  25.7197118  60.3417921  36.9324970  10.4770243
  60.4392385  37.5931191   9.7912300  61.1289692  36.3929009  10.4033875
  64.5106983  75.8850718  59.3436909  64.0738106  76.3040924  60.0851679
  64.3209887  74.9528503  59.4495296  83.3710766  73.2681513  19.5153940
  83.8821507  72.7154922  20.1066637  83.5090351  72.8841829  18.6495030
  91.1220837  56.9411516   9.7557169  91.1784267  55.9952354   9.6204162
  91.1619377  57.0499849  10.7058740 111.2710476  21.6411757  18.6006904
 111.6371918  22.0721388  19.3729901 110.3311062  21.8144250  18.6527765
  92.7688313  39.9677753  10.0024152  92.3773289  39.4107366  10.6752157
  92.5380516  40.8588266  10.2651060  62.7298689  62.5099468  17.5242841
  63.2706785  61.7405987  17.7027667  61.9427156  62.1581554  17.1085143
  37.8861213  58.5714436  16.2308216  37.7893329  58.5085535  15.2806067
  37.6862240  57.6916933  16.5506852  82.3356915  44.6375799  30.8941531
  82.5868607  43.8588762  30.3973961  83.1607437  45.0953722  31.0552168
  24.9051428  58.6421680   2.6514155  25.1783204  58.3896065   3.5333553
  25.2539110  57.9529810   2.0860714  89.1181660  16.9155014  12.9801261
  89.5786667  17.5086725  12.3865652  88.2008171  17.1824527  12.9214406
  68.1917429  55.0082874  34.3507528  67.7536917  54.6247864  33.5909724
  67.4773455  55.2931213  34.9206138  10.9490430  74.1203690  79.8166752
  11.1573470  75.0480604  79.9272585  10.7369995  74.0316105  78.8874865
  67.0754576  62.4702501  10.4869509  68.0098057  62.3062468  10.6147242
  66.6604900  62.1171904  11.2739611   2.1683903  60.2551746  34.7251081
   1.3482457  59.7622538  34.7001147   1.9363284  61.0852909  35.1413822
  13.5608602  82.8936958  36.3915849  13.6474216  81.9713116  36.1508584
  13.8425326  82.9301167  37.3056769  97.3262596  54.0880823  14.7702491
  97.0129871  53.4080267  15.3665829  98.1180096  54.4268751  15.1880872
  75.2464294  27.8546190  25.7020712  75.6141663  27.6338601  26.5577960
  74.6595049  27.1263909  25.4985118  62.8908014  35.4676366   9.4432938
  62.2411108  35.0296879   8.8934439  63.2294226  34.7756076  10.0113297
  64.7605562  68.7424040   9.3471336  65.5725956  68.6981535   8.8422936
  64.2100954  68.0526924   8.9762932  48.9516640  47.6318789   1.5221266
  49.8645353  47.6724529   1.8071771  48.7097836  46.7113113   1.6235040
  90.9750175  42.5891209  39.6177292  91.0300350  42.2017527  38.7441444
  91.0543060  43.5311222  39.4674540  96.0295868  19.9633873  31.6960287
  95.6333065  19.7156334  32.5313830  95.7346725  19.2907405  31.0821843
  41.9661760  49.2413044  26.1049795  42.5579071  49.9734497  26.2783504
  41.2723780  49.3343067  26.7578387  75.2317667  84.0291786  46.5763378
  75.8885193  83.4674358  46.1648083  74.4016075  83.7492085  46.1907387
  79.9544144  48.2073450  44.3103552  79.9568033  48.2366514  45.2671003
  79.9950266  47.2746134  44.0991974  78.9264202  37.1588254  28.2235408
  78.9110899  36.7674160  29.0969229  78.0840921  37.6070261  28.1471252
  75.0685740  70.2003765  10.9113836  74.8642492  70.5518246  10.0447989
  75.5086374  70.9199095  11.3639879  70.3364849  55.8317041   7.3429346
  71.2042046  55.4650784   7.1729952  69.8104763  55.5608749   6.5904725
  26.7970467  99.6856403  84.1979504  26.2723255  99.1917133  83.5679245
  26.5623355  99.3143559  85.0484180  84.5094776  52.5215006  25.6762862
  84.9250793  51.8518353  25.1330972  84.6656799  53.3411932  25.2073121
  84.8741722  38.0572343  11.1143994  85.2914619  38.9081049  10.9797776
  84.6959877  38.0238843  12.0542777  85.1953697  39.7841120  48.6607647
  84.6210384  39.6103930  49.4065475  85.9825325  40.1664639  49.0486097
  15.5650771  56.1917686  40.7802773  15.2280653  56.7460155  40.0763845
  14.9350560  55.4738140  40.8423042 115.0966263  41.9834757  13.5106635
 116.0076332  41.7587519  13.3214748 115.0666904  42.0810699  14.4624054
  89.3713570  57.0891428  37.3708081  89.0969753  56.1915874  37.1828318
  90.3002548  57.0147943  37.5895619  26.0827851  94.8329735  76.4234591
  26.5532041  93.9994717  76.4090014  25.7555652  94.9078083  77.3198748
   5.4298657  22.9049206   2.4663188   4.6790716  23.3565259   2.8517959
   5.6804407  23.4503102   1.7206678  39.3504071  47.4198818  24.6567512
  38.6748672  47.1898651  25.2946949  39.7118425  48.2459688  24.9779630
  67.5820065   6.0655367  81.8012524  67.4293613   5.5045986  82.5617027
  68.3393621   5.6759167  81.3644028  68.2930851  41.9170952  46.2322044
  69.2459869  42.0017576  46.2645578  68.1008577  41.7233419  45.3147364
  88.9839268  81.6406631  47.3955297  89.1273689  81.1277771  48.1908941
  89.1744137  81.0328865  46.6810036  83.8923454  49.4018841  25.8581853
  83.7408447  49.9211693  26.6478801  83.1066418  49.5368481  25.3283858
 115.5635643  58.7043858  58.0958080 115.8596611  59.5104933  57.6730251
 114.7013283  58.9223337  58.4497547  92.8191662  33.4518194  69.4333267
  93.0179691  32.5612664  69.1441488  91.9360161  33.6189866  69.1041660
 107.0841980  22.5955462   9.6563923 106.2733841  23.1029034   9.6939158
 106.8011189  21.6850495   9.7406042  80.3423309  36.8435550  38.2396674
  79.5188618  37.3179293  38.3541393  80.3664780  36.2258339  38.9704680
  62.4156713  65.1986122  10.2499568  62.6975965  64.2997360  10.0803494
  62.8691530  65.4437160  11.0565007  77.3954344  69.5598173  13.5407865
  76.8049431  70.2506256  13.8413453  78.2314825  69.7592974  13.9620543
  87.0272350  17.0917261   2.5363949  87.3334503  16.6060138   1.7705283
  86.0910225  16.8982160   2.5841480  11.2843859  30.5260253  92.2711277
  11.5173602  31.3715339  92.6546192  11.0007703  30.7365394  91.3814735
  70.7028246  59.1098785  26.4969349  70.0786257  59.2137337  25.7787299
  71.5614843  59.1873693  26.0810852  49.1562319  28.8244581  66.3990974
  49.7295427  29.1381717  67.0984745  48.9442825  27.9249573  66.6485167
 106.1639309  97.8900719  24.0661216 106.5124226  98.3777237  23.3198118
 106.9171429  97.7652264  24.6434546  83.2373810  55.8572245  26.2682652
  83.5358047  56.7666197  26.2817931  83.7568951  55.4449081  25.5780983
 113.8841724  58.3608913  92.6839256 113.2961655  58.5828209  93.4058857
 113.3530712  58.4814405  91.8967628  95.7156181  99.3200779  33.0298042
  96.6497993  99.1166687  33.0763698  95.4524899  99.4473648  33.9412808
  82.1678925  57.2806215  37.8412366  82.6892281  58.0215549  38.1502104
  81.3766479  57.3035145  38.3794069  92.6499367  43.8798857   0.3135274
  91.8212128  43.5296583   0.6403148  93.2157230  43.9153528   1.0847982
  64.1911745  20.3931284  34.8422122  64.4613028  19.9106777  34.0608621
  63.8658237  19.7193348  35.4391885  91.4034367  68.7269449  23.0485559
  92.3178577  68.7808418  22.7707601  90.9031010  69.0017939  22.2802138
  31.1782670  41.8230534  94.2695045  31.5967774  42.5760460  93.8522720
  31.2794948  41.1118174  93.6369514 105.5805683  73.6804247  26.1453509
 104.8021793  73.5838509  26.6940045 105.8163261  74.6047401  26.2246633
  83.2027721  91.5685844   5.7889605  83.1147957  91.7203903   4.8479792
  84.0891647  91.2228680   5.8939558  16.5759695   2.5290748  88.5043240
  15.8249414   1.9735461  88.7130737  17.0916510   2.0120560  87.8854561
  63.3570766  42.7392530  11.1635268  63.0376625  43.2186699  10.3990901
  64.1498852  43.2072020  11.4256430  90.8290386  35.5242062   9.1968983
  90.7808018  36.4701438   9.0586728  91.7261696  35.2924919   8.9566720
  88.6712837  79.0374374   3.7439734  89.1765404  79.5721865   4.3563375
  88.6666870  78.1641865   4.1359487 107.4943638  89.0600586  30.5347490
 107.5759602  89.9446392  30.8912587 106.6292095  88.7658596  30.8196831
 104.4381905 108.4812164  84.8537159 103.5291004 108.1821823  84.8344326
 104.6433353 108.6830902  83.9408112  81.2936497  64.4305038  37.2688961
  81.5729141  64.8694229  38.0723858  80.3399181  64.5118237  37.2706223
  57.4993372   4.6810329  90.1539707  56.8257713   4.2895740  89.5978260
  58.3153200   4.2717978  89.8659897  65.9001303  90.2059174  27.2815728
  65.9671593  90.6649971  26.4443231  65.1652098  89.6035576  27.1662807
  89.2557621  60.6183529  45.5116844  88.5842514  60.9945059  44.9426413
  88.7635231  60.1486301  46.1849546  80.4915810  15.2284133  12.2366822
  81.2723637  14.9961770  12.7393413  80.0105476  15.8295000  12.8054869
  84.0547276  91.8948936  25.8940005  83.8008022  92.4360275  25.1463842
  84.6428871  92.4518490  26.4040136 102.7068710  71.6583014  27.6100612
 103.4989357  71.3299274  28.0355501 102.5471878  72.5067949  28.0233335
  82.1115017  84.0887356  18.4757841  82.0620060  83.7785149  17.5716019
  81.4834881  83.5442543  18.9505231  90.1387215  11.6146386   6.1576563
  90.7391167  12.2443795   5.7586867  89.3914890  11.5844750   5.5601877
  95.8478260  48.0560207  32.0807290  95.3135777  47.4593639  31.5565062
  96.7355728  47.9441547  31.7406797 101.9959259  57.9336119  19.3725276
 101.8956470  57.0294333  19.0748096 101.6239071  57.9380369  20.2544641
 110.4914284  47.5442266  47.7601814 111.0661030  47.8981733  48.4389353
 111.0882378  47.2300243  47.0809650  99.7905731  62.3512030  13.6521459
  99.3768406  62.0841837  12.8313184 100.7204056  62.4272823  13.4380233
  68.6818790  12.1616089   6.1159647  68.4425116  11.3962543   6.6386181
  68.9151812  12.8289127   6.7613393 107.8094959  62.9584837  20.2976465
 107.4274158  62.2055960  19.8466420 108.7408829  62.7488518  20.3669000
  45.0507689  21.9420218  35.0075340  44.3755865  21.2763262  35.1387191
  45.8489752  21.5456676  35.3568268  20.7174158  73.8463068  69.9943686
  20.9723520  73.8660526  69.0719509  19.9059880  73.3387280  70.0077868
  27.2640800   9.9774265  89.7518158  27.9853845   9.4461799  89.4145870
  27.5849986  10.8777249  89.6998119  83.4667397  99.2872715  28.0023813
  82.7834797  98.6700821  28.2640576  84.2228222  99.0491867  28.5389256
  11.4138556  49.8654985   2.4766266  11.6855168  48.9690113   2.6734453
  11.9578993  50.1226664   1.7322388  86.2953854  47.4792337  34.8131061
  86.7563248  47.3436117  33.9852333  86.8171024  47.0024252  35.4586244
  99.6194839  72.2397614   9.6864355  99.8558044  72.2894192  10.6126738
 100.4555511  72.1413231   9.2308784  51.9842672  54.5989704  41.4784575
  51.4422369  54.2424107  40.7746792  52.5394726  53.8670874  41.7474031
  84.5782471   8.2334828  49.6396732  84.7951794   8.1359148  48.7124968
  84.0034389   7.4922478  49.8304510  78.1124210  57.7120447  11.5585339
  78.2097960  57.8561783  10.6172705  77.3571444  57.1289587  11.6346824
  84.9480247  31.6291189  24.2580175  84.3987942  32.2523499  24.7335815
  84.9213409  30.8328748  24.7885966  59.6773481  44.7993660  18.2642102
  59.5184755  44.3660593  17.4256182  59.5999289  44.1002989  18.9134777
 106.2338543  84.1382313  77.8479958 106.4478397  83.6785316  78.6598587
 105.3304100  84.4303703  77.9691410   7.8403264 106.5596676  64.0129423
   7.9138738 106.2473392  64.9147606   7.1474779 106.0222149  63.6290932
  50.4350185  49.1607761  15.1012993  50.9019470  49.0129328  14.2788923
  50.4175949  48.3023787  15.5244851  81.1142159  17.2840142  28.1039524
  80.9718323  17.5416970  27.1931505  80.5975723  17.9085636  28.6131239
  89.3554401  41.3557148  19.9944544  88.6960506  40.8152103  19.5593739
  90.1717472  41.1511612  19.5383477  23.6340189   6.3658762  86.1016560
  23.9762497   7.2444928  86.2664032  23.7983513   6.2154943  85.1707363
  69.2383528  78.1089735  39.5470905  69.8209143  78.5485792  38.9277339
  69.1346073  77.2258186  39.1928291  64.5973921  18.5674965  26.0492492
  64.8264360  17.7940118  26.5645075  63.7384892  18.8300645  26.3802648
  81.4805889  77.8480291  18.1550956  82.1667957  77.3081779  18.5474145
  81.9077778  78.2768059  17.4135470  72.1425533  67.8529453  53.3571053
  71.9073439  66.9377518  53.2043886  73.0214214  67.9392052  52.9878044
  85.8415031  28.9595222  14.7882509  86.1269188  29.8305869  15.0639594
  86.5288830  28.3718300  15.1018822  88.4529400  58.0553436  27.1859741
  87.5767803  58.4239912  27.0733857  88.2993412  57.1644688  27.5005817
  92.3291206  89.5695496  43.0638599  92.0747948  90.0785351  42.2941351
  92.5465107  90.2270508  43.7246609  86.5118694  55.5211067  60.1424503
  87.1853447  56.0292244  60.5946350  86.9106102  55.2873325  59.3042469
  66.6519547  67.3615408  16.1773849  67.2945547  66.7798805  16.5835392
  65.9404516  67.4151802  16.8154454  82.5301170  56.6283655   4.1078657
  83.1418324  56.5047216   4.8336381  81.6796207  56.3732481   4.4653603
  73.8714933  47.0877790  19.3754578  74.1015673  46.7605829  18.5058367
  72.9207945  47.1954632  19.3470502  81.8236160  40.6633902  45.4837990
  82.7649784  40.8365726  45.4749203  81.6206741  40.4898262  46.4029932
  64.8140717   9.2717558  33.9924288  64.0958738   9.4084597  33.3745790
  65.1601696  10.1492023  34.1553187 110.3661060  64.5797873  16.6491568
 110.3853703  65.4669571  17.0080340 110.9864330  64.6026421  15.9205246
  87.7417278  63.9285469  25.7607651  87.4276733  64.8272562  25.8604169
  86.9734383  63.3854485  25.9368634  35.9921694  49.9408722  14.4341862
  36.4706969  50.6096983  13.9443767  36.6704893  49.3435001  14.7492445
  79.2483568  70.3227901  19.2804301  78.8096571  71.1013985  19.6232772
  79.9918795  70.6656170  18.7845695 104.6800041  41.0036707  27.9203129
 104.9953365  41.2710667  28.7836194 103.8446331  41.4597845  27.8186083
  38.5955286  12.5923264  88.0719090  38.2021022  11.7210782  88.1206322
  38.5965109  12.9056036  88.9763927  73.6752510  63.1136942  29.4658923
  73.5652876  62.5093412  28.7317991  73.8733053  62.5492859  30.2131867
   6.9698733  45.3137350   8.4143889   6.4414877  45.1593399   9.1974628
   7.8452832  45.0081110   8.6520517  77.4010515  57.8920555   4.2054790
  77.5738478  57.3625469   3.4270254  78.2665110  58.0580473   4.5791858
  82.0870399  43.1947517  12.4946094  82.1737385  43.6463881  11.6551208
  82.5894260  42.3873615  12.3852205  90.6838799  66.5652990  14.2110467
  90.1918602  65.7664680  14.0212405  90.2361870  67.2470713  13.7100565
  63.6058235  51.6990805   8.3545089  64.1204453  50.8920097   8.3485687
  63.1558847  51.7024660   7.5096565  79.2930031  58.9842033  20.5028439
  78.4955454  58.6131716  20.1251912  79.4319963  58.4845161  21.3073468
 101.1415672  55.0265265  25.6246805 100.2168179  54.9195671  25.4018855
 101.5735245  55.1840639  24.7851419  80.9879589  34.3435192  29.7837377
  81.9307804  34.4451833  29.6534681  80.9090137  33.6260009  30.4123616
 102.1558762  10.5225801   1.9809416 102.4322987  11.1069226   1.2749903
 101.3913345  10.0666964   1.6289820  93.6677074  30.3901482  33.9597917
  92.8770828  29.8928857  34.1692305  93.6324596  31.1512685  34.5391750
  53.2838869  28.5830045  42.3828506  53.9216900  28.9566326  42.9909945
  52.9613304  29.3331051  41.8833160 110.2668858  40.1082325  26.2293148
 110.6322575  40.7432652  25.6133056 110.9961700  39.5212579  26.4289355
  32.4054360   2.8275654  87.8786850  31.9150376   3.1639785  88.6287308
  31.8424225   3.0052051  87.1252346 101.2372875  53.5581207   5.7619965
 101.0197163  53.9528131   6.6064560 102.0651054  53.1030560   5.9164923
  76.0237408  74.3176317  43.4413671  76.5511990  74.0326881  42.6951599
  75.4322815  74.9770927  43.0787039  84.5593643  38.5068774   2.3082668
  85.5013943  38.6733890   2.2752376  84.2762184  38.8960552   3.1356713
  83.0209732  38.0996728   8.2791775  82.5164890  38.3145475   9.0637529
  83.8840485  38.4822702   8.4371442  90.7959747  65.5129004  65.9740734
  91.6429710  65.9557247  65.9218216  90.5463886  65.3649187  65.0619078
  41.1421108  79.7617817  86.2625122  40.9138489  79.3225861  85.4432297
  41.7813158  79.1811848  86.6755009 110.8467770  96.9148064  93.5403728
 110.6773186  95.9736729  93.5826302 110.3020096  97.2876263  94.2335224
   1.2832645  54.0841961  27.1838164   1.4852129  53.3550453  26.5974832
   2.1282306  54.5049763  27.3425746  31.9684267 101.1068821  83.3365917
  31.8819070 101.1160755  84.2898369  32.0507216 102.0293427  83.0946636
  82.2451496  45.4659081  13.8435364  82.2039509  44.6290588  13.3806980
  83.1084728  45.8175755  13.6261916  67.5530386  70.7007408  45.7931614
  68.4944487  70.5284023  45.8100986  67.2137260  70.1113129  45.1196098
  62.8256321  51.0447025   5.4255134  62.3380089  51.0764503   4.6024427
  63.7426758  51.1274385   5.1639491 113.4075069  90.2352333  94.7548389
 113.0012512  90.7975388  94.0952873 114.2356014  89.9624252  94.3597794
 100.1974583  69.8625565  27.5337744 100.2774525  70.5684137  26.8922114
  99.8926449  70.2965641  28.3306170  54.6689272  10.1642275   2.8326297
  55.1656008  10.0925910   2.0175119  54.9693155   9.4253659   3.3618584
  74.8353529  48.9222383   9.5289367  74.4002819  49.6516323   9.9704355
  74.1558075  48.2533503   9.4450593 100.4101276  78.6693621  62.7664089
 100.6655788  79.5689583  62.5622177  99.8760509  78.3968163  62.0202732
   4.3583062 106.5064240  89.5418358   5.0045180 107.1737480  89.7727489
   4.8046449 105.9521770  88.9016628  63.0371857  74.9526930  16.5763724
  62.2886419  74.4485092  16.2574482  63.4617519  75.2789593  15.7829440
  84.1879845  62.9232645  32.9306412  83.4142685  63.4500790  33.1307864
  84.2004585  62.2485161  33.6094546  90.5173206  64.0246105  25.3933930
  90.6686497  64.9570465  25.2388263  89.5868206  63.9656734  25.6100368
  53.7932777  55.5604315   6.5183711  54.5604467  55.3244400   7.0399040
  53.9067411  56.4927816   6.3337582 103.7863445  66.1945534  27.5983477
 104.4156647  66.3135958  28.3096910 103.5763168  67.0837831  27.3130488
  26.4299512  64.8793364  71.7469740  26.8452406  65.6574678  71.3751173
  25.4939771  65.0795555  71.7371798  61.0988045  55.4081678   9.9030429
  60.6167603  55.4759979   9.0788686  62.0156813  55.3326130   9.6387303
  76.2918186  70.6415892  31.3347006  76.3280058  69.7520638  30.9830356
  75.5579853  70.6265688  31.9491076  83.3338070  66.9742584   4.9402642
  82.4264050  67.0480156   4.6446007  83.6175537  66.1142349   4.6303016
  46.1013174  96.6332340  37.1883512  46.7603445  97.0441437  37.7478766
  46.0230494  95.7410049  37.5260377  85.7983208  70.4854393  60.0846434
  86.1593342  71.2924480  59.7176981  86.3844204  70.2688932  60.8097839
  55.7824421  48.1247950   8.1297082  55.2338696  48.7074757   7.6045543
  55.3062630  48.0261040   8.9541751  41.8497419 105.2649784  35.9560585
  41.6754580 104.3875790  36.2966919  41.8174887 105.1633739  35.0048113
   1.8685275 103.5539627   1.0615620   1.4831674 103.8050079   1.9010311
   1.2960030 102.8608227   0.7329222  34.7844219 108.5266113  76.5835285
  34.7048092 109.4583130  76.7880249  34.7249079 108.4849453  75.6290913
  67.1454668  21.9450092  71.6461468  66.5695286  22.3837757  71.0200405
  68.0258179  22.0748901  71.2935209  76.1388683  61.3916111  12.4426246
  75.6688452  62.1555567  12.7768290  75.6323671  60.6425333  12.7565849
  75.4465532  41.7205954  19.1614592  75.9395790  40.9007645  19.1292989
  74.5378494  41.4596319  19.0118194 102.5655270  44.8400736   4.5857251
 102.2982216  44.9617100   5.4967588 102.0801830  44.0680599   4.2947462
 110.1321411  51.1556816  18.4643078 110.1154995  50.2841616  18.0688262
 110.5063057  51.7189980  17.7868819 109.0039349  82.5949287  58.2795954
 109.2636776  81.7044544  58.0433178 108.4637165  82.8893757  57.5463200
  87.6756191  48.0041885  93.3259773  87.5712776  47.0533228  93.2913494
  88.3553410  48.1942558  92.6793861  92.0612812  51.3811827  24.6336603
  92.2421837  50.5345726  24.2252946  92.6426220  51.9936275  24.1828918
  77.9174614  79.6249485  25.0319910  77.1233225  80.1136494  24.8157859
  77.6221228  78.9426184  25.6348443  50.2088833  62.4670362   6.5130758
  50.4526949  62.0371151   5.6933451  50.1365328  61.7525673   7.1459496
   3.8432920   7.7136469  31.2187338   3.1835943   7.0829767  30.9301400
   3.7779000   8.4329849  30.5906367 111.6360283  70.6288767  30.5429244
 111.8367577  69.7068930  30.3820205 112.3226833  71.1079884  30.0790358
  14.5638800  79.8858404  25.6033158  14.9172544  79.0005398  25.5161190
  14.6440136  80.2630806  24.7272444   9.4407612  72.6274347  10.5730212
   9.3872541  73.4467411  11.0650623  10.2632093  72.2297287  10.8587503
  99.2648888  67.0113373   4.3847987  99.1368580  66.7540741   5.2978456
 100.2124405  67.1131134   4.2952514  95.3109455  91.6676140   9.4112885
  94.6823788  91.2877274   8.7974292  95.7003021  92.3996830   8.9330411
  93.3336163  93.7040520  21.4757538  93.7414837  94.2423534  20.7974434
  92.8640366  93.0244923  20.9920907 115.1903248  56.1202478  27.4637794
 114.6488571  56.0554361  26.6771126 115.7985878  55.3841734  27.3971796
 108.0505562  77.4349833  31.9241929 108.5486984  77.8119802  31.1989570
 107.8836823  76.5314054  31.6559887  79.4876814  50.5498362   8.4416205
  79.8356724  50.5862856   7.5506639  78.5528994  50.7296371   8.3411855
  12.7122700 106.3292503   6.4475757  13.0767524 107.1356869   6.8123245
  13.3938837 105.6724739   6.5900016  87.9747200  76.6288567  32.3542595
  88.3488464  77.4150515  31.9565725  88.1053543  75.9435606  31.6988707
   2.2545098  59.4266605  19.7519338   2.3611976  59.2615032  20.6887221
   2.7313486  58.7136078  19.3271840  87.8450871  42.4595451  33.9901042
  88.3268642  42.7616215  34.7600865  87.8381062  41.5057850  34.0708947
  77.1061373  65.9772015  26.1511254  77.0494795  65.3965282  25.3922844
  76.8438244  66.8348122  25.8165789  14.1741502  45.5971575  58.6196470
  13.9493251  44.9091768  59.2460394  14.8673546  46.0966969  59.0511084
 100.6154537  22.5281429   1.9185176 100.3160000  23.3782220   1.5961419
 101.3287640  22.2857904   1.3280237  20.6384993  98.9936924  84.6534061
  20.7503700  99.0677261  83.7056541  21.5050006  99.1846180  85.0125027
  93.7623024  57.7121401  10.3134000  93.8866329  56.8332958  10.6717336
  92.8573704  57.7177954  10.0014722  89.7132015  62.0959997  54.7999716
  89.2973137  61.3287544  54.4067764  89.1476917  62.8278065  54.5532131
  64.6535206  85.7894611   9.8773170  65.1394987  86.4224052   9.3487030
  63.7822723  86.1746025   9.9712116  77.8179407  97.6583672  53.1492519
  78.3871746  96.9729519  53.4991169  77.8166628  98.3365822  53.8247252
  91.9614601  17.0100784  88.1286144  91.0514832  16.7508340  87.9838085
  92.2344303  16.5075397  88.8961887 101.9517609 109.0712715  34.0858173
 101.0418841 109.1481543  34.3729472 102.4661371 109.2013984  34.8825073
  74.3400621  81.3251019  13.9071417  74.6886778  81.7269325  13.1113839
  73.4479856  81.6652012  13.9761686  72.4012661  70.2508068  50.3739119
  72.6126719  70.8800316  51.0635614  72.4658251  69.3966198  50.8010340
  89.6489620  52.2999954   2.0189708  89.8797989  51.8968487   1.1820598
  88.9321136  51.7616844   2.3544985  87.5990868  53.1996059  31.6047502
  88.0936909  53.8428593  32.1125174  86.7070770  53.5461426  31.5831256
   0.8661987 101.0943699   0.9396031  -0.0221546 101.1890602   0.5959528
   0.9975044 100.1486015   1.0067259  92.0138359  70.7569647  69.4879723
  92.3345757  71.1080837  68.6572647  91.7460442  69.8613644  69.2820120
 105.1559353  46.0482597  30.5475974 106.0303497  45.6749344  30.4368782
 105.3138447  46.9422150  30.8511376 108.7062263  27.6190066  16.6948748
 107.7870750  27.4181938  16.8710959 108.7520313  27.7163720  15.7437420
  74.2627478  12.3014557  80.6130028  74.4945621  11.3797498  80.7268143
  75.0528383  12.7799094  80.8641529  97.4438477  67.9973841   2.7203596
  97.9967785  67.8124523   3.4795052  97.9021168  67.5899887   1.9853389
  76.7599440  78.3003139  27.5239015  76.9245863  79.1895390  27.8375912
  75.9717321  78.0235863  27.9912114  59.2830133  30.4101539  34.7726250
  58.3645248  30.2869320  35.0122643  59.6152067  29.5233464  34.6331644
  80.2313232  57.0364380  56.1339951  79.6641159  57.7438116  55.8271790
  81.0642529  57.4653387  56.3302326   0.8579249  88.7930775  13.5285115
   1.6698481  88.6014748  13.9978707   0.9039783  88.2526875  12.7397859
  92.7838230  32.9397058  23.2193375  92.5698853  33.6216092  23.8561058
  92.6717854  32.1195364  23.6999631  75.6932020  64.9651575  19.2829561
  76.0999298  64.1381121  19.0244985  74.9442434  65.0580359  18.6941707
  93.4995747  62.7041006  34.9149013  93.2261086  63.2539845  34.1806817
  93.4470081  61.8100262  34.5771217  99.4246006  62.1367502  39.0302634
  98.9620495  61.4719248  39.5404387 100.2745342  62.2217655  39.4622660
 109.1294003  71.6814518  25.6250191 109.2016029  70.7334423  25.7358909
 108.6099339  71.9714212  26.3748908  84.9252224  53.6396408  31.9826651
  84.9293900  53.5126066  32.9313874  84.0478325  53.3721304  31.7090511
  81.0225391  92.5572777  18.3203983  80.5880451  92.5902843  19.1726661
  81.7464828  91.9434452  18.4442520  51.4351082  86.6796684  88.4107399
  51.0949707  86.0898685  89.0835476  52.3669577  86.7621803  88.6134052
  69.2106152  88.9212322  29.5891142  68.3547449  89.2203617  29.8960924
  69.0406752  88.0598450  29.2078352  67.9836416  91.1790848  20.6783628
  67.2646952  91.7774391  20.8816338  68.5282803  91.6616154  20.0564599
  57.8511524  79.2159319   1.8700995  57.6557636  79.7127199   1.0755809
  56.9932318  79.0154028   2.2442500   5.9542394  76.9479179  20.9254599
   6.2256175  76.5132475  20.1169777   5.1720774  77.4424028  20.6806326
  96.9692802  48.9579391  19.7991276  97.5288010  48.3577728  19.3062091
  97.4737740  49.7699070  19.8482728   5.2922815  90.5772972  47.2546339
   5.3179288  89.8081017  47.8237629   4.8612669  91.2505436  47.7811384
  80.1128197  46.2189198   1.3920316  80.7308388  46.7987061   0.9469143
  79.8474789  45.5906773   0.7203638  82.0041943  98.5868740  11.4778781
  81.5896702  97.7915668  11.1433899  82.2139931  99.0952778  10.6944609
  88.6233616  23.7787318  10.5597210  89.1823673  24.1242361  11.2556946
  88.8090611  22.8397989  10.5472755 100.9956074  32.5063348  47.5332451
 101.0669708  31.8434095  46.8464661 100.3705692  33.1433725  47.1872091
  83.2245255  61.9694090  30.5520892  83.6033249  62.3650885  31.3370633
  82.9617119  62.7142668  30.0113940   3.8093549  89.8244190  16.6396201
   3.4785149  88.9265251  16.6157901   3.5007331  90.2151680  15.8221221
  26.2720728  77.9624653  13.2607555  26.9747949  77.4448347  13.6537862
  26.6481519  78.2980585  12.4470162  46.6898346  26.8500686  89.4690990
  46.4824200  25.9618306  89.7593403  46.7063856  27.3674130  90.2742863
  73.4019041  50.4218817  21.3780928  73.7341881  51.1584711  21.8911719
  74.0142250  49.7086477  21.5586352  40.4048300  74.2566013  84.0535831
  39.6661830  74.7506523  84.4093037  40.1980829  73.3426762  84.2491055
 101.4595413  46.9605350  34.5406508 101.2763882  46.9386244  35.4799104
 102.4135494  47.0140505  34.4838381  82.6678085  27.0711851  12.2415602
  83.0958271  26.9577098  13.0901825  83.1180000  26.4564967  11.6621494
  73.4873676  50.6148148  11.0192418  72.6991606  50.8699846  10.5398178
  73.3724785  50.9965229  11.8894899  41.3341188   0.1415078  76.3645744
  41.6948271  -0.2273316  77.1708488  41.4510155   1.0867057  76.4603233
  22.7123070 104.9139595  76.3372755  22.3951697 105.6097412  75.7614756
  23.6518502 105.0786781  76.4170074 105.0743103  32.3617601  31.8820620
 105.5345821  33.1944180  31.7769051 105.0364399  31.9957590  30.9984112
  92.8766918  48.1193447  42.6979065  92.6789284  48.8062382  43.3345318
  93.8202190  48.1910610  42.5535107  99.9177742  43.9649773  16.5723217
  99.4942760  44.8178196  16.4746463 100.1623440  43.7155342  15.6811428
   5.6310910  80.1482964   0.5937316   5.3944325  80.6283855  -0.1998340
   6.1151093  79.3856764   0.2769252  85.1262093  55.0289488  24.2046428
  85.9578514  55.4464531  24.4289303  85.0297070  55.1774120  23.2639647
  96.8640041  64.4323635  50.0014830  97.7938271  64.2669392  50.1573181
  96.8509865  65.0903702  49.3064308  91.8836212  45.5624008  34.6857977
  91.6981983  46.1778450  33.9765167  92.3882961  44.8631573  34.2703557
   7.1786261  49.7589493   5.6248397   7.3066264  50.6992960   5.4999721
   6.5913177  49.6950960   6.3779819  33.4512353  79.3620682  91.3297844
  33.4392333  78.9153862  90.4832840  32.5463486  79.3149424  91.6383171
  29.1588759  19.8516679  87.4491024  29.0610766  19.7036695  86.5084839
  29.5254922  19.0331340  87.7835083  14.2063868  27.5914431   8.6335874
  15.0658584  27.6025391   8.2123798  14.3975079  27.6530623   9.5694870
  91.3809299  80.1621342  26.2727094  91.5671921  80.5195713  25.4045057
  90.4292583  80.2210331  26.3568544 102.9868698  52.0811510  52.5948286
 103.3278656  52.7547073  53.1832886 102.0411301  52.0908594  52.7421474
  83.6995602  73.7207985   7.2502071  83.2649612  72.9310036   6.9283813
  83.8060474  74.2692041   6.4729387  67.7678251  20.7032132  94.1096592
  67.2918224  21.5223861  93.9732552  68.4170055  20.6834888  93.4065151
   4.9916181  61.3073206  41.1598015   4.5614082  61.3794041  42.0118284
   5.8630747  61.6778708  41.2993956 100.8250809  84.7497463  24.2268038
 100.8318424  85.0393486  23.3144903 100.1464176  84.0754986  24.2590332
   5.9958899  98.7720490  26.0734630   6.7275435  98.4771919  26.6156578
   6.1980337  98.4416103  25.1981473  59.8836946   7.6252586  80.7608318
  59.6573877   7.0771289  81.5122128  59.6498632   8.5127485  81.0327053
  77.9098606  65.0587368  35.4486775  78.4398794  65.7628870  35.0752020
  77.3036098  64.8179388  34.7481728  91.6940308  56.1836195  23.2769156
  91.8023872  55.3733730  22.7789330  91.5172386  56.8506384  22.6135421
  90.7437992  38.8491011  12.3148811  90.1665401  39.4293499  12.8111744
  90.1511765  38.2342052  11.8825340  10.4465830  92.7984619  22.4839115
   9.6584851  93.1140804  22.0417356  10.1178610  92.2877312  23.2237267
 107.0482826  55.6871176  16.3835728 106.2317753  55.9649611  16.7987382
 107.3113918  56.4355230  15.8479500  80.7935905  55.9477949  50.5476713
  80.8655739  56.5221214  51.3100290  79.9015045  55.6034517  50.5905962
  80.0552845  45.8589125  29.9777579  80.0896740  45.7895756  29.0236926
  80.8379841  45.3980446  30.2797699  95.8469486  65.8967686  30.7365274
  95.6382942  65.2390242  31.3998985  95.2449036  65.7098627  30.0162292
  86.3269329  77.3254728  27.0912933  85.4604530  77.6376915  26.8305945
  86.5004921  77.7670097  27.9226494  94.8200035 102.1607971  83.3095932
  94.2182732 101.4492226  83.5282421  94.5869827 102.8656864  83.9138031
  64.9295807  39.4562387  22.4754596  65.4976940  39.7515559  23.1869864
  64.6260643  40.2636433  22.0604825 112.6042747  44.4200039  47.2832251
 111.7364216  44.0184450  47.3259640 112.4929619  45.1691914  46.6979456
 100.3431416  64.0378952  59.4167376 100.2145481  63.6058378  58.5723305
  99.7296429  64.7725582  59.4057608  62.4103594  18.8728285  93.3648014
  61.6213369  18.5747826  92.9122066  62.4859238  18.2921612  94.1219997
  61.4172029  48.2824183  13.0541289  60.6176043  48.5213661  13.5229361
  61.1302137  47.6444721  12.4007607  96.3560581  84.6477127  35.2265286
  95.4748154  84.6623135  35.5999422  96.2246037  84.8262978  34.2953682
 102.8547668  85.1547337  32.0458269 102.9101562  84.7559643  32.9142427
 101.9239330  85.3443527  31.9282699 113.5939217  68.6982632   7.8285617
 113.9136505  68.9296818   8.7005991 112.6405144  68.7348223   7.9055226
  20.8826280  79.9645853   8.2769394  20.0066948  79.8143053   8.6324489
  21.0998273  79.1503382   7.8230071  98.3755875  88.4586525   8.4260315
  97.8716373  87.6833820   8.1786013  97.8227043  88.9102459   9.0637004
   5.0057507  91.5182209  26.5995026   4.6415079  92.2476959  27.1009183
   5.6195748  91.0968971  27.2011209  82.8640366  71.7101383  22.8831291
  82.3807812  70.9273243  22.6187444  83.6620140  71.6887856  22.3549151
 108.3611012  69.0179825  19.4647217 108.3589172  69.3906879  20.3463769
 108.9649105  68.2772636  19.5193148  81.6577530  52.7299404  25.0177169
  81.8601131  53.4720612  24.4480348  82.4104118  52.6671791  25.6057572
 101.5177345  77.2194624  14.3672132 100.5863476  77.2783279  14.1543949
 101.7735767  76.3422441  14.0821481 101.7256641  78.0349588  59.6064186
 102.2485256  78.7355804  59.9962568 102.0203972  77.2402811  60.0512171
  39.4073081   4.4232577   5.5637634  40.3091526   4.3356392   5.8723646
  38.8798666   4.0026027   6.2427974  60.9582090  81.7806816  33.7108850
  61.3899422  82.3635006  33.0862546  61.5776300  81.7065430  34.4368720
 100.9105968  52.5024605  34.7696686 100.9550858  51.6507339  34.3351412
 101.0633183  53.1368828  34.0693712  78.8033295  82.5117588  34.4133019
  78.0403519  82.2375965  34.9221539  78.4435797  82.7797222  33.5677218
  93.2346058  85.3495884  44.0931368  93.6450386  85.5406952  44.9364948
  92.4748516  85.9308338  44.0593338  65.1935244  83.7061882  11.5054834
  64.8193026  84.5326805  11.2003660  65.9197426  83.5361385  10.9055483
 107.7138424  35.8885193   0.2401878 106.8518639  35.7262301  -0.1430768
 107.5970650  36.6798401   0.7659316  88.2782364 104.7829914  15.3626752
  88.4007645 105.1461220  16.2398052  87.7400970 105.4310989  14.9081552
   6.7432356  54.7407818  11.5855503   6.2243640  53.9409971  11.4998543
   6.4652133  55.1183939  12.4200249  34.1750813   3.2251012  92.6739216
  34.6640491   3.8886243  93.1606293  33.9956784   2.5396827  93.3175468
  13.3887959  77.4310684  18.5296190  14.1180658  77.1153879  17.9960060
  12.6075137  77.0956230  18.0899537  77.7184486  79.1740990   3.5167354
  77.3256207  80.0441933   3.5863745  78.0890894  79.1485500   2.6345766
 108.9945602  62.5188255  15.6875622 109.4475651  62.4140549  14.8508763
 109.2901993  63.3681965  16.0152805 108.2284069  37.3420048  57.1971655
 108.2917213  38.2548094  57.4782610 107.5297642  37.3407984  56.5428543
  17.5452840  60.4355335  14.1131115  17.3260629  60.3712893  13.1835711
  16.7028487  60.3706360  14.5629144   0.5629462  40.4650497   8.4735250
   0.4979656  39.8088598   7.7796799  -0.3313751  40.5549622   8.8026714
  71.3512945  21.5683055  34.4024801  70.7676458  21.6817045  33.6523271
  72.0639324  21.0219336  34.0710402  11.4717984  25.4146051   7.7968127
  12.0272839  24.8338223   7.2768515  10.9046054  25.8416343   7.1548080
  81.0667706  13.4230685  94.0650845  81.0787678  12.5632823  93.6445427
  80.1509571  13.6981070  94.0218067   3.1496179  67.6341152  14.8245645
   3.2318074  67.5906706  15.7772386   3.0188900  66.7253780  14.5537508
  12.6605070  55.2008772  18.7716031  12.4232221  54.3035316  19.0054810
  13.4270585  55.3943157  19.3112445 103.2169533  45.8705044   7.2079939
 103.0747414  46.8135881   7.1267742 104.1568947  45.7570028   7.0670891
 106.1403179  63.9696264  30.9104013 105.6617546  63.2161808  30.5646849
 105.5268764  64.3856335  31.5160918 100.5942822  31.1925244   2.4242954
 101.4848232  31.5213871   2.5468642 100.4731083  30.5597043   3.1321692
  33.8168335 107.0017910  92.6686573  34.1117287 107.5274277  93.4122849
  32.8619289 107.0080090  92.7346420  92.3961353  43.4397697  36.3805962
  93.0181026  42.9884100  36.9512606  92.7409458  44.3296671  36.3069010
 112.0802402  53.4946489   0.5531890 111.8951416  53.4894943   1.4923091
 112.9419994  53.9050198   0.4811631 103.6003113  65.8370018  37.8991365
 103.5336018  65.6025696  36.9734883 104.4129181  66.3390684  37.9610991
 100.6534958  20.9229445  38.0050564  99.9663353  20.3919482  37.6024604
 100.5206490  21.7997551  37.6447964 114.0522957  43.5519266  16.7168474
 114.1163158  44.5041275  16.7906439 113.1642056  43.3957577  16.3956928
  84.4452858  75.1493120  44.1282368  84.9956322  74.5040798  43.6843634
  84.2960644  75.8292913  43.4712744  61.5411043  84.9831104  22.4838305
  60.9174252  85.3783894  21.8747258  60.9990454  84.6494961  23.1987476
  78.7063217  19.1311193  18.3349383  79.5966673  19.2550492  18.6638200
  78.8233662  18.8410509  17.4302888  82.4223518  56.9627428  43.7800455
  82.7544022  57.1166229  44.6645212  83.0099964  56.3009930  43.4153605
  23.6990976 107.2119141  85.0745487  22.9661942 106.6584301  84.8048306
  24.3300056 107.1397209  84.3583298 115.6844711  76.0529852  24.7035384
 115.4561520  76.7004061  24.0364981 115.8306122  75.2444553  24.2124629
  32.3654699  66.3547087  15.3984272  32.5908566  67.2777414  15.2824891
  31.4528513  66.2937260  15.1162231 109.3377590  58.5029268  25.4809499
 108.7086773  59.2241478  25.4629111 108.8059616  57.7179146  25.3498888
  93.3707619  65.6582165  37.4839711  94.2105484  65.2799892  37.2233295
  93.4922123  66.6024685  37.3846269   8.1106842  52.8936481  44.3580008
   8.7321663  53.3114815  44.9541616   7.8367144  53.5952520  43.7673044
  73.8363409  53.9813805  20.8183575  74.7263527  54.3011093  20.6704164
  73.9177179  53.3805132  21.5590072  88.4591675 105.3172779  81.8919849
  89.0901184 104.6442318  81.6367435  88.4874630 105.9549522  81.1786938
  13.4191263 106.9110870  83.5229301  14.0060878 106.7955875  84.2701721
  13.2197487 106.0202408  83.2350445  79.3370819  77.0501089  12.6217818
  80.1879025  76.6351938  12.7638257  79.3215036  77.7818775  13.2386303
 108.1046867  44.3097734  23.3088088 107.6502609  45.1246834  23.5224891
 107.4612141  43.7982035  22.8184223 104.0998936  71.8998909  31.5715480
 104.3150234  71.6066217  30.6861424 104.8311138  72.4650002  31.8209648
  68.1809521  59.3454266  21.5256023  67.6665020  59.4360256  22.3277020
  69.0306139  59.7298384  21.7413092  12.1708095  55.0344658  22.8969312
  11.4952445  54.3599749  22.8269053  12.0452189  55.4096699  23.7685299
  44.1438437  32.4290204  66.5515280  44.8901796  32.0782328  66.0655594
  44.0423918  33.3222342  66.2227297  13.2283127  63.3853483  46.3275290
  13.0945551  64.0229368  45.6262255  12.4067366  63.3935928  46.8186283
  62.5151396  85.9123516  94.0365505  61.8974113  86.5736008  94.3486309
  62.0712137  85.5009079  93.2950115  91.1251354  58.6557770  27.4785089
  90.1850319  58.5321522  27.3474979  91.2778473  59.5760822  27.2641659
  99.1351032  68.6629725  46.1408234  98.8034058  69.5173025  45.8645344
  99.1597652  68.7132263  47.0963860  73.8529873  50.4422569  29.8385882
  74.5610762  50.9824610  30.1893330  74.2240763  50.0419950  29.0522575
  82.2458553  38.4739113  31.7954516  82.8602886  39.2072725  31.8252182
  81.5327644  38.7350941  32.3781323 104.8383331  41.5335751  41.0848188
 104.4811821  40.8473206  40.5211401 104.6062565  42.3507595  40.6436968
  89.3048286  67.5139570  32.5840998  89.5619488  68.2613087  32.0441031
  89.6545506  66.7525196  32.1213508  59.0950203  44.3830538  15.4405653
  58.2952833  44.7927523  15.1107264  59.6285343  44.2361164  14.6595371
 102.4210167  73.1565714   3.0170262 102.2808552  72.5949097   2.2547139
 102.7291012  73.9853954   2.6504576  90.0979137  60.2924776  17.6877344
  90.1573753  61.0731030  18.2384777  89.1648960  60.0790882  17.6746440
  67.7285242  71.8914747   2.3283495  67.8445435  72.8405714   2.2837722
  67.6538467  71.7029810   3.2638317 107.9743481 105.2853775  20.2844238
 108.4774685 104.6387196  19.7895098 107.8170395 105.9945774  19.6611083
   8.2708281  11.3422203  18.3081770   8.2978255  10.4851413  18.7335217
   8.1401730  11.9618249  19.0259874  92.0914173  69.0031338   7.2749984
  91.3999271  68.8596344   6.6288739  92.7369595  69.5431232   6.8190211
  22.9845572  40.1614428  63.0756903  23.4229445  39.4963980  62.5448704
  22.7650809  40.8566189  62.4553728 105.7903481  66.6700363  20.8695889
 105.5129051  67.5846386  20.9221554 105.1774406  66.2688541  20.2534509
 103.3988285  92.9680634  71.2440157 104.0912151  92.4157524  71.6070318
 103.8322735  93.4754944  70.5578041  61.6563702  81.1738873  24.6005058
  61.9238520  80.3206539  24.2589164  61.3239717  80.9869003  25.4784465
 104.0286636  80.4525661  81.7597294 104.8357582  80.1229954  81.3644981
 103.7842369  81.2015438  81.2161160  82.3386765  65.7418156  16.1942208
  82.8361607  66.2438393  15.5486834  81.7388344  66.3787651  16.5824401
  57.6243210  10.8653677  94.4882679  57.4803495  10.5007517  95.3615093
  56.9671917  10.4379904  93.9389420  85.1622868 105.9647751  11.2582242
  84.4682121 105.4491138  10.8476377  85.6496620 105.3326893  11.7865813
  74.2232513   2.2347504  73.1976557  75.1703739   2.3075937  73.0798197
  73.8755989   2.1689595  72.3082495  92.0695972  78.4784079  48.4825039
  91.1431789  78.4874487  48.2418680  92.2491074  79.3710899  48.7776709
  84.4107819  53.9702225  17.6772940  84.5232868  53.2233763  17.0892489
  83.7857246  54.5379686  17.2265244  82.2518158  90.0555420  34.5790505
  82.3774052  90.2710152  33.6549139  82.3015594  90.8981895  35.0303721
 109.2366695  68.6467457  59.9444818 108.8540459  69.5218754  59.8813820
 109.8531055  68.7069082  60.6742811  93.4371758  69.1038942  15.9828866
  94.2779160  69.2113018  16.4276791  92.8041077  69.5291185  16.5613759
  84.6260357  88.2993031  53.3145809  85.0086975  88.6893845  54.1004801
  85.1694298  88.6245632  52.5968361  15.7963765 105.8135796  78.5210848
  16.0343361 106.3646317  77.7754688  15.3591144 105.0572109  78.1300163
  74.4881821  56.0692787   7.4103326  73.6401653  56.4927530   7.5436378
  74.6475172  56.1431694   6.4693832  13.2846832 102.6767063  85.7990932
  13.4353554 101.7991734  86.1504745  12.4360991 102.6165676  85.3603268
  68.8275433  48.2241631   7.4618793  68.8420725  48.9730597   8.0578429
  67.9061127  47.9681253   7.4213934  71.8699360  75.0160837  36.7309499
  72.2429514  75.1553535  35.8604932  72.0103073  75.8457422  37.1872282
 105.6855488  75.7766056  34.6008086 106.6018581  75.9892750  34.7779512
 105.3996372  76.4471960  33.9804912 114.7248268  52.2675610  12.3442960
 114.7705269  52.0414877  13.2732916 115.0378323  53.1711483  12.3020053
 102.9334164  94.2834949  31.4239407 103.3587360  93.6197948  31.9669390
 102.4545860  94.8310947  32.0461035  92.7336597  81.4778137  45.9071827
  92.5618458  80.6401253  45.4770899  93.6630726  81.4445591  46.1337280
   4.1749138  72.1247911   0.9912758   4.3295264  72.5252962   1.8468016
   3.3539337  72.5136709   0.6896199  74.5030642  14.2238879  87.2249889
  73.5848570  13.9897168  87.3602295  74.8937464  14.1748977  88.0974483
 113.8548851  71.1098099  17.4294603 113.8296986  71.8976688  17.9724860
 114.6629524  71.1935568  16.9232476  58.6018419   7.2317475  84.9964523
  59.4164944   7.7212423  84.8825741  58.7523937   6.6936451  85.7736397
  86.3762856  76.5089512   4.8461244  85.9904575  76.2601089   4.0062150
  85.7626724  77.1458530   5.2122599  32.9839659   1.5676150  23.4913707
  32.9135251   0.8322327  22.8826976  32.0972633   1.9250202  23.5388327
  94.7040462  40.2852869  33.7798882  94.5335960  39.8087978  32.9674006
  94.0281105  40.9625101  33.8066983  93.4667683  97.7466106  42.5900316
  93.0760670  97.0306015  43.0909443  94.1436386  98.1009007  43.1667137
 110.8793449 105.8314419  28.0045652 110.1336575 105.5835724  27.4579930
 110.5085278 106.4178848  28.6639714  15.1768589  80.5987644   2.9863584
  14.2465758  80.8204651   2.9456973  15.4980719  80.7494640   2.0973447
   9.5443928  95.1058769  37.7781343   9.4430494  94.5848560  38.5746908
  10.1884508  94.6253872  37.2579837  35.1268291 107.9650593  86.4920235
  35.4967117 107.2652435  85.9538078  35.3681850 107.7309704  87.3882294
  81.4890957  94.1859818  52.1377897  81.2285042  93.3375549  51.7793083
  82.4458122  94.1577053  52.1487761 103.3049774  53.3701563   8.3300132
 103.3260632  53.2615185   7.3792315 102.5679970  53.9603519   8.4873611
  69.5193148  47.0064974  14.7067547  68.8468504  47.6257277  14.4228959
  70.3427649  47.3952818  14.4117785  43.2582474   2.7858832  54.4698477
  42.5004339   2.2934446  54.1544819  43.9640474   2.5511158  53.8673878
 101.7940998  79.9338579  41.1835670 102.2699928  79.5393848  40.4527140
 101.5042782  79.1891527  41.7104912  15.0760853   4.7673246  30.0044513
  15.0149536   4.1262251  29.2962956  14.7442579   4.3058455  30.7746196
  95.5966663  78.5821390  26.4523888  94.8962116  78.4182596  25.8209252
  96.4033794  78.4317255  25.9596348  91.8918419  31.5191078  79.7263575
  92.2094536  30.9722996  79.0077782  91.8356228  30.9236431  80.4736805
 113.7297821  84.2111111  32.0951772 113.9443684  83.4321022  31.5820241
 114.4804287  84.3286896  32.6773524  19.6492302   4.4276974  35.1109695
  19.1773951   3.6025983  34.9977684  20.2571654   4.2591393  35.8308554
  14.0239894   3.0921805  39.6668744  13.9785886   4.0208083  39.4392347
  13.3565414   2.9785356  40.3435087  15.1154387  96.1505795  19.0498507
  14.6546233  95.3445911  19.2827904  14.5245802  96.5977097  18.4438896
 105.3736115  85.3883648  44.5128393 104.5701504  85.8749771  44.3287516
 106.0186577  86.0627937  44.7256422 108.3033562  70.9664917  40.1616430
 107.9664707  71.7193604  40.6473684 107.7088833  70.8764839  39.4168448
  23.3007360  80.0421047  45.8377838  22.9510498  80.7291412  46.4051771
  23.9853001  79.6249008  46.3608027 115.8273888  51.6259766   9.6531487
 115.3042412  52.3938131   9.4229621 115.4141140  51.2834120  10.4456675
  65.6372452   0.0581481  20.7126975  64.9707508  -0.1147582  20.0477767
  66.0971212   0.8350067  20.3945160  14.3211710  74.6007538  37.9410124
  15.1364434  74.7158718  37.4528432  13.7275314  74.1789865  37.3197770
  86.6662312  30.3537750  93.8221073  86.0952663  29.9758005  93.1532478
  87.1770191  31.0150504  93.3551502 107.2843838  78.9086866  34.2201304
 106.7150021  79.3635893  33.5995722 107.8567505  78.3725071  33.6713624
  17.8095233  90.0616169  14.6223652  18.6871517  89.9892807  14.9975538
  17.5369740  90.9573174  14.8215342  68.1878138  31.3774419  92.8367805
  68.0780363  31.3799000  91.8859005  68.9921618  30.8797932  92.9837418
  42.2602844   9.4651401  89.7235584  42.8138733  10.2291667  89.8849106
  41.6501665   9.4514078  90.4609776  22.0708251  79.4400692  40.4179144
  22.6863503  78.7575245  40.1505232  21.6323543  79.6981716  39.6071386
  10.2542424  99.3090725  34.8298430  10.1934803  98.6663151  35.5365276
  10.8757472  99.9616814  35.1524353  38.0181170  17.9050457  15.3716826
  37.7271867  18.7773764  15.1059198  38.9427853  17.8757679  15.1259947
  64.6856737  31.9389653  87.9139233  64.4655466  31.2232518  87.3176575
  65.3037405  32.4792719  87.4216843  98.1659317  84.8268700  16.7651236
  97.2626591  84.6107292  16.5335703  98.6935234  84.4171619  16.0795462
  26.0423565  13.4392345  36.4663553  25.6344771  14.3050647  36.4520335
  26.5650749  13.4339559  37.2682118  85.3162384  92.1121216  18.8403821
  85.4856110  92.1072197  19.7824645  85.2612114  93.0399895  18.6117554
  84.9802208  78.4193325  50.0419521  84.4381618  78.4239054  49.2530346
  84.4367313  77.9912996  50.7034969 105.1637268  93.1649780  48.8875341
 104.3812847  92.7192879  49.2121506 104.9296951  93.4459400  48.0029297
 106.8824100  75.9184456  26.7492247 107.7874947  75.6144238  26.6812325
 106.9445419  76.7540073  27.2120476  93.9816952  85.9800911  18.3710194
  94.1430092  85.8287144  19.3023050  93.7869549  86.9153309  18.3105969
  85.2431393  39.1750050  17.8833938  85.0816345  38.2392573  17.7628672
  84.4004536  39.5288086  18.1678832 114.6471500  70.1325035  33.0270004
 115.3600883  70.2686167  33.6510348 115.0388622  69.6120739  32.3256111
 109.5397854  93.5521030  44.8318529 109.8459721  94.4564533  44.8999929
 108.7050819  93.5458946  45.3003263 108.4002876  19.0591216  80.8655071
 109.3525600  18.9808977  80.8080769 108.1629562  19.6345997  80.1383686
  86.5544987   7.7963328  80.5508900  87.0011234   8.5624015  80.9113026
  87.2375965   7.3215616  80.0774002  87.5868130  87.6115131  57.7811623
  87.5672054  87.6757050  56.8263149  87.5035954  88.5158062  58.0837631
  13.3057034  64.1351652  13.1646764  13.6067653  63.2315922  13.0690455
  12.3579085  64.0612841  13.2762957  92.3475742  41.4476061  34.3918681
  92.0716190  40.6020594  34.7456074  92.3823929  42.0260954  35.1536894
  52.5280285  44.8088455  91.6324711  52.5335026  45.7214689  91.3438129
  52.3918819  44.3047190  90.8302498 105.5230331  92.8673077  17.4223781
 105.7928276  93.4801960  16.7384100 106.1460114  92.1437263  17.3549104
  36.4628530  16.3559830   4.7567225  36.7836118  15.7752299   5.4467016
  37.2537088  16.7493677   4.3879062  62.2420168  73.6296940  31.8090105
  62.9761553  73.1681538  32.2142911  62.6272917  74.0783167  31.0563254
  21.2047338  14.4638562  11.2916052  21.9826674  14.9712145  11.0600042
  20.5759501  14.6589124  10.5967546  78.8007212  91.7095375  34.2246151
  78.1933022  92.3060703  34.6621370  78.9924717  91.0393429  34.8805881
  25.1791096  60.0118065  20.9729624  24.7396660  59.1814137  20.7897329
  26.0233021  59.9394131  20.5276203  22.5077772  87.2887611  86.7259693
  21.7762899  87.8034210  86.3849735  23.0743194  87.1461582  85.9677219
   2.0383880  88.8656902  35.3539634   1.3164034  88.2600975  35.1859665
   2.6779491  88.3465481  35.8414865 103.9766788  79.1115522  45.0106287
 103.2056141  79.2099428  45.5692101 103.6436367  78.7006283  44.2128468
  70.4601049  69.7724771  35.7373953  70.8786631  69.6074963  36.5822744
  69.7745705  70.4119873  35.9305358 110.6424427  79.8794603  36.2716484
 110.2491665  80.3708649  36.9928241 110.1387215  80.1409912  35.5008626
  10.1739335  59.2684937   5.9931827   9.4008672  59.6490049   5.5762744
  10.0283825  59.3972015   6.9304556  64.9315119  95.3594017  28.1062794
  64.8324394  94.7323227  27.3899078  65.1223946  94.8190117  28.8729453
  31.8278623 101.6000175  15.4782820  30.9090996 101.8330193  15.6117618
  31.7996740 100.8310604  14.9089503  94.4804382  94.3747902  18.7439871
  94.3999672  95.2983952  18.5058546  95.2582169  94.0732861  18.2745302
   2.3529276  90.2857780  39.4637036   1.5913355  90.8417225  39.2989588
   3.0986741  90.8067703  39.1659427 109.1253853  83.5193920  22.1381068
 109.1963959  84.2645550  22.7346921 108.1978703  83.4878159  21.9036627
 104.1413307  75.4557276  38.6317539 105.0230694  75.8279276  38.6467218
 103.5637379  76.2015533  38.7941051  74.3430901  69.5711374   0.9326614
  74.4873619  70.5050135   1.0852831  75.0736237  69.1402674   1.3764006
  48.3297443  31.5740085  60.9724712  47.6118040  31.3593102  61.5680408
  47.9382133  31.5310502  60.1000643  87.5378227 101.4130974  12.9865360
  88.3732319 101.1331940  13.3606660  86.9775677 100.6392479  13.0458152
   8.9270437  98.4651470  17.1604860   8.7025332  97.5623322  16.9352007
   9.0226853  98.4576511  18.1128669  81.6324234 102.4088764  15.4388261
  81.6566944 101.7578411  14.7375453  80.8474445 102.1905899  15.9412169
   1.6017862  62.7033854  35.7534409   1.3768335  63.6316299  35.6903052
   2.5222951  62.6973295  36.0158491  94.2796612  76.5111971  13.6495566
  94.1236687  77.4183416  13.3869147  94.8522949  76.1595726  12.9678774
   9.3350857  77.0523977  37.3548150   9.3718255  77.7779770  37.9780436
   8.8714129  76.3579512  37.8227782 103.2415771  92.6518345   7.4522519
 103.1897831  92.1945095   6.6129631 102.6354885  93.3872032   7.3621184
  11.9185305  36.3861394  38.9904976  12.6356709  36.2839699  39.6161985
  11.9805169  37.2966313  38.7017179 105.5413723  90.8615494   0.6672970
 105.7963657  90.1147842   0.1254978 105.9684944  91.6129017   0.2558729
 112.2411251  58.3195734  36.3369632 111.4735413  58.1803942  35.7822776
 111.8954754  58.3156776  37.2295690  13.4543574  75.7009649  34.6088433
  12.8709710  76.2198687  35.1625872  13.5675132  74.8783112  35.0849366
 108.0693150  85.2904510  27.2507930 107.9271984  84.4852734  26.7530823
 107.7853870  85.0760174  28.1394053  53.9653540   4.5422444  79.5416689
  53.5038280   4.0368682  80.2108574  54.3390751   5.2841944  80.0171375
   6.0122997   1.8176810  50.3248405   5.7037920   2.3234636  51.0766649
   6.9270444   2.0791221  50.2193785 104.7989750  48.8820314  24.5513701
 103.9207840  48.8543034  24.1715837 104.6509266  48.8865280  25.4970407
  87.9812908  90.6031799  38.1789374  88.2434464  89.9380875  37.5424218
  88.4000492  91.4071465  37.8715277   4.3056741 109.0373802  19.8585355
   3.7651142 109.3583488  19.1367257   5.1271057 108.7738132  19.4437885
 105.4310322  91.1945438  25.1588273 105.6980038  90.7361603  24.3620563
 104.6204853  90.7603455  25.4247618 108.2920170  53.7574625  45.1387072
 109.0159798  53.3277798  44.6832085 107.7112865  54.0549755  44.4383669
  72.7992058  65.8328867  35.4552746  73.1555843  65.2834749  34.7571516
  71.8952370  65.5349207  35.5567074  15.2253175  87.0748425  27.8774595
  14.3035746  87.3274422  27.8244114  15.3321111  86.4133835  27.1938682
  18.2461190  94.1140556  81.6722393  17.7960992  94.9582767  81.7040825
  18.3070409  93.8404465  82.5874710   7.0083255  94.0059280  73.2089567
   7.5819427  94.6188259  73.6689138   6.2743342  94.5429039  72.9103756
 107.0069885  79.2169762   0.3265431 106.8503857  78.3911371   0.7844690
 107.6418972  79.6781301   0.8746885 109.2383194  85.7534504  52.1045351
 109.0748405  86.5755939  51.6423941 109.9458981  85.3381443  51.6114998
  51.3259935   7.4289137  40.6530857  52.0474482   7.1801364  40.0752974
  51.4859438   6.9398028  41.4601898   7.9257888  91.2587833  21.2582111
   8.5004866  91.3568306  20.4990387   7.0600557  91.0958481  20.8837891
  25.1170325 106.1997604  20.4662251  25.6405330 105.8089542  21.1658335
  25.7555223 106.4390755  19.7944450  61.5921831  17.1129322   4.5160729
  62.0371866  17.1318686   5.3633291  61.1002588  16.2918317   4.5222068
  34.4527268  90.5075264  25.9220266  35.4027796  90.4731083  26.0335803
  34.1019845  90.2321911  26.7690206 101.7199707   3.1390795  17.0237243
 100.9711742   2.7133912  16.6062069 102.2240543   3.5041955  16.2965202
  29.3000960 101.6930962  58.3949900  29.0671396 102.5160408  57.9651880
  29.2187285 101.0322952  57.7072716  95.2274704  30.3312707  24.8862410
  94.6939087  30.0345016  24.1490340  94.6042442  30.4398084  25.6046009
  83.9896393  25.3814578  16.6072953  83.7686825  26.1339998  17.1560144
  83.1466770  25.0687885  16.2788498   2.0676830  45.6396103  89.1153049
   2.0011972  44.7197866  88.8589191   2.9721200  45.7407999  89.4119358
  56.3489580  36.8643308  21.1522031  56.9468832  37.6035738  21.0415840
  56.2981606  36.7370486  22.0995426  56.0740232  13.9642704  35.6323671
  56.8975353  14.0165973  35.1472712  55.5897331  14.7461677  35.3671694
   6.6938835  77.0061255  72.0454502   7.6017892  76.7030144  72.0533323
   6.2147993  76.3155746  71.5873528  18.7315869  95.9464645  59.1264486
  18.6734760  96.8675423  58.8725185  19.6125019  95.6804752  58.8628769
  72.8110647 104.5810890  39.6376991  72.5304890 104.7530270  40.5365562
  72.2575665 103.8556099  39.3486452  84.1219044  45.2346563  28.4721255
  84.0697575  44.5067978  29.0915871  83.6468220  45.9473467  28.8994384
  47.8973818  90.5195045  10.7479203  47.7783775  89.5701790  10.7771015
  48.2330513  90.7455921  11.6153550  83.0625534   2.7210984  14.5652592
  82.9609108   2.8390038  13.6208022  82.7042484   3.5226032  14.9466217
   1.1930753  54.5270586  71.6996574   1.0405173  54.1239595  72.5543308
   0.7033464  53.9796829  71.0858345  51.8086290 105.9713840   4.6155304
  52.2718811 106.7469120   4.2990133  50.8897400 106.1393738   4.4065961
  93.2865906  36.1460543  11.8214881  94.1324520  36.0070705  12.2474408
  93.3420372  35.6430125  11.0090196 110.9036922  13.3360982  83.1528950
 110.4486275  13.6928010  82.3900700 111.5883064  13.9769936  83.3447170
  12.9387677  33.9723420  87.5505352  12.0091045  34.1758966  87.6531219
  13.3810818  34.5551276  88.1677532 113.6331367  75.0760937  85.4083633
 113.6558628  76.0011959  85.6531143 114.4721222  74.9226141  84.9738789
  45.6855392  96.5065670   4.8038521  45.7248592  97.4299717   5.0528830
  45.8131123  96.0314178   5.6249422   8.9788830  71.4131355  77.2310257
   9.7108817  70.8939838  76.8980265   8.2107246  71.0590839  76.7829037
  39.6289229  20.9164762   4.0869111  38.9461350  21.2261081   4.6820256
  40.2774620  21.6204453   4.0794882  30.8767605  82.7079201  93.1998253
  31.3428259  82.2500801  93.8993931  31.4639902  82.6543427  92.4458218
 105.6283188  71.6988802  91.3021278 105.5041885  72.6395321  91.1756420
 106.5766144  71.5898800  91.3734341  88.9693928  24.1844392  15.6406200
  88.6918259  23.6817002  16.4064169  89.9255753  24.1789746  15.6842244
  73.8691616   1.6162650  16.0635889  73.9777517   1.8761402  15.1487637
  74.5346594   2.1169810  16.5354288  43.3546972  65.7557154   6.2016517
  44.0221500  65.3398609   6.7473686  43.7234879  66.6114140   5.9825516
  33.9463091  75.5752373  11.5443170  33.8525558  75.2654886  12.4451482
  34.8362327  75.9253025  11.5028036 100.2427101  29.4701171  18.7412095
 100.5071735  28.7717342  18.1424177  99.3563747  29.2306399  19.0119255
 109.7808933  84.2426395  83.5262203 110.2765369  84.1956902  82.7086830
 109.9645519  85.1177788  83.8677406  23.9426279  69.6296167  90.9670448
  24.5170951  70.2487326  90.5165863  23.1315684  70.1169968  91.1115170
  97.0879173  20.6807590  43.9069843  96.3133717  20.3403568  43.4592962
  96.7411518  21.1280036  44.6789646   5.5101132  56.8176556  75.6734371
   6.0396451  56.4390373  74.9716711   5.3122443  57.7044678  75.3723717
  29.6362042  54.4378185  86.6222000  28.8357854  54.9304008  86.8036366
  29.8877645  54.7066164  85.7386303   9.3247515  36.4476299  62.3508310
   9.2594308  37.3851848  62.5323629  10.0944710  36.3657475  61.7877531
  39.9112749  28.1460977  36.6298294  39.0053105  28.0280519  36.9153595
  39.8703098  28.8579416  35.9912133  90.1512432  46.7579842   3.2864833
  89.8556614  47.6539326   3.4481549  91.1050606  46.8049908   3.3517089
   8.7591845  39.3966031  92.9230785   8.7245047  40.3531742  92.9214764
   8.2218987  39.1387153  93.6721134 104.4452858   0.0922004  39.9440098
 104.6503639   0.8376703  39.3796945 103.6925030   0.3818917  40.4593992
 104.9153900  77.7204943  84.3410301 105.7779789  77.8796864  83.9578438
 105.0223923  76.9138241  84.8450756  95.6013489   3.9900723  15.6357801
  95.3692818   3.6777937  16.5103400  96.3794136   3.4849617  15.3997457
  67.1447182  14.1428614  39.7224474  66.8318415  13.8163579  40.5660915
  66.3766861  14.1076910  39.1522527  80.9383392  37.4912786  25.8970404
  80.3069401  37.1993351  26.5545678  81.3646030  36.6871142  25.6006455
  95.0556469  80.0944424  80.8335590  95.8982468  80.0598335  81.2863922
  95.1096153  79.4028664  80.1739883  73.5578012  87.9778290  77.3794937
  73.7653732  87.4061680  78.1186485  72.6599121  87.7460289  77.1422052
  72.6523256  11.7401469  29.2433262  72.3452806  11.4959097  30.1164246
  73.1012392  10.9589744  28.9200926  76.0663891   8.4702259  68.5542250
  76.2407255   9.0356445  69.3066502  75.3674698   7.8868377  68.8498640
  49.7451973  22.5193095  20.0205469  50.1645374  22.5676870  20.8796453
  48.8257217  22.7236176  20.1909924  10.7040620  98.2183838  92.4797916
  11.5677381  98.4476280  92.8229237  10.2830529  99.0607929  92.3085308
  97.4719429   1.7592980   6.2263739  98.1376553   2.1166882   6.8140274
  97.1754837   0.9585851   6.6590440  43.2210779  99.6448040  23.0554676
  43.3882332  98.7580872  23.3749032  43.3847046 100.2069855  23.8126993
  94.0768528  25.9549117  37.3917913  93.4520721  26.6304803  37.1281791
  94.8731995  26.4380717  37.6122856 109.5119762  21.4907026  11.0478806
 109.2750835  21.6577768  11.9601309 108.9080238  22.0328975  10.5404341
 114.7795105  81.8718624  83.6098862 114.5189285  82.7906227  83.6747551
 115.5193996  81.7897034  84.2115974  63.9553261  32.1429467  32.7989006
  64.3035889  32.6747203  32.0832491  63.1815958  31.7189574  32.4276781
  75.2003002  12.9274631  22.3119807  75.1856756  13.6519980  22.9373336
  75.8668184  13.1769729  21.6718745  79.8996735  39.7390127  14.8029339
  79.8807192  38.8342404  14.4910741  79.6322441  39.6818280  15.7202363
  78.4555817  73.1003094  89.6172905  78.7915134  73.5939932  88.8691902
  78.2262754  72.2441673  89.2558002  82.2863293  15.6967819  35.4010153
  83.1660843  15.8169746  35.7585216  81.7780399  15.3412819  36.1300540
  10.6807494  54.9702024  79.2005444  11.0691643  55.6743288  78.6813402
  11.4006412  54.3571043  79.3491936  79.1415596  42.2053576  24.2583275
  79.4291162  41.3251972  24.5009327  79.9392366  42.6455021  23.9646912
  45.2811193  16.3184702  36.7880917  45.8058596  15.5958855  36.4434910
  44.4928026  15.8989203  37.1327281  97.7779865  40.1699591  10.0394738
  97.0270634  39.6855545   9.6964037  97.7346325  40.0395632  10.9867585
  65.8896208  94.0062809  43.6596489  66.6915989  93.8024902  44.1408253
  65.9733915  94.9332428  43.4361696  91.4270592  22.2496271  37.1284294
  92.3542976  22.4410701  37.2691774  91.4179802  21.3653445  36.7621064
  99.0723610  16.3289738  16.3155794  99.3600368  16.7541933  15.5077028
  98.2830620  15.8486700  16.0655010  79.6609926  44.3636894  41.6141987
  80.2979088  43.7292337  41.9428825  78.9621544  43.8285971  41.2379837
  85.1644039  26.9174457  53.6957121  84.6031189  26.1880517  53.4327030
  86.0437012  26.5411735  53.7343979  39.4690847  35.1904559  22.9409623
  40.0918818  35.1487684  23.6666465  39.6222782  36.0473251  22.5427914
  48.9197302  99.7185516   8.4046996  49.1390228 100.5369091   7.9592365
  48.8304996  99.9636459   9.3256783 100.3106976  21.9626570  24.5236850
 100.7117271  22.3963857  23.7704968 100.9823990  21.3568640  24.8368549
  71.3772964  40.3071737  22.5118279  71.0226107  39.5858693  23.0315852
  71.8914413  40.8209801  23.1346369 107.1276855  64.1540384  76.1503649
 106.5962124  64.9501324  76.1489773 106.7122364  63.5875607  75.5001879
  72.8209448  10.7228065  39.2901611  72.6825333  11.5916526  38.9130950
  72.1513414  10.1746881  38.8809824  54.6518803  74.7535324  88.7933826
  54.0644169  74.0314722  88.5703468  55.4358053  74.3265247  89.1388702
  39.2247701  97.4542046   2.5165558  39.2856193  96.6974163   1.9336370
  39.1543150  97.0762730   3.3931604 111.8846893  82.5447369  82.2256088
 112.4816322  83.2916451  82.2706413 112.3824596  81.8174458  82.5991058
  54.1114664  18.9689231  23.5686183  54.3443823  18.5169852  24.3796277
  54.2904663  18.3301544  22.8785706  85.9784031  51.3532162  29.9021387
  86.4567852  52.0600224  29.4687772  86.1765385  51.4648342  30.8319330
  90.8084297  37.6262927  25.8652472  91.2708378  38.4057570  26.1732221
  90.0102901  37.9656720  25.4602528  64.3971825  44.6650505  29.5185971
  65.0079346  45.1436472  30.0790930  64.4137430  45.1387787  28.6870098
  74.9651003  30.5579424  26.4033842  74.8310471  29.6133041  26.4803433
  75.8673191  30.6960988  26.6917324  61.9324064  29.5337033  38.2702923
  61.7395306  30.1544118  37.5676179  61.5101480  29.9082828  39.0433526
 114.8300457 101.5692616  51.7665005 114.0164948 102.0733356  51.7500401
 114.6957016 100.8765125  51.1197472  74.1829062   4.7597486  32.0165825
  74.1948557   3.8092306  31.9043112  73.3698511   5.0403374  31.5965247
  89.5495605  30.8606529  35.3839636  89.1178894  30.8457375  36.2381673
  89.4806099  31.7710972  35.0966215 109.7017002  60.3914833  81.1165333
 110.2031136  59.6085119  80.8889961 110.0567055  60.6659317  81.9620323
  46.3350010  35.3545070  10.3479207  45.7442522  35.2121353  11.0874999
  46.1118364  34.6616721   9.7263032 114.0163517  36.2294221  85.1482677
 114.5055866  35.5216622  84.7287941 114.6799469  36.7319775  85.6208229
  30.7603478 106.3752079  92.8956890  29.9904156 106.6977215  92.4272633
  30.8762193 105.4796982  92.5780964  98.5781288  56.9098282  24.7624898
  97.7534866  57.3123932  24.4902277  99.2409801  57.5765610  24.5826936
  85.8742332  26.2294769  36.6156554  85.2099419  26.6369128  36.0598230
  85.3947258  25.9478545  37.3947549  71.5771151  65.0435972  24.1119862
  72.2101021  65.6068325  24.5573235  71.9952059  64.1827679  24.0916491
  68.2837009  31.5368247  15.6069648  69.1247702  31.3231373  16.0109043
  67.6679134  31.5698504  16.3390493 112.3408222  95.3161716  84.0779114
 111.7766762  95.4229259  83.3120251 112.5943661  96.2082481  84.3148327
  93.9665413  60.0499487  11.5594900  93.7971687  59.6821213  12.4268126
  93.9911461  59.2902040  10.9777594  18.2831109 107.7838230  89.5848465
  17.5974035 107.3411751  90.0849533  18.7098169 107.0833111  89.0914536
 112.3382378  45.4426479  22.0624948 111.8408966  45.7578850  22.8171515
 112.6355934  46.2388039  21.6220951  31.3835001  81.3293648  81.2291050
  31.1357641  81.8610001  81.9855595  31.5603328  81.9659901  80.5365276
  96.4123821  23.9522219  15.2814257  96.5798187  23.9480710  14.3389916
  96.2600040  23.0332518  15.5016661  73.3614445 108.6188793  63.4318542
  72.8571606 108.4258842  62.6414824  74.2081642 108.9250183  63.1069279
 102.3530769  31.0291910  15.9094989 101.9932461  30.1426888  15.9389424
 102.9321384  31.0274458  15.1473212  17.5224972  77.8954506  72.4844170
  18.3343935  77.3935938  72.4123335  17.7847803  78.7169123  72.8999186
  14.3501782  64.0674400  91.9258213  14.1845500  64.8938942  91.4721966
  13.9053357  63.4083843  91.3929176   0.7448281  29.9259734  12.5434315
   0.0377136  29.3194628  12.3235095   0.2985523  30.7411623  12.7726376
   4.2197260  70.3293133  77.6268911   4.2612514  70.3894901  78.5812950
   3.4873551  69.7371864  77.4558783  85.2409935  35.7987380  44.9306583
  85.4173756  36.5089393  45.5476952  84.6744919  36.1928964  44.2673731
  97.8955841  52.9963923  91.2009525  96.9543171  52.9170704  91.3557529
  97.9768181  53.7274885  90.5884838  66.9608879  11.3794816  36.6877246
  66.6113329  11.5178394  35.8074427  66.1881304  11.3623869  37.2523355
  76.0123920  19.8576236  42.2281361  76.0142899  19.0636027  41.6935682
  75.9140301  19.5414758  43.1262493 104.6596813  39.0187335  13.4177709
 105.1416397  39.1710615  12.6049101 104.9134445  38.1352305  13.6847103
  56.8188524 103.5734940  24.8139548  56.2175035 103.0626202  24.2720866
  56.4160013 104.4401741  24.8670101   0.7675798  90.7947540  76.2901068
   1.0901310  91.5153694  75.7489061   1.3086209  90.8269691  77.0790768
  78.6702633  38.0696130  11.3166714  77.7273941  38.0020833  11.1660838
  78.8324356  39.0090680  11.4024162  99.7659969  81.8021202  89.2928696
 100.3092194  81.2377739  89.8430061  99.5637226  81.2661362  88.5260391
  93.8394833  55.3784752  11.7497134  93.6966801  55.8090639  12.5925839
  94.0252209  54.4668674  11.9748878   4.9004203  36.0726905   2.8633386
   5.2031565  35.6261110   3.6540022   4.7000661  36.9627929   3.1528366
 103.3628559  23.8704634  24.5751214 102.6836491  23.6251760  23.9468312
 103.2325745  24.8084331  24.7146630  17.8802824  72.4313116  61.6439819
  17.2898114  71.6894579  61.5127230  18.7462759  72.0907545  61.4196920
  29.1215348   0.9081081  88.2861996  29.2773962   0.4643761  87.4525070
  29.5272613   0.3388151  88.9400482  76.2507725  80.9938526  56.8554688
  76.8797874  80.2947426  56.6770601  76.3800192  81.2019348  57.7807951
  69.7346830  74.2508364  90.9487820  69.0651035  73.5668087  90.9465408
  69.6173811  74.7035646  90.1136112   5.2981067  99.6710491  92.9818058
   5.0709814 100.5906868  93.1193447   4.5863402  99.1838932  93.3968830
  83.4978962   6.7731285   1.8559767  82.5824642   7.0116442   2.0019871
  83.9136600   7.5851226   1.5660866  31.3954735  90.5395222  91.4447975
  30.8357477  90.3210354  90.6996727  30.8536673  91.1070442  91.9930649
  41.2376261 103.7378311  30.7595134  41.8678141 103.7850475  30.0405788
  41.6557074 103.1709194  31.4076352 114.0837955  65.1035929  84.0300179
 114.6576214  65.2854061  83.2857800 113.6801052  64.2612267  83.8210201
  53.8704681  80.2788067  90.4057980  53.4389687  79.9354935  89.6233845
  53.1770468  80.7378387  90.8798218   5.4364860  80.9626770  84.5595837
   6.2547010  81.2920189  84.9314594   5.6330240  80.0596142  84.3104267
 106.9814301  59.8224258  38.2058644 106.6083145  59.1103458  37.6862836
 107.4703503  60.3493929  37.5738049  10.8816230 108.3591938  87.4378204
  11.7083192 108.7932587  87.6485157  10.8459806 108.3632183  86.4812851
  17.5610209 101.4865589  11.6987944  17.4462199 100.5600834  11.9102299
  17.1337211 101.9511795  12.4183595  92.4915791  20.9953690  10.2973223
  92.8786373  20.2247667  10.7127595  92.0776558  21.4726424  11.0164237
  87.0036316  50.9156036   6.6804498  86.2819958  50.9570789   6.0529518
  87.1008301  51.8149424   6.9934618  35.8196592  67.1267748  78.7181091
  34.9804354  66.7137671  78.5147476  36.3999009  66.3966656  78.9337301
  74.4244194   9.3761563   9.8639005  75.3682899   9.2695504   9.9821049
  74.0491056   9.1461802  10.7138896 106.6145992  75.1420689  74.3049383
 107.5073814  74.9703121  74.6043682 106.5282059  76.0945940  74.3432283
 100.9493828  36.3474226  42.4971771 100.9842205  36.5228391  41.5568304
 101.8436146  36.0949469  42.7270126   2.7603838  26.2108183  25.3663969
   2.6943746  25.3873992  25.8499813   2.0406377  26.7446017  25.7029581
  77.3287868  30.6586671  44.4119215  77.9536629  30.2706504  45.0244617
  77.0854664  29.9387908  43.8298512  93.2300854  11.4797330  22.8375268
  93.4617519  11.3461590  23.7566137  94.0694141  11.4856446  22.3773813
  63.3384514   7.2376877  44.6152163  62.5735426   7.0455551  45.1576519
  63.1201267   8.0595726  44.1758156 109.7806549  40.3348112  82.8978443
 109.9180794  39.4008541  83.0561829 110.4384804  40.5658960  82.2420311
  69.2164135   1.2557660   1.0298593  69.3140793   2.0660192   1.5300430
  68.4710693   1.4193781   0.4520012  51.4012718  35.0567245  11.3235569
  50.4777765  35.0679684  11.0720503  51.7762709  34.3302774  10.8256805
  99.7176170  88.2839298  81.5336323 100.1508045  88.1470966  82.3761559
 100.4294968  88.4962368  80.9299850   8.5293001  62.6619005  80.5716133
   8.9342135  63.5091114  80.3858471   8.2127905  62.7399015  81.4715958
 115.1558590  61.5521669  46.5720034 116.0413361  61.5868282  46.9339037
 114.9301434  60.6219912  46.5798712  94.2374325  36.2723994  30.2463889
  93.9804840  37.0072937  29.6894860  95.0458813  35.9445810  29.8524666
   0.2609054  85.1574898  65.8746719   0.5434982  84.3865585  66.3666344
  -0.6810232  85.2124596  66.0358572 105.8798981  53.8476849  42.1470356
 105.6971645  54.0058708  41.2208509 105.7642078  52.9037952  42.2561884
   2.3193447  60.7605076  83.4392548   1.3915342  60.5365515  83.3668518
   2.3901765  61.2202740  84.2758179  56.1353970  22.1317148  31.7502761
  55.7132912  22.9667377  31.9522548  55.7229710  21.5049124  32.3446298
  83.0630684  28.1736207   4.6812424  82.4390221  28.8459063   4.9547929
  82.5164986  27.4461436   4.3841365 104.1291046  64.9898767  94.6564770
 104.0227222  64.9356794  93.7067509 103.3559990  65.4674578  94.9572182
 112.4369526  28.3628392  26.4835024 112.2685146  29.1697431  25.9969163
 112.1664047  27.6634836  25.8885765  81.3335419  62.1035290  38.7904644
  81.9538307  61.7261362  38.1667280  81.1973000  62.9989386  38.4807682
   8.4131086  18.7634838   8.4379601   7.4686176  18.7763596   8.2830328
   8.7995040  18.7642348   7.5622147   3.4364516  66.7183065  74.4860077
   4.0161783  67.2795916  73.9711142   2.5604409  66.9048738  74.1483212
  37.1884537 106.1119747  76.9364214  37.1680903 105.3720379  77.5433064
  36.3045788 106.1460876  76.5705872  97.0245838  20.8453870  27.9594827
  97.6247311  20.1016903  27.9049516  96.3420868  20.6499743  27.3174286
  56.2263918  23.6688876  24.4366717  55.5527782  22.9895663  24.4683075
  55.9086180  24.3491268  25.0304103  16.5754294  75.2954674  36.7065930
  16.7399311  75.4406404  35.7748771  17.4438035  75.1554632  37.0841599
  82.4119091  30.5664062   0.9811360  81.9364643  31.3559151   1.2396987
  83.1626987  30.5339861   1.5740147   8.5656583  95.5434990  67.0257902
   9.4411075  95.1567078  67.0110941   8.3945847  95.7138252  67.9520512
  44.0579796  54.5220518   4.6266291  43.7634134  54.8835945   3.7907159
  44.5035601  53.7080812   4.3918219  94.2243481  48.4746265  25.6867361
  94.8734665  48.9861441  26.1696768  94.2916489  47.5935650  26.0547566
  86.1666775  29.9577570  11.8857789  86.2623310  29.3520308  12.6207459
  85.4339314  29.6066022  11.3798082  95.5349255  10.5516303   9.5973855
  96.0859585   9.8695266   9.9812108  94.8911762  10.0735390   9.0746456
 103.0743122  66.3842773  44.4303846 103.6627007  65.6360912  44.5316315
 103.1386089  66.8538046  45.2620363  75.0347805  31.3560653  23.6980367
  75.7615757  31.9634628  23.5599637  75.2643728  30.8861232  24.4997048
 102.5593758  94.5117092  77.7951908 102.0500755  95.0606728  78.3914185
 103.4141731  94.4281673  78.2177639  95.4065800  11.9707680  51.5885496
  95.0607491  11.4185560  50.8873463  94.9254131  11.6961169  52.3691130
  54.3995380  82.5010204   5.1945281  55.2066898  82.9964924   5.3332543
  53.7003040  83.1133080   5.4234409 106.4991188  18.4468627  19.9275887
 106.1485672  17.8214645  20.5617952 106.5596771  19.2704082  20.4116750
  69.7408962  41.2392569  33.6305857  70.1506376  40.4219294  33.9139915
  69.0357637  41.3849545  34.2612958  79.5937920  17.6366556  32.6229906
  79.1974926  17.8892827  31.7891097  79.6951771  16.6867983  32.5619769
  89.2538357  37.1302843  46.5487385  89.6419621  37.9351449  46.2055349
  88.8206005  36.7323685  45.7936239   6.8817925  83.1448746  87.1490097
   7.3714119  82.7263355  86.4409637   7.2447395  82.7642536  87.9487705
  32.0262933  58.0284595  76.8974018  32.2322607  57.0996284  77.0026922
  32.7993560  58.4844303  77.2301149  81.0261345  50.3700829  15.5914080
  80.1221275  50.2716255  15.2925587  80.9654808  50.3561926  16.5465832
  89.0775490  33.8125682   2.5909984  89.8299313  33.2629633   2.3717055
  88.4046268  33.5608721   1.9585022  93.0556107  11.2079608  15.9894323
  93.4471130  11.5415084  15.1821470  92.1696949  10.9483278  15.7365191
  70.7545090  60.3467798  20.5092573  71.0962200  60.9932089  21.1269927
  70.4555464  60.8645153  19.7617233  80.0846100  28.1173277  15.2306831
  79.5363903  27.6302457  15.8458579  79.8262310  27.7904391  14.3689299
  95.8064747  74.6937943  91.1712170  95.6911755  74.8653316  92.1058369
  96.5617943  75.2260637  90.9214020 108.2505417  30.1927519   0.4144839
 107.9440880  29.6225357  -0.2906196 108.4246159  31.0308886  -0.0138310
  80.7271004  60.3872919  25.6228542  81.1451626  61.1839437  25.9496522
  80.3718662  59.9650764  26.4050150  96.1779976 101.8818855  15.7156813
  97.0127773 101.9610596  16.1773264  95.6700897 101.2654781  16.2432253
  16.9566202  62.2714949  83.6665344  16.6173279  62.8443003  84.3542862
  16.4325309  62.4870539  82.8951073 104.5828438  96.3426018  89.0208912
 105.3242302  95.7816887  88.7929535 104.9481010  96.9882774  89.6258068
  41.3375330  67.1671057  71.1319160  42.1485329  66.6613293  71.0798788
  40.6804180  66.5364265  71.4263296  90.1917076  29.9278712  27.0981884
  89.7516060  30.0404906  26.2556553  90.3798103  28.9905953  27.1467566
 102.9377460  62.8708744  10.5056000 103.6316872  62.2183180  10.4114962
 102.1421814  62.4160671  10.2290952  17.9282725  68.4102154  79.7744894
  18.1299973  68.6736870  80.6723309  18.7607288  68.0915689  79.4256163
  52.6298237  12.6750290  12.9108751  53.1510258  13.4567249  13.0939794
  52.8061008  12.0913625  13.6487722  38.6119413  20.0347185  26.9509172
  38.0345535  20.7158494  26.6060758  39.4520307  20.1920819  26.5199637
 104.8916721  70.0422049   8.2838970 104.5967197  70.9513187   8.2314485
 105.7752800  70.0554848   7.9160869  57.4697876  99.8587799   8.3881873
  57.4138021  98.9052010   8.4497118  58.2698011 100.0199509   7.8879541
  15.1196229  60.7555342  78.5162163  15.4450154  61.6541100  78.4622622
  14.8705733  60.6456852  79.4338989  80.9998226  59.0938997  48.7502337
  80.8542061  59.8556995  49.3111992  81.7164326  58.6195374  49.1717625
  83.0975533  72.8062010  74.5363855  82.4112797  72.4170065  73.9943600
  83.6767483  73.2433271  73.9121437  60.0342035  55.3259039   2.1944392
  59.2566633  54.8119116   1.9765387  59.6917820  56.1843824   2.4434309
  67.7901649  12.6457739  76.1648226  68.0867958  13.3814251  75.6290436
  67.1700478  12.1772528  75.6060982  82.5413990  14.7702348  47.5918436
  81.9758606  15.5400741  47.6530504  83.3364391  15.0189984  48.0632925
  52.7104998   2.0606570  89.0725231  53.5645485   2.3782542  89.3657303
  52.3079538   2.8163445  88.6445999 110.2677631  76.7323589  88.7113190
 110.8815765  76.1959076  88.2096386 110.0242519  76.1837721  89.4569683
 100.4780865  28.3142781  34.2102385 100.2603436  27.5094056  33.7401295
 100.8677483  28.8820386  33.5453725 108.1290340  44.7815895  90.6558704
 108.1690502  45.7336235  90.5649376 108.4035015  44.6153784  91.5576839
  88.1039143  97.9769707  77.6768541  87.8351116  97.0754147  77.5002909
  88.1170082  98.0403328  78.6318684  99.7531605  16.7260766  56.8704844
  98.8073826  16.8277538  56.7637157  99.8980427  15.7806110  56.8339348
  33.2840562  30.5380201   4.4509211  33.9953136  30.7103848   5.0678772
  33.5474873  30.9900236   3.6493433  79.8479795  33.8243222  21.2702537
  79.5788097  34.0417194  22.1627331  79.8609209  32.8674150  21.2503695
  57.2224855  41.4873457   4.0092340  57.0966148  41.7820549   4.9111956
  58.1503773  41.6434813   3.8335279  83.6636162  21.4921045  13.1675506
  83.6334610  22.3245263  12.6959610  83.9138222  21.7313313  14.0599644
  54.8384571  16.3535368  35.2291608  55.7829142  16.5019655  35.1822805
  54.4918251  16.7644334  34.4371748 113.8544655  25.3203821   4.4589841
 114.1774178  24.8902893   3.6671785 113.1697941  24.7369528   4.7861776
   2.8547895 108.6327076  91.3163853   3.7112594 108.5527134  91.7362595
   2.3297730 107.9348946  91.7083645  64.8266172  49.7032118   3.0474237
  64.4678736  49.2111444   2.3089075  64.9994326  49.0400982   3.7157387
   2.7545628  94.7264862  90.6778622   2.6572230  94.0789700  89.9796581
   3.5038665  94.4183064  91.1875629   4.8096529  45.4313517  15.8970070
   4.3428978  46.0970211  15.3917778   4.2507225  44.6559906  15.8455670
  36.5080190  82.9337978  62.4257374  36.2553382  82.0584297  62.1322918
  35.6787515  83.4008121  62.5279236 114.8844910  39.2814970  12.7115679
 114.6719551  40.2034903  12.5667024 115.4120922  39.0350914  11.9518614
  94.3467045  56.2262535  29.6728897  94.1026020  57.0106888  29.1816640
  94.6943665  56.5600634  30.4998946  70.2817774  43.9647007  20.7525778
  70.4146957  43.0849504  20.3995943  70.9200001  44.0369701  21.4622831
 103.7945557  93.2646656  89.5061493 103.6445999  93.1080341  88.5738277
 103.7524319  94.2164230  89.5989323 113.7666321  39.8124480  10.1188910
 112.9902649  39.5624661  10.6198943 113.7559891  40.7695818  10.1223779
   5.0787705  66.1604834   8.8567251   5.6500465  65.8934593   9.5768458
   4.2399409  66.3535976   9.2754173  88.1005001  39.3476343  55.1216173
  88.7891674  38.8018155  55.5011606  87.9714775  40.0489283  55.7601881
  59.0630007  30.4880095   7.3635966  58.3842897  31.1270237   7.1462297
  58.9417934  30.3182769   8.2977974   5.0474983 100.7222843  64.8040867
   5.1400369 101.2279320  65.6115484   4.5410082  99.9516869  65.0607634
  50.6141472  75.4119778  78.0414915  51.3361311  75.1334095  78.6048508
  50.6029081  74.7700596  77.3315287  24.1278028  58.2338858  32.7948380
  23.8465285  57.3458290  32.5746727  25.0521779  58.1420183  33.0257583
  64.7055054   5.6577802  91.0846138  64.8284531   6.0079306  91.9669437
  65.3923225   4.9976614  90.9910393 100.9814358  59.2076874   8.0994809
 100.7194614  58.4002018   7.6572543 100.1634789  59.5712900   8.4385562
 111.7710495  12.4343765   0.8045526 112.1983337  12.1260381   1.6036676
 111.6130543  13.3653355   0.9613481   6.0088104  41.1528301  44.1244268
   6.6593516  41.4560747  44.7577286   5.3047413  41.7992353  44.1761303
  90.9584808  64.7812366  22.2972131  90.5394840  65.2118826  21.5520835
  90.2689552  64.7221899  22.9584956  26.3803077 108.1422234  76.1782122
  25.5787277 108.0624580  76.6952610  26.3495350 107.4014378  75.5728102
 106.3613987  60.9119081  12.8304541 106.5402222  61.8099403  13.1093752
 107.1921730  60.4528046  12.9540026  18.2045305  99.3776035  59.9958611
  18.9163017  98.9862728  60.5022955  18.5670447 100.2015209  59.6703243
  25.1070690  87.0481300  70.5372906  24.9454975  87.9915714  70.5444288
  25.9760213  86.9509983  70.9268045  72.3063278  41.3469553  20.1636100
  72.5746727  40.8151436  19.4143438  71.9656515  40.7146645  20.7963657
   5.9946382  28.3009148  39.8137641   5.0643247  28.1925726  39.6162510
   6.1656243  29.2299986  39.6595049 110.9826660  95.0585461  81.7826939
 111.0773373  94.1121674  81.6748524 110.8458900  95.3883171  80.8945560
  99.1446209  29.0366626  11.4287961  98.5082722  29.1454864  12.1355128
  99.9174881  29.5165992  11.7264020  32.0478535  85.7380772  81.2286854
  32.4038339  86.5710354  80.9193420  32.1301484  85.1491165  80.4786301
  78.0503750  51.4261007   5.1358628  77.6533842  50.7244301   4.6198276
  77.7250767  51.2832117   6.0246807  71.3901663  65.4918051  16.3049686
  71.0616922  64.6970701  16.7253685  70.6367874  65.8390236  15.8273768
 106.6718006   8.5983658  57.6537943 107.5117779   8.9559954  57.3660946
 106.9041157   7.8244168  58.1668854  23.3733034  82.1397972  63.1360865
  22.7182937  81.4523983  63.0149317  23.8493276  81.8806648  63.9250612
  64.7925615  53.6105442  22.8847528  65.5642986  53.0555582  22.9971910
  65.0349379  54.4428873  23.2905698  97.5880337  48.8578939  25.1352882
  97.4160480  48.5751057  24.2371321  96.7349720  49.1405010  25.4649138
 105.3849220  59.3382835  15.9601176 106.1913395  58.9167070  15.6631553
 104.6887302  58.7374115  15.6946027   9.1807854  85.5430889  56.9719744
   9.8428965  86.0234356  57.4690676   8.4034765  85.5594349  57.5303268
  88.7497330  50.9299994  32.5458789  89.5854855  50.8603239  32.0844817
  88.2565498  51.5840340  32.0506597 101.2541485  55.1697254   8.0901259
 101.0769463  55.4772997   8.9790732 100.6808567  55.6983471   7.5350380
  49.3545055   6.0637552  87.7158546  49.5773411   6.9446659  88.0168152
  48.5013151   6.1635959  87.2935581   8.8759261  99.2137051  69.0700388
   8.5145706  98.5381889  69.6439075   9.4943023  99.6917248  69.6226120
  17.6580632  75.5696774  80.3247070  18.3099329  75.3649950  79.6543360
  16.9377565  74.9636030  80.1513290  50.1443577  15.3114700  89.0194225
  49.8289633  14.8898375  88.2200527  50.6467247  16.0653591  88.7103653
  61.3507748   5.3538865  92.6624584  61.5361834   6.1592394  93.1454277
  62.2059441   4.9380773  92.5528336  43.3703709  72.2901773  84.7597408
  42.8782415  72.8681517  85.3428173  44.0687180  71.9340181  85.3090096
  83.5808086  44.3947124  21.4955854  84.4680405  44.0424776  21.4250088
  83.1291103  44.0633392  20.7194424  44.7262716 104.4595528  82.1709633
  44.4883776 104.0684605  83.0116081  45.6022549 104.1197872  81.9880772
 110.7539940  19.6185660  24.4619465 109.8108673  19.5413339  24.3177700
 110.8812523  19.3400085  25.3688335  14.7695625  98.1874943  88.7149620
  14.5841181  99.0876579  88.4474945  14.5492268  98.1641102  89.6461678
  74.6890402  11.6402984  85.8616543  74.6990204  12.4802947  86.3204956
  75.3520584  11.7331874  85.1775455 105.0794601  62.6144695  90.7777977
 106.0295677  62.6872206  90.8685493 104.9021530  62.8977346  89.8808289
  87.1394062  43.0718660  11.0805380  86.3078880  43.4348392  10.7754791
  87.7046967  43.8351202  11.1993647   9.2499465  91.5573311  67.7449656
   9.3765086  92.0046234  66.9082212   8.3551723  91.7794800  68.0023766
 104.5941353  83.7364769  40.3416824 104.7909546  82.7997303  40.3417015
 103.8669491  83.8284206  39.7260666  14.5191967  82.6186562  93.2494926
  14.4454718  82.2564983  94.1324615  14.1634572  81.9362736  92.6802540
  73.2672691  47.2423410  33.0126286  73.4918165  47.1667099  32.0852184
  72.4295712  46.7864466  33.0941868  67.8375292  57.5824213   4.7443551
  67.8169250  57.8483772   5.6636351  68.7544203  57.6798010   4.4873425
  70.7259321  19.7931278  14.7740805  71.0355473  19.7615373  15.6792736
  71.3365364  20.3834224  14.3325555  58.5163593   7.6501012  91.3462067
  58.2501459   6.9919473  91.9882298  58.4527826   7.2015917  90.5029774
  48.7352562   3.7871313  89.1284847  48.9366198   4.7163987  89.0182686
  48.2192993   3.5604584  88.3547592  67.6681042  27.1756101   4.9734658
  68.0949068  27.8215337   5.5363643  66.8845320  27.6202226   4.6501079
  78.1179142  38.1075692  23.5104918  77.4735022  38.7752485  23.2756162
  77.7164078  37.6326680  24.2381573 112.5396442  49.8244333   5.5644488
 112.5799274  50.5152416   6.2258065 113.4082317  49.4227028   5.5845064
  92.4795055  34.9208188   4.7901449  92.7332115  34.0059185   4.9118811
  93.2489872  35.4209781   5.0621170  43.5042143   5.3202802  93.5896683
  44.4387436   5.1686716  93.7307262  43.2257605   5.8262789  94.3529892
   1.8130089  41.1765480  13.3582199   2.2043374  40.6536198  14.0579641
   1.4657176  40.5311632  12.7425063  65.4776049  31.4400148  14.6174943
  66.4261961  31.5593195  14.6640933  65.3601170  30.6695986  14.0617180
  29.5105934 106.9809723   4.4741258  28.7193465 107.4800301   4.2713824
  29.9217010 106.8277740   3.6233893  41.7803860   7.2677243  65.2882910
  41.3678885   6.7980987  66.0132265  42.4081564   7.8548020  65.7095718
  62.2859287  15.2411568  63.6561108  62.3682594  16.1519718  63.3734989
  61.3968039  14.9916661  63.4042358  47.4348497   2.5362176  68.3056068
  47.9186440   2.6085654  69.1283703  47.1068239   3.4204644  68.1420898
 106.0512733  54.3597269  47.0102978 105.5538750  54.4088030  46.1939526
 106.9594479  54.5079517  46.7467070   5.3793198  61.1810970  29.3425107
   5.1083463  60.2924824  29.5730925   6.2725437  61.2539721  29.6787739
  12.9283643  60.3756428  85.8572483  12.1122169  60.7731009  86.1608315
  13.2810795  59.9333382  86.6293812 109.3394470  96.8791485  77.1939754
 108.7852573  97.5310993  76.7649412 109.6430683  96.3166904  76.4814520
  85.4015541   1.2281700  35.3096151  84.6522999   0.7181215  35.6173563
  86.0745335   0.5745052  35.1197553  49.1619158  12.1386051  82.9545403
  48.3143711  11.9055104  83.3334351  49.0420914  13.0313253  82.6306248
  21.1591196 103.2357311  88.3851051  22.0426440 103.3040905  88.7469673
  21.1753154 102.4332237  87.8636074  47.8972912 105.0676918   4.8827571
  47.5061893 105.7741165   5.3967935  47.8998518 104.3146229   5.4736185
  82.7478886  41.4864588   8.1849146  81.9956875  41.2900019   8.7433356
  83.3034134  40.7096291   8.2493699  78.4859800  36.8026686   7.0750588
  77.9298782  36.0756469   6.7950082  77.9001284  37.5594473   7.0923990
  93.8280582  24.8687005  15.5961072  93.7720013  25.7098341  16.0495210
  94.7111607  24.5523238  15.7865798  83.4903049   5.1515931  72.3302412
  84.3589306   4.8173663  72.5538588  83.6436749   5.7433265  71.5936518
  73.4173775  18.1929958  24.1476560  72.6834059  18.7456334  23.8791347
  73.6399937  18.5007238  25.0262785  47.5664949  79.4862127  83.8385582
  47.9260063  80.0188923  84.5479488  46.8385601  79.0119934  84.2403793
  66.7069626  45.2313519   9.0388310  66.4608049  44.8844767   8.1813258
  67.0465183  46.1071062   8.8544595  98.6712933  76.2561560   3.2435566
  99.3813705  76.8893385   3.3489990  98.3986664  76.0508919   4.1378552
  85.4648113  30.5348229  28.7721610  86.4002895  30.6806993  28.9129663
  85.4062462  29.6274185  28.4731245  29.5411491  67.2280025  60.5973053
  29.9376392  66.5440989  61.1370325  28.8331914  67.5790787  61.1374664
  25.8859897  10.2964771  32.4767399  25.2066803   9.9253851  33.0398250
  26.3435268   9.5352089  32.1198630  50.2896929   1.5455608  90.1906872
  49.7502708   2.2862211  89.9137783  51.1315393   1.6872782  89.7577381
  74.6906042   9.9861765   5.5543727  74.2584372  10.5969512   4.9573669
  74.9626255  10.5275977   6.2953854  87.1889400  29.6274614   5.8718640
  87.8983593  29.0748835   5.5438387  87.3925400  29.7536063   6.7986137
  97.3684311  39.7943974  12.6183295  96.7604446  40.1270533  13.2785738
  98.2355118  39.9355030  12.9984534  82.6728344  19.2496550  86.7893982
  81.8129444  19.4032156  86.3979530  82.8465366  18.3220112  86.6296005
 110.9686565  40.0129080  10.4907727 110.7207775  40.2717447   9.6031976
 110.4282665  40.5609798  11.0598254   7.7061749  42.5715017  75.2924776
   7.8397304  43.5093451  75.4297638   7.3755771  42.2512674  76.1317539
  90.3635216  51.6234541  17.1313703  89.9646187  52.4880934  17.2288704
  89.6278477  51.0131741  17.1821117  84.2786407  12.6746678   6.2244630
  84.6082973  13.4861815   6.6104716  84.0547085  12.1256781   6.9759274
  49.9745035  24.2365074  85.8801556  49.8087120  23.4848809  85.3111172
  49.1489124  24.7208786  85.8837891  13.1893253  56.7505026  84.7112942
  12.3022544  57.1018267  84.7881603  13.3356225  56.2869120  85.5358601
  72.4084330  67.6508570   2.1970452  72.0387268  68.0531788   2.9829755
  72.8446150  68.3711052   1.7418277   5.4948914  36.4752197  19.5668113
   6.0578215  36.0423017  18.9249980   5.9426326  36.3471842  20.4030919
  64.9973154  35.8974814  12.5079572  64.7927046  36.8038511  12.2780442
  64.8579454  35.4075098  11.6975641  88.3153534  53.3652401  16.3636804
  87.5531101  52.8091431  16.2025177  88.3380318  53.9629889  15.6164098
 104.3894005  29.7062540  23.5086012 104.6499252  29.8230505  22.5949717
 103.4375572  29.6105599  23.4758806 106.1226654  27.0998025  16.7523384
 105.2298737  27.1033669  16.4071870 106.4411259  26.2130260  16.5836763
 109.7087193   9.7191703  23.3665395 109.2211246  10.4571438  23.7324286
 109.7158146   9.8809403  22.4231339  74.0447187   6.8859428  84.6265411
  74.6217442   7.5884324  84.9261665  74.0886974   6.9308537  83.6714077
  17.3341787  54.0977573  31.8494177  16.9516397  54.6909380  31.2028646
  17.2458231  53.2284117  31.4586997 113.6727142  44.1866350   7.1848720
 114.5055294  44.5657015   7.4658853 113.3197403  44.8203278   6.5603107
 101.6533947  36.0542345   2.4757573 101.6073036  36.9920397   2.2896737
 102.1605587  35.6906724   1.7499228  26.4245892  76.6007566  92.7167606
  26.6145897  75.7059240  92.4349785  26.6419458  77.1420908  91.9578552
 108.4814930  21.2327337   2.4713413 108.6495781  21.2490463   3.4135258
 108.1075573  22.0928097   2.2798322  23.7296224  96.0768795  87.7089214
  22.9540753  95.5495548  87.5173759  24.0720320  95.7116985  88.5247803
 108.4219551  67.5150776   5.3411567 107.5283718  67.2865343   5.5971056
 108.7748051  67.9848909   6.0968059  73.2148027  34.0992117  20.3918767
  74.0387249  33.7081528  20.6824923  72.9473257  33.5657501  19.6434724
 106.2376976  89.0480232  83.1389809 105.3950214  88.8345623  82.7382755
 106.1914062  89.9892044  83.3070946  97.1925545  44.1922331  28.6348605
  97.9517746  43.6181545  28.5336423  96.9431114  44.4196177  27.7391458
  28.6569262  12.1817207  65.5138445  29.0732574  12.4124122  64.6833706
  28.7385011  11.2294459  65.5662727  96.3667202  30.5139756  41.5042353
  96.1896515  30.9805918  42.3210287  97.3206806  30.5216908  41.4259434
 115.8425236  71.0638285  22.5239348 115.2892876  71.7749786  22.2007823
 115.6678200  71.0329628  23.4645510  73.9084768  20.2379966  34.0089226
  74.4430065  20.6121254  34.7093058  73.9859867  19.2914093  34.1280746
  95.5708885  90.3478527  80.7680321  94.7971439  89.9607086  80.3585625
  96.1254406  90.6092358  80.0329208 101.2499714  69.7809362  80.4395103
 100.7253075  70.4751205  80.8383465 100.6103992  69.1207457  80.1724339
  58.2465887  51.2947369  34.2105174  58.4721231  52.2249842  34.2096901
  58.5869884  50.9650183  33.3788657   0.1407288 104.8958492  86.6395855
  -0.0040826 105.0870323  85.7129192   1.0907113 104.8114967  86.7211246
  40.3386354  86.5283775  87.8711224  40.9479761  87.1269417  87.4390984
  39.5698690  87.0657539  88.0620480 114.5575333  76.6604519  38.1683946
 113.6576843  76.9278479  37.9813218 115.0983334  77.2827578  37.6820755
   3.2794794  33.2871127   8.2121944   3.8251549  32.6309705   7.7786666
   2.4700879  32.8226423   8.4252268  87.0214844  20.9881663  20.9486461
  86.3421917  20.8376002  21.6060090  87.6789951  21.5170836  21.4004827
  75.6635332  69.4556236   5.6197745  75.8374691  68.7498140   4.9970269
  76.3643551  70.0891304   5.4656547 106.7771816  56.1412334  37.8017831
 106.2164497  56.8755865  37.5516987 107.2616482  55.9274149  37.0044088
  74.1087627  61.9638395  41.8437052  74.4316626  62.4689293  42.5899315
  73.6721277  62.6096630  41.2882805 105.6089306  67.5012016  29.5350051
 106.4552689  67.0742750  29.4020462 105.7722473  68.1482363  30.2212310
  76.6134691  25.4079747  94.3136787  76.3207150  26.3132572  94.2088509
  77.4357986  25.4768205  94.7987175  86.0808086  25.8085179  11.4324141
  86.5787983  26.5888786  11.1889637  85.9699631  25.8812046  12.3803926
  76.2959528   9.8291039  87.9274082  77.2028017  10.1149619  88.0375671
  75.9426308  10.4082048  87.2521019   3.2525533  35.7868791  21.0788202
   3.6405993  35.9420657  21.9399643   3.8976470  36.1294508  20.4601669
   2.6997256  37.1353602  10.4758978   2.0183903  36.6035628  10.8872449
   3.3304211  36.4985251  10.1398981  99.3791389  76.3532352   7.7898604
  99.9439144  76.4757681   8.5529131  99.9225998  75.8744383   7.1640515
  39.6840191  36.6037798  90.4115868  38.9457774  36.1156821  90.7762718
  39.3132162  37.0785356  89.6677113  96.6866207  42.2146416  22.7491403
  97.0403385  41.3426495  22.9245114  95.8476067  42.2298336  23.2096457
   2.4680609  62.3439646   7.2321224   3.1157476  63.0356789   7.0969582
   2.9009685  61.5472412   6.9254380  92.0300770  46.7845249  13.6408007
  92.4258423  47.5198030  14.1087425  92.6487541  46.0639143  13.7599242
  89.3032169  71.4675570   1.2075707  88.7172413  71.3080978   0.4676764
  89.8256111  72.2239351   0.9406940  15.6004381  85.9616375   4.1079685
  15.1707876  85.5087280   4.8335704  15.9027600  86.7872620   4.4863701
  17.8845012  76.7726469  82.9591656  17.1488678  76.2199354  83.2229519
  17.9818606  76.6100693  82.0209026  62.8366613  17.9351580  21.7749381
  62.2892904  17.8592908  22.5565147  62.8531075  17.0515060  21.4073515
  65.5679941   9.9560571  92.4648762  65.1056099   9.5819920  93.2148838
  65.9876966   9.2058754  92.0437908  47.3509312  60.7028866  31.9309402
  47.4950695  60.5843496  32.8697729  47.1032429  59.8339224  31.6150546
   1.6739917  47.3892546  21.2407827   1.0184797  47.4489069  21.9357467
   1.1947389  47.0415258  20.4886961  28.4944773 100.6899738  80.9147358
  27.5757933 100.4292488  80.9801197  28.4685445 101.5618324  80.5205059
  18.4137630  86.4878178  74.6405458  18.6773241  87.1043873  75.3236389
  18.8582718  86.7994213  73.8521624  10.7571065  92.1870232  60.7115650
   9.9362004  91.6947556  60.7156467  10.5705535  92.9594135  60.1778603
  92.8416348   7.5172055  82.4592400  92.8233433   7.9298073  81.5957260
  93.7728024   7.4212259  82.6591396 102.8765297 101.2703037  93.4541893
 103.0941582 100.5670929  94.0660381 103.5982895 101.2726688  92.8254700
 111.4566517  70.5305767   7.0401394 111.2942505  70.8237791   6.1435413
 112.0631886  71.1788845   7.3979783  34.1840005  87.3535728  67.6536036
  35.0330925  87.3483562  68.0954742  34.1344786  86.5017319  67.2198534
  74.5354319  70.8549213   8.2665098  74.0909147  71.5511942   7.7829379
  75.3606939  70.7275438   7.7985919  37.6133680  28.7461901  84.8215485
  36.9804358  28.7530875  84.1035080  38.2193828  28.0392027  84.5998573
  44.1504574  18.7217057  85.7287216  44.8934746  18.8013124  85.1305485
  44.1573334  19.5376658  86.2291241  98.3998489  55.7999516   8.5559684
  98.3223248  55.0053215   8.0279648  97.9521179  55.5879211   9.3750036
  69.5960236  21.2592745  88.2556629  70.2075434  21.3763666  88.9826870
  69.8441362  20.4205942  87.8667068  10.4621720  75.5113506   4.5530826
  11.1662519  76.0427523   4.1814446  10.3854108  74.7655010   3.9580628
 109.3640137  45.4547834   2.2309743 108.6429977  46.0792446   2.1508494
 110.1232433  45.9190416   1.8784583  24.4968224  90.4084587  67.1191978
  24.3370223  90.7652473  66.2454748  24.3698215  89.4649696  67.0195436
  96.0670853  70.6253099  16.0566103  95.9636116  69.7333527  15.7250512
  96.7958546  70.9856176  15.5513334  70.1064539  50.3051805  36.4408231
  70.8618689  50.1636887  37.0114017  70.2225733  51.1942720  36.1057591
  96.0439014  61.1871958  10.0233483  95.4435825  61.5579605   9.3765205
  95.4819107  60.6782627  10.6076372 104.4675350  20.1701832  93.7389278
 104.3133450  19.8969209  92.8346157 104.6475506  21.1083460  93.6782646
  10.1674891  53.1508732  22.9025102  10.1022315  52.2168303  22.7036762
   9.3416399  53.5205173  22.5901508  28.0366039 109.1358662  52.8228188
  28.3422756 110.0091839  52.5776482  28.7965345 108.5696125  52.6883316
 113.8211536 100.6776619  14.1162860 113.3069992 100.1989746  13.4661019
 113.5990906 101.5968227  13.9677787 105.0626945  66.6633987  10.2630341
 104.9831486  67.5562811  10.5986881 105.6929016  66.7323732   9.5458764
 115.2647305  95.9705734  68.3000374 114.6913624  96.7313862  68.3930445
 114.6965218  95.2198982  68.4728432  25.3861570  75.4691601  65.1746988
  26.2132883  75.3567886  65.6431675  25.4166341  76.3680458  64.8471212
 107.9944324  44.0901661  19.9952221 108.0374241  43.1446028  20.1376700
 107.0961475  44.3266058  20.2263141  36.5314794  11.4996386  58.3304977
  35.7989430  11.6636789  57.7366018  36.9500089  12.3539662  58.4362650
  94.6482086  37.3625898   0.3507024  94.6800137  37.3357534   1.3069974
  95.1783943  36.6158223   0.0723725  13.4473789  85.1960564  16.7323601
  12.7875710  85.2335358  17.4248052  14.2644763  84.9993610  17.1905065
  79.2128229  43.9177418   4.7279701  78.3321571  43.5451460   4.6851176
  79.7962093  43.1665134   4.6205026  49.5223284 107.4787712  89.6799946
  48.7445831 107.6598549  89.1522217  50.1862955 107.2117329  89.0443325
 115.1589298  49.3726540  16.9168711 115.4299068  49.3763494  17.8349054
 115.9736538  49.4808960  16.4262176  23.3538866  82.1413708  81.5555668
  22.4875069  82.4299526  81.8425179  23.1768990  81.4976311  80.8696365
   0.5718676  37.9673767  14.5513618   0.2263295  37.9605246  15.4439914
  -0.0503412  38.5016537  14.0577674   6.7771220  89.5499420  89.8787212
   7.6202369  89.9783611  89.7309208   6.1328703  90.1570606  89.5146084
  42.3812008  91.6988087  86.7684937  43.2547903  91.3095951  86.7286682
  41.9209194  91.1867046  87.4334145 111.7770767  72.7632999  28.3213782
 112.4390411  73.0171728  28.9644814 111.6595173  71.8230867  28.4570551
   1.0508766  68.5953283  43.6118031   0.0945410  68.5547543  43.6146736
   1.2518199  69.5198679  43.7569809  55.0910330  45.6873846  12.2429538
  54.4006014  45.1684046  11.8304074  54.9522400  46.5754318  11.9138026
  79.7271061  97.5571442  16.3416588  79.3238258  96.7039204  16.1816609
  79.7616053  97.6306915  17.2954059  73.1722450  66.5132761  25.8816957
  73.1698513  66.2737036  26.8084288  73.9534569  66.0891294  25.5266809
   0.9404347 104.9579048  93.8275337   0.3853747 104.8812866  94.6035862
   0.8407955 104.1187286  93.3780003   4.3747190  24.1403031  36.3103890
   3.8601577  23.7057257  35.6302404   5.1408404  24.4821143  35.8494592
  27.3131418  59.2838144  19.2062998  27.1942997  58.3835030  18.9037287
  27.6474643  59.7515297  18.4409893   2.4234399  43.6716795  18.8409233
   2.0689385  43.4309006  19.6968353   1.8266439  43.2663012  18.2118487
   1.7087300  51.4279938  20.9674549   2.3762298  52.0725489  21.2024522
   1.0138655  51.9419098  20.5560136 107.6623631  56.3853455  25.3191662
 107.1108627  55.9707975  24.6556687 108.4933090  55.9128284  25.2692342
  97.8745365  84.2931080  59.7778702  97.0551109  83.9073181  60.0876236
  98.2631207  84.6885204  60.5581760  78.7163496   1.1473536  91.3975906
  78.5714531   1.6552813  92.1958733  78.7514114   0.2382686  91.6951942
 107.1592808  71.8554020  33.6907506 107.3577023  71.0060406  33.2964849
 107.3566818  71.7399740  34.6202374  96.8264198  44.1052055   9.7484994
  96.0105038  44.1514206  10.2468634  97.0783043  45.0191307   9.6160978
  67.5192022  76.5658522  32.3705530  68.2610655  76.0851145  32.7376556
  66.7641926  75.9995413  32.5302005  49.1298199  22.3863578  84.1523552
  49.5063400  22.8896761  83.4304619  48.1836271  22.4780607  84.0403748
  13.2927120  80.8666992  14.6530426  13.8572073  81.3988495  14.0923345
  12.9137063  81.4904499  15.2723348  95.7574940  61.0852480   6.5332741
  95.2000523  61.6804409   7.0345056  95.6112671  60.2273893   6.9319302
 113.8620186  90.9313202  27.5366926 113.3321381  90.9195614  28.3337641
 113.2257366  90.8611107  26.8250394 112.5742626  45.2932930  36.4139390
 112.9780197  46.1588001  36.4780521 111.7091751  45.4597092  36.0395551
  34.5437241  22.3751163  94.2791939  34.6320820  21.9869280  95.1496792
  35.3471446  22.1251869  93.8228226  87.8386497  55.9635687  14.8806322
  86.9268322  56.2464428  14.8112357  88.2062054  56.5085793  15.5764008
  73.9375067  68.3508062   7.3467654  74.6111822  68.6535931   6.7379010
  73.6463499  69.1444159   7.7958107  79.3397570   8.9434654  90.0833511
  79.3274593   9.3515599  90.9491158  79.0484428   9.6346015  89.4886208
  17.8341568  40.9692812  48.7097120  17.5378489  41.7917824  49.0994883
  17.0573938  40.4099369  48.7113523  92.2186279  69.8462248  20.3450537
  92.5686932  68.9736700  20.1652503  92.8778172  70.4455614  19.9950576
  12.6466882  45.1283503  20.1662230  12.0659554  44.8238850  20.8635616
  12.9944253  44.3260813  19.7767711   3.5102752  77.0704079  34.0440464
   2.9229277  76.4126205  33.6717892   4.2853710  77.0443583  33.4829926
  10.3765333  75.5052948  20.8030486  10.8590186  74.8402023  21.2940621
   9.6508634  75.7481050  21.3780951  18.2746708 104.8599339  43.5142565
  18.4707463 104.2105007  44.1895485  17.3691368 104.6781540  43.2628679
   4.2584139  45.2162933  66.2024784   4.3313876  45.3922367  67.1405363
   4.6640450  44.3569183  66.0877085 115.7900715  87.8700447  56.2160444
 115.1112652  88.5416317  56.1495447 115.8130169  87.4659824  55.3486109
  88.1973457  81.7000675  84.4173241  88.5217762  82.5852299  84.5830822
  87.4787331  81.5879154  85.0396156  12.9529583  90.5290508  82.5215054
  13.8378775  90.6465530  82.8669643  12.8941917  91.1514854  81.7966938
  59.7764826   7.4890852  10.4679692  59.5689201   7.9042524   9.6308392
  59.1621590   6.7577833  10.5314696  24.3743014  90.5352116  79.4081450
  25.3228164  90.4096031  79.3803024  24.2431688  91.2262917  80.0573254
 105.5709934  91.9751930  72.8323746 105.3814793  91.1928463  73.3502960
 105.5175400  92.6963520  73.4595156  76.4243507  61.2677336   9.7726202
  76.3641214  61.1962128  10.7252431  77.2063017  61.7986488   9.6212524
  70.8400917   2.1476677  76.0836172  70.7509661   2.6416838  75.2686119
  71.7851019   2.0639662  76.2108326  93.6329365  15.3123462  18.3103025
  94.2419243  14.7636724  17.8160131  92.8763580  15.4111493  17.7323163
  16.9295084   3.9436615  67.2945786  16.3771343   4.6702826  67.5829124
  16.3140130   3.2980302  66.9473600  13.4594309  70.7445955  33.5743451
  13.7719572  69.8434925  33.4933043  13.9449275  71.2275505  32.9055524
 112.5927067  71.1850405  81.7274475 112.0891857  70.6837082  81.0860634
 113.2636833  70.5754137  82.0346451   2.8372803 101.4614868  72.4835920
   3.3240420 102.1598530  72.9212952   2.3765671 101.9019127  71.7694473
  93.6415386 105.3214169  89.7436619  94.1248894 104.5897675  90.1274490
  92.7550888 104.9830055  89.6175575  27.4081540 102.8328514  88.3350658
  27.3006153 102.4576473  87.4610615  28.1209850 103.4643459  88.2385731
  99.1938019  80.3960323  86.9736576  99.8350048  80.2529335  86.2775230
  98.3565521  80.4726124  86.5160656 111.9726181  19.4899917  10.3725982
 111.2832260  20.0279403   9.9832594 112.4918079  20.1045418  10.8912480
   8.8000327  65.3301764  83.1099033   8.4786654  64.4310904  83.1777668
   9.3136805  65.4617214  83.9068317  12.6062024  85.6070614  84.4772530
  12.4061847  85.0234985  85.2091503  11.9068146  86.2603760  84.4937897
  57.7109909   9.6576679   3.5833648  57.4993038   8.7468839   3.7880427
  57.3849916   9.7849399   2.6924336  24.4135690  52.0299530  68.1680155
  24.2530632  52.4809456  68.9969158  23.7308645  51.3605070  68.1234646
  26.8262672  67.6010132  68.9898157  27.6429605  67.9798174  69.3150043
  26.1839533  67.7944136  69.6726513 112.6021004  67.0652962  59.9977398
 113.3550549  66.7428112  60.4930210 112.1538353  67.6572752  60.6017685
 114.2222118  95.1145458  92.6322556 114.8939705  95.5774498  92.1315670
 114.4451714  95.2854443  93.5472965   0.1366219  35.0806856  87.5763035
   0.2498761  34.4684696  88.3033466  -0.2306602  35.8669233  87.9802418
  39.0970802 105.9553051  60.7039976  39.5758963 105.7501984  61.5070486
  38.4842634 105.2276611  60.5980492  47.2571802  49.2482805  -0.0561026
  47.6645041  48.6241817   0.5445762  46.3664484  49.3554449   0.2775865
  48.3637905  17.1789169   5.5256897  47.9175282  17.2338939   4.6806696
  47.6894474  17.4012852   6.1675942  24.6709871  97.3242760  50.9528780
  24.9933648  96.7745113  51.6670704  25.3621721  97.2876644  50.2917004
  31.3886309  49.7513437  78.4898281  30.5593181  49.2839050  78.3899689
  32.0506310  49.0606737  78.5208702 102.3892975  87.3700619  89.7406769
 103.0592537  87.3743153  89.0570354 102.3164654  86.4512444  89.9989414
  21.6760588  42.7282763  74.1654921  22.1321201  43.5539579  74.3282557
  22.3638391  42.1270895  73.8795471 108.1851196  51.0914660  13.0566752
 108.2192326  51.6981649  12.3170924 107.8977394  50.2626991  12.6735473
  89.4342232  91.3151550  94.9131012  90.0408077  91.3609600  94.1740513
  88.5661221  91.3026142  94.5100307  19.5504010  88.3502674  84.0488243
  18.9155912  87.7210712  83.7062550  19.8794937  88.8048077  83.2733727
  87.9976368  73.8644934  71.2522840  87.8926945  74.4478416  72.0038986
  88.9062309  73.5678673  71.3043404  14.9613893  48.8022327  71.3037539
  15.2569079  49.4755936  71.9165230  15.7647336  48.4838629  70.8920383
   0.5075374  78.8291264  60.0764656   0.7577454  79.7525740  60.1060152
   0.7887053  78.5323763  59.2109537  44.4868040  23.5160995  68.7104464
  44.7797155  24.1906548  69.3231535  44.9843168  23.6866331  67.9106808
  76.7189932  28.9692092  19.3023670  77.5701094  28.5979629  19.5347655
  76.3978672  29.3594313  20.1152849  85.2235222  84.1466713  41.0347652
  85.2793598  83.8446808  41.9413614  86.0177231  84.6651363  40.9056711
  96.6494465  24.8075962  25.8278227  97.5983143  24.7536993  25.7138848
  96.3127995  24.0139627  25.4118299 103.7461567  76.5625620  11.8211436
 102.9600334  76.0572433  12.0282698 104.3523598  76.3659334  12.5353432
  10.1385450 104.5304489  79.3852282   9.1911030 104.5516205  79.5198965
  10.4207432 105.4341888  79.5260811   3.1009212   9.2041624  90.7651615
   3.0272114   8.7429351  91.6006660   4.0304178   9.4209003  90.6924152
  37.4472642  72.3270845  86.1886120  36.8787122  72.4819660  85.4342937
  38.3071232  72.1486044  85.8077908  20.1394534 101.2185287  90.5858994
  20.2910900 101.9985867  91.1195183  20.0493813 101.5526390  89.6934414
  73.8172007  63.4341097  10.2514124  74.2841911  64.2479610  10.0622129
  74.0768194  62.8397846   9.5474219   2.2988191  78.6913347  71.5877485
   1.8889700  79.4097996  72.0694780   3.0455250  78.4352160  72.1291018
  42.5858498 100.6278801  85.0876904  42.7186537 100.2511978  85.9575844
  41.7399406 101.0720825  85.1456356  14.4517446  55.8062506  74.6954155
  13.6970818  56.3493109  74.4678020  15.1984584  56.2560368  74.3000078
  81.2332439  57.5743389   1.5699978  81.1445522  57.1680880   0.7078354
  80.9999752  56.8805504   2.1868235   7.2159928  64.4786119  27.9979730
   7.0595747  64.2284012  28.9085531   7.1824878  65.4352140  28.0032992
  56.7757750  14.0882897  68.9328527  56.6613436  14.6635568  68.1764126
  57.4160004  13.4378004  68.6443949 112.7057648  55.9125423  73.4586239
 112.6811695  56.5146637  74.2023134 113.1478977  55.1334000  73.7958002
 115.4883289  83.8554668  69.6369505 114.9139977  84.3867970  69.0855312
 115.5276966  83.0074978  69.1946554  26.6082382  64.5772839  89.2356777
  26.3321042  64.0919065  88.4582520  26.5790987  65.4956961  88.9675236
   4.5605335  70.4357004  49.3690538   4.2681932  69.8087215  48.7074900
   3.7693137  70.9188271  49.6073580  56.9051886  36.0883236  16.7697823
  57.1828842  35.3531146  17.3162091  57.4889088  36.8051624  17.0180690
  85.1666355  70.2136803  42.0591545  84.4973660  69.7246313  41.5804720
  85.8640385  69.5765686  42.2139263  10.8443666  45.7799339  50.8859825
  11.0467017  45.0551128  50.2944374  10.4069901  46.4263725  50.3318596
   6.3246042  25.0569582  70.6153059   6.7905670  25.5820513  69.9646235
   6.4420670  25.5340576  71.4367723  35.1234174  42.6499462  84.4610882
  34.4823480  43.2759714  84.7977638  34.5958090  41.9569969  84.0639973
  85.9364128  32.6992416  12.4636686  86.2509727  31.8488979  12.1567523
  85.0116348  32.5545025  12.6638436  13.6154664  91.2598896  91.2564659
  13.2933617  90.7390404  90.5208111  13.7774444  90.6203461  91.9499874
  54.9319172  38.4110355   1.7147423  55.6104660  37.7767491   1.9460094
  55.4151630  39.2002130   1.4699885 102.6243210  41.6478729  12.7661729
 103.4761429  41.5647316  13.1948042 102.7514267  42.3349714  12.1119773
 107.0320892  83.6996269  80.5193996 107.4541664  82.8933144  80.2228642
 107.6633835  84.0927982  81.1219978   9.5355344  57.5399637  35.8322597
   8.6291450  57.5520420  35.5247808   9.5988035  58.2921028  36.4209127
  21.7718387  77.3599291  58.9047861  21.5374517  76.4342165  58.8388538
  21.4022565  77.7573204  58.1162882   2.2264403  61.4423561  63.9185619
   2.6827013  61.7732954  64.6922159   1.6859114  60.7244062  64.2481136
  10.7476568  47.7792645  74.5104361  10.4947674  47.0712948  73.9179373
  10.3402007  47.5496817  75.3456020  32.2242022  79.0797806  65.0627756
  31.5205550  79.3974686  64.4969273  32.8646374  79.7911215  65.0709152
  37.8300214  98.2045555  83.8959217  37.4716759  98.6672497  84.6533775
  38.6681271  98.6349392  83.7268543  65.5287790  37.7058911   3.5527533
  65.3161287  38.5842013   3.2371891  65.0835037  37.6405811   4.3975577
   2.5834849  64.2547512  82.4378872   3.0168453  65.0997496  82.5579262
   1.9893014  64.1820621  83.1848145  84.1485023   9.0597278  75.0653315
  83.4680939   9.0746582  75.7384253  83.6796379   9.2238092  74.2471218
  39.8214531  82.5464153  82.6785755  39.8553967  83.2016850  83.3755016
  40.3804064  82.9022789  81.9878006  55.7600212  12.1486509  55.7881880
  56.5356255  12.5759113  56.1516666  55.3963375  12.7908325  55.1786232
 102.8163242  59.9776602  78.3094215 102.9153156  59.0498686  78.0957890
 103.5274220  60.4096127  77.8361416  11.3881934 103.7299347  64.1099739
  10.5167496 103.3564091  64.2414951  11.7955685 103.6980820  64.9755716
 107.6949501  76.2610865  61.8250847 108.1670380  75.6285524  61.2835407
 106.9898319  75.7534170  62.2267103  11.3641095 100.0788116  77.2065496
  11.0858965  99.1632462  77.2306108  10.5655074 100.5764961  77.3819733
  83.6205922  20.0337533   0.2685373  84.3380390  20.3855828  -0.2584536
  83.6450677  19.0905646   0.1072042  75.6873083  14.7677612  76.6166592
  76.2191296  14.6243572  77.3994923  75.0928974  14.0179503  76.5902615
 108.3944225 105.0374794  78.1289196 108.2960129 105.9677029  78.3319426
 108.3909321 104.9993992  77.1724796 114.7550869   9.4432902  25.1484632
 115.0750637   8.5892910  24.8577237 114.3472195   9.2700726  25.9969163
  11.1149788  87.5626183  77.3640347  11.3715112  87.6585579  78.2812119
  11.2591505  88.4288502  76.9831276  35.6959224  87.5267410  91.7180824
  34.8858643  87.0214558  91.6492939  36.3398623  86.9025517  92.0526981
  26.0218334  65.8705282  26.9008589  26.4079022  66.1210680  26.0615683
  25.1512504  65.5425167  26.6756392  80.1983833  48.8799667  10.7111788
  79.4434643  48.5429859  11.1936402  79.8212290  49.2934227   9.9346238
  71.8990612  26.3484216   6.8435621  71.0595226  26.1741996   6.4180577
  72.0601654  25.5734539   7.3818040  63.0726576  34.8073721   5.6711251
  62.5951481  35.6366658   5.6490523  62.5080776  34.2191768   6.1726272
   9.7749680  84.3162251  82.8021049   9.5367527  85.2256584  82.9821205
   9.0361047  83.9696026  82.3019409  42.3284245  73.3321047  87.2134590
  42.0205164  72.4883699  87.5444126  42.7658415  73.7378120  87.9619884
  30.1628232  88.0598354  64.1030693  30.9325790  88.4919453  64.4731855
  29.5977163  88.7786007  63.8197708  65.1378393  69.1312838  62.1944523
  64.6373940  68.5305262  62.7466106  65.2616119  68.6551285  61.3733625
  16.6062319  81.9283104  75.3431606  15.6828749  82.1303177  75.4942703
  17.0564413  82.7651501  75.4582405   8.4127080 100.7593250  85.7586002
   8.0479163 101.1316872  84.9557877   9.3591017 100.7616043  85.6151962
  16.9964075 105.7683372  84.4745350  16.2400043 105.1822758  84.4994068
  16.8781912 106.2780857  83.6730289  79.7205257   1.8072174  71.5251493
  80.2693748   2.2138852  72.1956825  80.3144073   1.6534884  70.7903671
  21.6861200 102.5896931  85.1251984  21.4033055 101.9578075  85.7862377
  21.1596465 102.3808861  84.3535423  23.9022779  72.5252867  77.9053831
  23.7575459  71.7462778  78.4424448  24.7846723  72.4120951  77.5521183
 109.1677189  79.1468811  76.9060230 109.1843796  78.2644272  77.2764730
 109.6442795  79.6820736  77.5406027  47.1900082   0.6222639  86.4558601
  46.4389610   0.0303973  86.4989758  47.8536224   0.2076910  87.0071983
  33.7002468   3.2184550  84.1417408  33.6580324   2.4534175  83.5680008
  32.8140998   3.3031538  84.4935894  79.6285629  82.4589729   7.6628840
  79.5634985  83.0019188   8.4485132  79.5279026  83.0748653   6.9370914
  17.5056100  69.7157955  75.9403133  18.3145142  69.8067141  75.4366827
  17.3954415  68.7710810  76.0480356  97.3299599  85.5332565   1.4001305
  96.5864086  86.0303402   1.0591402  97.5081348  85.9250546   2.2551036
  15.5634034  59.8609543  38.0944467  15.5284226  59.9333858  37.1406341
  15.5213654  58.9199924  38.2648945   8.9846140 100.3837395  92.5807762
   8.5497200 100.7456684  93.3528614   8.5457057  99.5467567  92.4289703
 114.5810318  14.3810713  45.4795122 115.4689407  14.6983683  45.6443357
 114.6365547  13.9447868  44.6293354 105.6649208  73.8635063  32.5723338
 106.3394070  73.2067871  32.7456069 105.5156898  74.2829132  33.4197164
 115.5125237 101.4359665  60.5173874 116.3254547 101.6060829  60.0415325
 115.7609558 100.8139896  61.2012386  67.1674633   2.1399567  84.3801498
  67.9777145   2.6428702  84.4626331  67.0301723   2.0600875  83.4362221
   0.5419438  49.2212820   8.6443460   0.3899688  49.9946260   9.1875583
  -0.0003488  48.5395670   9.0411019  24.5143294  13.3577919  79.4460344
  24.6587276  13.4975088  80.3819084  23.6439705  12.9627860  79.3943262
 110.0565243  90.7977295  84.9093628 110.7514381  90.4873753  84.3288326
 109.2918015  90.2748871  84.6683979  87.5391674  83.6438084  94.7416210
  88.2420635  84.2885399  94.8221588  87.3135185  83.6504078  93.8114262
 106.0158062  76.3175631  78.2703972 106.5314960  76.2067366  79.0691519
 106.0773754  77.2522259  78.0733061  15.0123262  91.0387707  61.3598776
  15.6160200  91.6197014  61.8228149  14.5734751  90.5470181  62.0540094
  91.7986965  87.7989578  52.9229927  90.8498096  87.9182816  52.8828764
  91.9214821  87.0501614  53.5064793  70.6621933  43.1769276   1.0814448
  70.3480434  43.8921785   0.5283115  69.8674440  42.7968025   1.4557599
  80.7122898  32.9577374   9.2447615  81.6603851  32.9432368   9.3756920
  80.5784607  33.5825109   8.5320354  54.2275810   9.2872292  59.1937780
  55.0102425   9.7397900  59.5081949  53.5010767   9.8477030  59.4663429
  54.1166210   3.2411242  73.5656548  53.3123541   2.7723867  73.7885284
  54.0810919   3.3387542  72.6141119   4.8281562  82.3107719  78.9255524
   4.0357113  81.9942188  78.4918976   5.5413270  82.0448494  78.3451176
 102.3587322  91.3940620  85.3804970 101.6395569  91.5739155  84.7749615
 101.9629192  90.8628559  86.0714340  57.2569847   1.2048670  46.7219591
  57.8760862   0.5845807  46.3370085  56.6074657   0.6545810  47.1596146
  96.9427204  97.6502323  77.9598379  97.1146202  98.4626102  78.4359932
  97.1208096  97.8667641  77.0446157  16.8542457  99.4954681  82.2280502
  16.0857689  99.7341156  81.7096710  16.9852471 100.2378559  82.8178978
  97.1655750  94.7986984  90.2734280  97.3663139  95.5577946  89.7259808
  97.5893402  94.0642834  89.8292637  16.2118018  95.6303024  85.3970718
  15.5346549  96.0963154  84.9066257  16.9824147  96.1949158  85.3370380
   1.0812291  96.1493778  94.2681313   1.2336934  95.2056789  94.2188835
   1.7391157  96.5289974  93.6856270   0.5729629  50.0113058  84.4734955
  -0.0557130  49.3340731  84.2237854   0.0357077  50.7837772  84.6492100
  19.0622580  78.9112711  88.5964203  18.3163571  78.3809757  88.8768578
  19.2930663  78.5634136  87.7350521  56.1195326  59.7395802   4.3700787
  55.5786419  59.0128946   4.0608835  56.3741159  60.2046633   3.5731378
  11.3030899  72.5668430  89.1303539  11.5605330  73.0066490  88.3200836
  11.5202177  73.1922102  89.8217297 106.7532349  90.5458260  59.3523121
 106.1535358  91.1176872  59.8314524 107.6255798  90.8425140  59.6115685
  73.2732537  30.5079011  -0.0619681  73.6559632  31.3799886   0.0340860
  72.3833611  30.5979852   0.2789132 102.8941917  86.3717461  74.9861193
 102.7116299  85.5121517  75.3655958 103.6642933  86.6844749  75.4608631
  91.4882851  76.2185097  65.8259773  91.7328453  77.1433067  65.7916927
  90.6065941  76.2175894  66.1986065   9.6095049  72.8041315  85.6325722
   9.1561520  72.9979181  84.8121166  10.2319694  73.5236168  85.7379818
 104.2713928  37.8397894  93.4450340 103.3971500  37.5830269  93.1517887
 104.5801830  38.4481144  92.7735996   7.9909056  30.5098987   0.7603320
   7.6783407  31.0839558   0.0610501   8.4684193  31.0913372   1.3520598
  34.7527909  83.8384342  80.9587955  34.0069461  83.4097195  81.3784981
  35.5001426  83.6168575  81.5143108  20.2381372  66.8119287  75.5822945
  21.0191870  67.3625803  75.6368208  19.6171498  67.3273706  75.0675821
  53.1288099   8.3255464  74.3830252  53.6037350   8.9042294  74.9795151
  53.7745953   7.6693618  74.1210890  16.0126257   8.9869404  83.6669731
  15.4776239   9.7477883  83.4408951  15.6582522   8.2772475  83.1312656
  21.2374854  78.9340067  54.3099833  20.8798122  79.3766880  53.5403490
  21.4059067  78.0391407  54.0148878   4.2195505 102.1695518  83.1192875
   4.2009404 101.7853737  83.9958096   3.5571930 101.6817284  82.6298618
 102.0571423  27.8790998   2.3999929 102.0793915  27.7247071   1.4555883
 102.6322556  28.6325955   2.5331172 103.0311584  24.8229694   6.1315072
 103.9133739  24.9163914   6.4909720 102.7985096  25.7031703   5.8359599
  71.2357378  14.2110538  75.3975058  70.2833271  14.3054020  75.4130888
  71.4161730  13.5008025  76.0133123   7.3189276  57.6907015  78.1422377
   6.5122396  57.7433205  77.6296806   7.4136555  58.5608101  78.5297585
   6.8581444 100.6955814  88.0554390   6.7046446 101.6394043  88.0986214
   7.4099833 100.5777931  87.2822475   6.4625949 107.8852940  73.0623198
   6.4601642 108.6112499  73.6861897   5.5783010 107.5224876  73.1135702
   7.5978726  63.0111027  83.1461239   6.7599511  63.0138874  82.6834011
   7.6126319  62.1738434  83.6098194 101.4572716  86.6568184  47.5107002
 101.8388748  86.3524246  46.6873169 100.7176208  87.2029495  47.2444487
  97.6551914  76.1891890  32.8995085  96.8701839  76.2113428  33.4467793
  98.1965733  75.5003357  33.2850218 110.9253502   6.3745648  27.2408485
 110.3520775   6.9399053  26.7231703 111.6046238   6.0956049  26.6268492
   1.0183475 106.0024357  68.6580086   0.2210818 106.4456463  68.3679008
   1.3526389 106.5509892  69.3676329 107.9158688  33.4415650   1.4891353
 107.2980499  34.1723394   1.5116149 108.7725449  33.8480806   1.6198027
  27.2272301   1.1971629  79.5926380  27.4236679   0.9136967  78.6997271
  26.3035250   1.4468369  79.5669174  10.0177443  99.9825478  72.6774645
   9.8060775 100.9013462  72.5123787  10.8355296  99.8360062  72.2020817
  41.5674257  19.2544496  44.4636059  41.9126415  18.3629489  44.4158077
  40.6306648  19.1580689  44.2920971  35.6878996  77.7277946  80.4776669
  35.1574063  77.7457523  79.6811199  35.6773973  76.8107510  80.7518005
  68.7823057  13.9367020   8.2723868  68.1483173  14.4705331   7.7935207
  68.6957073  14.2206872   9.1823786  25.7188153 106.8557358  71.7997074
  24.7709727 106.7225075  71.8083477  25.8675861 107.5591278  72.4316359
  41.4156199  96.8414402  74.5895910  41.4142084  97.7757263  74.3813992
  42.2200489  96.5085983  74.1916656  71.7529058  90.4188824  94.3010330
  72.6380825  90.0747681  94.4205666  71.8160772  91.3379288  94.5609951
 104.5896912  69.2247629  70.7967281 103.6993122  69.0511322  70.4912663
 105.1018238  69.3296051  69.9948788  94.7641754  32.8882408  53.7352753
  94.5311642  32.1043348  53.2378578  95.2295685  33.4408164  53.1073427
 115.6365871  35.1756072  58.6380911 115.1770306  35.9908342  58.8392258
 116.4325142  35.2121830  59.1685438 110.2162552  73.6806726  57.7853251
 110.4370308  74.0587330  56.9341183 110.9202003  73.0559731  57.9597902
  84.7644043  69.5651865  57.5434875  85.0355816  70.0850344  58.3000946
  84.2447090  68.8529301  57.9161119 104.1787624  86.3466644  60.3206635
 104.4699001  87.0295715  59.7164154 104.9446678  86.1668396  60.8658886
  13.7386453  67.9233074  74.4950294  13.4793568  68.8277340  74.3189144
  13.4914792  67.4448633  73.7036800  86.1165619  49.3159485  90.4753208
  85.3915024  48.7641191  90.7685852  85.8625698  49.5981693  89.5966530
  31.8621159  45.3906727  75.1963377  31.4128017  46.1238337  74.7758389
  31.1732459  44.7441816  75.3504324  38.2618427  10.6140518  45.4169083
  37.9424047   9.9661392  46.0449266  38.3409023  11.4214075  45.9250021
 102.6551056  42.8291988  48.2956457 103.1590366  43.4981537  47.8322029
 101.7609501  43.1704998  48.3107090  18.2597768  63.5491323  24.9547601
  18.9329481  62.9143047  25.1998353  18.6383355  64.3988276  25.1804686
  19.8774791  44.0811110  79.3845987  20.2297926  43.2414865  79.6797991
  19.7499120  43.9694118  78.4425354  13.8267279  78.9906025  52.5374556
  13.2532620  78.3232403  52.9142809  14.3480384  79.3035936  53.2767105
  93.3275700  78.7048578  78.5054731  93.4813499  78.0470705  79.1836357
  92.4243069  78.9882040  78.6470652   5.6920660  79.6913338  87.2490025
   6.4569300  80.0058174  87.7309895   5.5871481  80.3165913  86.5318775
  98.2059193  75.7670689  92.8678417  98.7989712  76.3277102  92.3676395
  97.6123333  76.3769341  93.3059692  30.4487777  61.9664717  62.9014921
  30.6862664  61.0497236  62.7621984  29.6658945  61.9302416  63.4510469
  25.2509832  77.8228951  86.0819244  24.9812937  77.6148987  86.9764900
  24.6800375  77.2890759  85.5294037  48.7270975  61.1891222  72.1365643
  48.7049389  60.3658342  71.6487741  47.8062057  61.4190722  72.2602844
  28.1675863  90.4795933  60.1675272  28.9722776  90.2472210  59.7041559
  28.0326104  91.4050674  59.9637842   8.8370460  86.8679142  83.2013893
   9.2827570  87.7115250  83.1246853   8.2596427  86.8318844  82.4388027
 101.7932320  64.1177940  69.2107010 102.0045567  64.1029787  68.2772398
 102.6393032  64.0280390  69.6492720  27.9886389  83.4926987  62.8681707
  27.9622126  83.9994335  63.6798048  27.0900679  83.5199356  62.5394392
   2.0005749  62.7483797  61.6889524   1.3121349  62.3199177  61.1803246
   1.8476774  62.4606848  62.5889969  89.9752331  25.8084846  49.3567944
  89.3276024  26.0198689  50.0291872  89.5200539  25.2084279  48.7660503
  25.1150346  82.1825695  59.2905188  24.4993544  82.7013874  58.7728357
  25.1500058  82.6272392  60.1374388  11.9902301  25.0127792  64.3622684
  11.5481389  25.5375433  63.6948776  12.5639892  24.4286704  63.8664341
  18.4454858  99.9965477  79.8953438  17.9532790 100.4046726  79.1830254
  17.9577458 100.2267742  80.6861305   2.6577252  67.3579550  60.3317118
   2.0915243  67.6052380  59.6006155   3.4848708  67.1077251  59.9200726
 102.6350021  75.7472515  55.9146500 102.6483059  75.1206017  56.6380930
 102.0250797  76.4280891  56.1987066   0.7382741  68.4615231  75.2379799
  -0.1093325  68.7447262  75.5808973   0.5552746  68.1953144  74.3369389
  20.5830002  70.3607368  63.8847113  21.2994361  70.6279707  63.3089161
  21.0047650  69.8327160  64.5626020   2.8867891  72.9119778  85.1244926
   2.3832299  72.1047688  85.0192547   2.7049345  73.1925058  86.0214138
  16.1810625  14.1409993  61.4394379  16.1139309  13.9637244  60.5011940
  15.2747381  14.2465270  61.7286968  92.1115780  12.1395516   8.8469684
  91.5215206  12.7537215   8.4100890  91.7943382  11.2752378   8.5851467
 108.8826180  27.0984912  31.0838985 108.3598423  26.5570068  31.6752768
 108.2588005  27.4057961  30.4261446  16.8290365  70.9095812  58.4688282
  16.7986345  70.6100988  59.3774605  15.9264338  71.1568260  58.2678032
  36.0704374  74.5986605  84.4067860  36.6160536  75.0407076  85.0572681
  35.2241445  75.0423908  84.4626522  25.9533477  30.7271194  62.4800205
  26.6651607  30.4321837  61.9120693  25.4558229  29.9324298  62.6728153
  97.7275848  89.8123360  93.1426620  98.1998444  90.1681423  92.3899269
  97.2539425  90.5614662  93.5041714  26.3118029 103.6780739   1.4450887
  26.2046885 103.0367661   0.7426001  27.1739030 104.0633297   1.2882832
 104.0947533  78.2711411  56.5079832 103.3230782  78.0248880  55.9979820
 103.8703918  79.1211796  56.8865633   5.0232267  24.2120171  65.9612322
   4.8627034  23.2784700  66.0988951   5.8357954  24.2434144  65.4562759
   8.5101521  83.4188175  78.5311747   9.3664443  82.9917336  78.5067892
   8.0356318  83.0466652  77.7878284  86.8509769  38.2787824   7.0433140
  87.1284485  38.3032107   7.9590899  87.6668167  38.3226204   6.5446067
   6.9633204  31.0626698  58.2046127   7.1047831  30.1206541  58.2985497
   6.2191772  31.1346889  57.6068735  96.6573811  60.2438831  83.2314301
  96.3353634  59.8786545  82.4073315  95.9329510  60.1245451  83.8455963
  26.7396069 104.4554710  26.3737130  26.3748789 103.8505363  25.7277608
  27.5038004 104.8360062  25.9407711  63.9807892  89.1222191  66.1628008
  63.1339931  89.3410587  66.5517473  64.6246529  89.4876385  66.7695475
  22.5961280  46.1259651  61.1919689  22.9840660  46.2801743  60.3306007
  23.3361578  45.8813477  61.7476225  92.3716164  56.7409563  42.6096535
  91.8109989  56.3555574  41.9362974  91.7642975  57.1840620  43.2021523
  18.3285868  36.4317870  57.9895163  17.6648009  37.0796442  58.2259560
  18.8808775  36.8780518  57.3476028   0.6113995  44.1098976  56.6293430
   0.6119411  43.3144140  57.1617317   0.3309038  43.8175106  55.7621241
 106.4977264  59.1548729  52.4453115 106.3254166  58.5316610  51.7395163
 107.4357796  59.3346548  52.3823690   9.2137635  38.6901879  54.1722870
   9.4317144  38.2530808  54.9954891  10.0575018  38.9763021  53.8223219
   8.4449363  67.4731159  25.9207535   8.5251403  66.6623306  25.4183316
   7.9748428  67.2175550  26.7144370   2.5902501  66.5627146  71.1666203
   2.5636780  66.3690996  70.2295876   3.2285056  65.9436798  71.5211010
  11.5359139  65.7189989  61.6905832  11.9977820  64.8872614  61.5851068
  11.0324240  65.6126976  62.4976921 115.0450516  87.9838467  37.8626847
 115.0320244  88.8947582  37.5689125 114.4893837  87.5217915  37.2350097
  47.1444511  70.7853413  60.5013037  47.0295095  71.1107349  61.3941288
  46.2884378  70.4285049  60.2643728  90.6019974  57.5124741  62.7713680
  89.6857929  57.2803545  62.9227543  90.9507561  57.6928854  63.6443281
  12.0467281  62.5537920  68.4214735  11.0972571  62.6607370  68.3640242
  12.1712816  61.8686962  69.0782547  17.2298801 101.0028076  40.8339882
  17.9336059 101.2137794  41.4475775  17.1584010 100.0489712  40.8702850
  15.2205610  68.8208437  78.8572741  14.7962976  68.2512808  79.4990158
  16.1382079  68.8453913  79.1284847   7.1642458 106.2221146  49.5902729
   7.1537393 106.0042953  50.5223036   6.4783084 105.6743813  49.2085552
  85.1581192   0.7545812   5.3006196  85.9704590   0.2516965   5.3593284
  85.4446411   1.6565156   5.1568979 100.4706287  67.3657274  49.6537304
 101.2403202  66.8857384  49.3480778 100.3599072  67.0869780  50.5627251
  26.9672346  71.5921974  69.7440386  27.1329236  71.5280771  70.6846046
  26.1214828  71.1614656  69.6199131  16.8487012  26.4689302  83.6481285
  16.5531445  27.1550035  83.0496407  16.0430050  26.0429978  83.9408207
 102.3149204  83.6289883  38.5403109 102.0159626  84.0015602  37.7108288
 101.8314934  84.1142654  39.2089105  29.2515326  55.6274796  69.2618942
  30.1290774  55.6813669  68.8834190  29.0803456  54.6887159  69.3370676
   6.4742470  44.3944216  45.2392340   6.8243301  43.9997864  46.0379410
   5.6241077  43.9721060  45.1161575 112.5344086  42.4783182  91.8954563
 113.0600166  42.0866728  92.5930119 112.7558994  43.4091473  91.9225216
  51.6928434 101.9618511   4.8919207  50.8011580 101.7128944   4.6487150
  51.9125652 101.3827896   5.6217420 106.6893482  58.2542849  47.1844530
 107.3234367  58.9410734  47.3905802 107.0548439  57.8131771  46.4175940
 100.3565502  96.4952660  61.2543535 100.4879665  96.0313416  62.0812321
 101.2156010  96.4806843  60.8323908   9.1237253  52.9503059  19.7108948
   8.7514198  53.4155798  20.4599905   8.3645833  52.5977707  19.2465115
  15.3016138  76.7790556  73.7418509  15.1514971  77.0051003  74.6597815
  16.1147821  77.2297335  73.5140944  84.8132229   4.4974756   2.6261932
  84.4548321   5.3374600   2.3394589  85.1967812   4.1182557   1.8354282
 104.4232559  38.0837440  46.8567038 104.3617535  38.8861465  46.3384342
 103.6548996  38.1075191  47.4270535  11.7332506  81.2362099  75.2419901
  11.5553880  80.4144192  74.7845507  10.8962071  81.4745331  75.6404781
 106.4951229  96.8297958  57.0993042 106.8689346  96.1020279  56.6024637
 107.2311497  97.1804619  57.6008415   4.5540017  81.7663574  73.2204533
   4.9584904  82.6233292  73.3554077   5.2625287  81.1406708  73.3712292
  98.4540749  89.6072483  66.9643974  98.5810375  90.2186775  66.2389469
  97.5630951  89.7789478  67.2691917  97.8120899  59.9063158  54.7378540
  97.5358391  59.6191597  55.6081772  97.0844936  59.6659946  54.1641998
   4.5732218  54.0235519  42.1562767   5.0500697  53.8190174  41.3519049
   5.1284760  54.6583080  42.6090574  20.1964927  87.6061821  47.9028940
  20.3123903  87.5151062  46.9571114  20.8016157  88.3046913  48.1521845
  20.6606841  43.7608576  87.6810837  20.6511259  43.3539629  86.8147278
  20.0069022  43.2731247  88.1820011  44.6258354  85.7144451  59.0102386
  45.0275898  85.2804756  59.7628975  45.2479458  86.4008617  58.7693453
  16.9351828  68.1901169  27.5513577  16.0480607  67.9899979  27.8500175
  16.8246746  68.4690762  26.6424012   2.2376204  64.3156910  76.3002825
   3.0194005  64.2064428  75.7588816   1.5353027  64.4914961  75.6741238
  17.3977697  45.5340052  80.4668903  16.4626443  45.3472471  80.3838730
  17.8273308  44.8203516  79.9952936   0.0648267  84.1218376  80.7979679
   0.5817240  84.7665596  80.3148746   0.6329280  83.3535671  80.8550739
  14.1023421  55.1592064  82.7343655  13.8785481  55.8967972  82.1668148
  13.6592019  55.3500462  83.5610676  17.4758458  66.2577295  90.7491684
  17.4984062  66.9887495  91.3666916  17.4330974  65.4779148  91.3026142
  30.6778932  84.3890381  14.4929266  31.0955477  84.4642544  15.3509116
  31.3566780  84.6537113  13.8720942  19.4574535 102.8822136  72.7613163
  18.9422572 103.2290268  72.0329475  20.3648162 103.0775261  72.5272751
  16.1641741  71.3243484  64.9601746  15.6602907  72.0901823  65.2355385
  17.0259273  71.6736507  64.7330236  10.3664851  83.7896729  85.4060936
   9.6477008  84.3804073  85.6310558  10.3819561  83.7848759  84.4490242
   5.5026484  94.9622822  83.7100124   5.2592260  94.0741062  83.9709949
   4.9505684  95.5297852  84.2479515 112.3592663  91.3603973  43.0174446
 112.5641537  91.7717743  43.8571024 111.7158222  91.9440365  42.6154661
  18.4336519 107.5662518  17.5982654  19.3787050 107.4230385  17.5473225
  18.3363056 108.3157635  18.1856167 115.4762840  81.4179325  33.5969281
 114.6774006  81.2264156  34.0881872 115.5313110  80.7176208  32.9467177
  33.0051041  89.1773796  71.7757607  33.3136320  89.7905636  71.1086416
  32.6868081  89.7355461  72.4852514  91.5959358  83.5900116  47.6732540
  91.0402584  84.1412258  47.1222448  92.0525455  83.0178738  47.0564938
  64.3658304  26.6637301  43.9615440  63.8909531  26.4922595  43.1483316
  64.0440989  27.5173950  44.2513371  10.8734179  78.5064650  78.3566380
  11.6643846  78.5988951  77.8255463  10.9584212  77.6449108  78.7649679
 103.0111885  55.9029675  73.3985329 102.9703712  56.7797899  73.0167723
 103.2624912  55.3358078  72.6695538  30.3352571  80.2826500  60.3205204
  30.1488972  81.2215233  60.3169727  31.0619903  80.1850414  60.9357977
   3.5097572  56.5177059  40.9751177   3.0763045  56.1674929  41.7533827
   4.1815060  57.1062469  41.3195086  92.3073006 103.1465149  72.5654745
  91.6055107 103.2825184  71.9288969  92.9710102 102.6491261  72.0876455
  47.9227257   7.2806019  65.8154535  48.4668112   7.5171351  65.0642824
  48.2879019   7.7834249  66.5434933  12.2876477  73.6131668  35.7294154
  11.5888989  74.2398357  35.9172106  11.8334270  72.8437853  35.3859568
 104.5687199  89.6821404  69.7270870 103.9399242  89.4235134  70.4008532
 104.6328926  88.9184666  69.1535664  69.3697739  25.8756304  58.3805180
  68.4860420  26.2433004  58.3888006  69.5253420  25.6056261  59.2855740
  11.5948212  88.2880974  53.2855082  10.7043624  87.9369640  53.2903051
  11.8981051  88.1842232  54.1874266 111.1394596 102.7943039  53.9878654
 110.7219410 103.6035347  54.2828894 110.7632446 102.1135044  54.5457315
  34.5258904  88.5403252  32.6215601  35.3337049  88.5704422  32.1089602
  34.8204017  88.4452820  33.5273528   6.2202859  67.7998018  47.5352287
   7.0103830  68.2825661  47.2925043   6.3823003  67.5113630  48.4334421
 111.0910130  84.5949364  80.0622463 111.8466759  84.0701008  79.7981405
 110.4526043  83.9545631  80.3762436 112.8723335  17.7485180   8.3796018
 112.2761631  17.3546505   7.7426684 112.3135567  18.3137012   8.9130569
   7.7281177  62.8554392  55.9177637   8.3862573  63.1804085  55.3033733
   7.2720164  62.1647358  55.4370022  14.5078063  73.5857201  65.6682014
  14.9820793  74.2018318  65.1098967  13.6084211  73.6098671  65.3414679
  85.9157467  22.7786183  11.3933468  86.6858578  23.3459163  11.4298379
  85.8157253  22.4527311  12.2877884 107.2849941  95.1926708  55.1154327
 106.9664001  95.7867241  54.4358492 107.3381329  94.3404293  54.6828985
   8.2314682 100.7250309  33.6644387   7.3863262 100.3069210  33.8292289
   8.8627696 100.1843929  34.1392064  68.2446766  81.2044239  63.4353113
  68.7624836  81.9777393  63.6591101  67.7185488  81.4777279  62.6838303
  24.5089793  56.0749102  59.6978188  24.1814590  55.4349422  60.3297997
  24.6240067  56.8771887  60.2070856  55.4706860  70.2644587  94.4022369
  55.7138348  69.7921276  93.6059856  54.6261263  70.6644487  94.1949844
  88.1134033  55.1495743  39.5820665  88.6659718  55.8916759  39.8274016
  88.6264420  54.6748161  38.9281344  21.2080216  54.0724421  56.2848902
  20.5212045  54.7252083  56.4205742  21.7746234  54.1580105  57.0516205
  94.3772411  69.5438099  67.7696419  94.0760326  68.9171886  68.4275627
  95.1263523  69.9780273  68.1777000  35.8664393  91.1789799  49.5421839
  34.9719381  90.8868980  49.3667269  36.4166451  90.4481125  49.2605114
 103.5590267  38.6481667  61.3237762 104.2901611  39.1706491  61.6534567
 102.8048801  39.2358875  61.3694239   3.7697572  79.2512321  62.0400763
   3.0855638  79.7789097  62.4519873   3.8812962  79.6389675  61.1720610
  99.2414761 101.1929989  70.6642246  98.4621811 101.6995430  70.4354525
  99.9743748 101.7646599  70.4355192  21.9590855  74.1287374  56.1530876
  21.1082053  73.6930132  56.1043596  21.9774985  74.5213318  57.0258808
  27.2932601 106.6994476  92.2573853  27.4087787 107.2430038  91.4780045
  26.9638300 107.3027706  92.9234982  16.5994489  73.8015938  87.5051594
  17.3164642  73.6467409  88.1200886  16.5913057  73.0246162  86.9461727
  47.0347881  59.8971462  85.5546856  46.3000965  59.5121384  85.0769520
  47.0193386  60.8229923  85.3121853   9.4171715  83.3710575  69.8292112
  10.0150442  83.9423180  70.3113365   8.7930137  83.9694691  69.4186497
  99.0768528  67.9348183  79.7496891  98.2091999  67.6781082  79.4374228
  99.4266129  67.1447182  80.1615715  96.6244888  77.7399302  55.0528717
  96.4336205  78.4462166  54.4356585  97.2817707  77.2045326  54.6083879
 105.9511566  97.6698780  27.3048377 106.8825626  97.5177574  27.1448874
 105.5911255  96.7985535  27.4703741  13.1393063  31.7364073  85.6924248
  12.7634394  32.1869445  86.4487076  12.9585683  32.3172927  84.9534130
  97.6949310  63.6194611  92.7545357  97.8641987  64.5551157  92.8646564
  98.4721470  63.1915474  93.1137848 109.5290661  36.2295485  86.5351677
 109.4734764  36.9371653  87.1773720 110.4192734  35.8904600  86.6288662
  78.4229183  40.1622820   2.5443298  78.9419985  40.7479334   1.9931450
  79.0682840  39.7106361   3.0881581  62.6036882  85.1711082  78.0801296
  63.5567951  85.2330875  78.1432152  62.3621416  84.5180607  78.7369537
   9.2291981  76.0279131  93.9216709   8.9497405  76.8431568  94.3382263
   9.7576785  75.5877066  94.5873737  28.5347867  70.5762815  71.7969036
  28.2918787  70.2889013  72.6770401  29.3130612  71.1178732  71.9280529
  98.2233429  77.8876686  57.3455143  97.5026512  78.1367016  56.7668819
  97.9032612  78.0856943  58.2256079  23.1188607  83.0605125  48.9562559
  22.4481082  82.4239731  49.2035103  22.6348829  83.8727951  48.8072681
  53.2577848   1.3604783  53.8817501  52.9098701   1.5907118  54.7432470
  53.8007545   0.5884803  54.0412235  94.9255562  62.2260189  48.4765673
  95.8325291  62.4692965  48.2909918  94.9179173  62.0261335  49.4126320
  99.4987869  77.7288055  91.8471718  99.5361233  78.4784126  92.4412441
  99.6561337  78.1023455  90.9800243  27.8871560  99.8825741  55.7543373
  27.3775220  99.4728470  55.0553179  27.3508835  99.7701550  56.5391922
  38.0592608  87.5763798  75.1708508  38.2742572  87.8689671  76.0565138
  37.5610971  88.3013630  74.7934151  30.8997679  64.6623373  61.7385435
  30.1953912  64.0416622  61.9252300  31.5354156  64.1577005  61.2310743
  46.6236353  73.9958143  92.0443535  47.2423506  74.0288687  91.3147449
  46.1246681  73.1919813  91.8990326   8.1649882  82.1116543  63.4775543
   7.5719392  81.4168262  63.1916475   8.7625957  81.6802311  64.0882730
  27.3619437  98.6962128  75.6683254  26.6188025  98.7058163  76.2715483
  27.6828837  97.7949047  75.6980038 113.6487961  68.4610653  48.2912064
 113.4317303  67.9133034  47.5368357 113.0780315  69.2246199  48.2049131
   3.9062223  38.4244061   1.0396492   3.7800419  38.1471658   1.9470891
   3.6678779  39.3514538   1.0370943  16.9390953  83.8727856  52.3349857
  16.5347862  83.0443668  52.5928450  16.2660086  84.3177414  51.8200064
  14.6852374  99.4156456  54.1427326  14.3961632  99.1586113  55.0182915
  13.8760281  99.6174622  53.6729670  23.7434006 107.0463371  48.0632734
  22.9784727 107.4308681  48.4913445  24.3174934 107.7911186  47.8845215
  16.4935184  97.5972557  56.3103580  16.1120892  96.7440319  56.1035681
  16.3992035  98.1036568  55.5035782   5.7326829  64.0264893  62.6156807
   6.5869677  63.8283300  62.2320604   5.4092765  64.7710705  62.1084929
   6.9165355  54.4619226  40.3831768   7.6702434  53.9328480  40.1219606
   7.2989261  55.2614307  40.7448339  43.5139751  74.1395760  80.2886009
  42.7286577  73.6247921  80.1028347  43.5440445  74.7916746  79.5885372
  53.5290003  43.6976528   3.7177348  53.5820723  42.8320360   3.3126161
  54.4334507  43.9101791   3.9480296  33.2827187  75.2033281  75.6674910
  32.5039625  75.6186008  76.0380554  33.2663703  74.3112564  76.0141516
   2.0483027  62.4422121  68.7254667   2.0026095  61.4929867  68.6109447
   1.7033044  62.5941944  69.6052980  25.1478648  56.3295460  70.6923342
  24.9341321  55.4036045  70.8071375  25.2136374  56.6724634  71.5835762
 112.7902889  87.0021343  64.9660158 112.1982002  87.7443790  64.8445845
 113.4140491  87.2992229  65.6285048   5.7232308  47.2796488  44.6330166
   6.2069136  47.9746437  45.0794077   6.2093496  46.4806318  44.8367071
  21.4885521 103.0614662  79.8712730  21.7180920 103.9784050  79.7204113
  20.5830264 102.9885101  79.5697212  97.8091717  28.6027861  19.9321795
  98.2044601  27.7579927  19.7169960  98.0924034  28.7781215  20.8295465
  47.1083260 104.6328068  17.0646048  46.1959267 104.7679710  16.8087029
  47.2208738 105.1747990  17.8455055  25.6202745  99.2007542  77.7335405
  26.2967682  99.0164757  78.3851767  25.6898499 100.1422882  77.5757360
 114.5183372  28.8134146   1.2440131 114.0801620  29.1433930   0.4595674
 114.0956116  27.9725647   1.4186850  18.7867689  93.7521362  65.2287006
  18.6238730  94.6626186  65.4751110  18.3879018  93.2388210  65.9313011
  35.5871773 102.2841454  86.1986065  35.0225592 102.2361279  86.9700623
  36.3847160 102.7109241  86.5117073   2.3713070  89.4010639  27.4242806
   2.3753251  89.1393661  26.5035582   1.6708007  90.0504971  27.4856377
  18.6488593  67.6272774  18.4898174  18.6434555  67.2751617  17.5997519
  19.1133690  66.9680023  19.0053904 104.0159988  78.4602594  62.0075560
 103.8814926  79.2364836  61.4638424 104.7752571  78.6758232  62.5491238
  45.4908705  79.2672825  77.8850651  44.9514580  79.5065260  78.6387396
  45.6599665  78.3320236  77.9987860  14.7748542  93.6590290  90.0320816
  15.0618911  94.1804790  90.7817078  14.3836761  92.8764534  90.4204082
  69.3293095  48.1469107   4.3859896  70.1318169  48.5541391   4.0598366
  69.2106104  48.5180712   5.2602792   9.5248610  39.1360331  13.6875772
   9.4891214  40.0220871  14.0479398   8.7336415  38.7108445  14.0183616
 100.0925827  90.8368492  84.0730572 100.4911423  89.9677372  84.1181183
  99.3848228  90.7430172  83.4354877   8.8158530  90.1785183  86.9026756
   9.2686999  90.8093929  87.4622726   8.8768077  90.5514526  86.0232258
  75.8540392  55.9445047  30.3477979  75.4564953  55.8079576  31.2077641
  75.3321171  56.6417074  29.9506330   2.0993419  52.8521299  82.9093933
   2.4220583  51.9513798  82.8822231   1.3954991  52.8349161  83.5578823
  97.7467728  59.7709942  69.8814487  97.6241207  59.6934652  68.9353132
  97.6541233  58.8763952  70.2090788 114.9986267  65.2579689  58.2186508
 115.8363342  64.8507929  57.9979944 114.4221973  64.5225573  58.4263039
 105.2555180  61.6387129   6.5765601 104.4572353  61.3763905   6.1181259
 105.9590912  61.4639091   5.9515303   0.1989893  76.9737005  73.2937860
  -0.2806040  77.7918148  73.4238291   0.6002287  77.0660400  72.4296618
   4.8804531  94.1452217  87.6824665   5.0567251  93.6843014  86.8622684
   3.9630616  94.4101715  87.6159286 106.7982388  83.2290554  44.0638065
 106.2178421  83.8982391  44.4265032 107.0645714  83.5783863  43.2133532
   5.6207204  81.0527802  81.0404873   5.4485500  81.5319157  80.2299213
   4.7678450  80.9968567  81.4714241  68.1334305  18.6799836  84.0911102
  68.5763168  18.9408207  84.8986149  68.2116222  17.7261662  84.0724182
  19.3802333 102.4170971  44.3395901  18.7233341 101.9425201  44.8489952
  19.9292791 102.8452682  44.9964476  22.8414774  -0.2694440  63.7684822
  22.7496839   0.2729594  62.9851532  22.8345370   0.3547161  64.4941616
  15.1861846  85.3081226  80.1142788  14.8680222  84.6111870  79.5404482
  15.5666113  84.8475933  80.8622169   6.5030885  77.2111893  92.2180462
   7.4007964  76.8808460  92.2530556   6.5885967  78.1531525  92.3651028
  58.0093336  38.3950639   6.3493556  57.2878361  38.9604139   6.6251224
  57.9672194  38.4022307   5.3931093  19.1601741  76.7990112  44.5914459
  18.3596766  76.2824392  44.6841145  19.2906427  76.8710232  43.6459160
  30.8407116  69.8684645  61.2366390  30.4680037  70.0347233  62.1024799
  30.4367328  69.0474558  60.9556103  50.0073862   1.0627051  69.7607327
  50.0454330   1.9977355  69.9619865  50.0255156   1.0225822  68.8045454
  92.4587345  66.2985277  79.2349386  92.4218178  65.3842783  79.5160437
  91.8243599  66.3551903  78.5203791  31.0120845  88.0729771  69.6291113
  31.3292837  87.4678040  70.2994680  31.5819097  88.8380146  69.7081327
 100.6044674  41.3384581   5.0498486 101.2824345  41.0586691   5.6649244
  99.9638653  40.6272936   5.0597167  70.6060410  73.1838322  53.8635349
  70.6400728  73.8492060  54.5508146  69.7259331  72.8137350  53.9318371
  66.5743351 102.2655678  68.9301300  66.3142300 102.6429558  68.0897999
  67.1041107 102.9464912  69.3447638 113.8452625  78.0096579  77.8218746
 114.1880035  77.6534986  77.0021725 113.3394337  77.2914743  78.2021093
  89.9319172  42.9319763   0.6357107  89.3532085  42.6258516   1.3340062
  90.2180862  42.1324301   0.1940481  16.0238755  84.5264816  65.4607201
  16.0400271  85.1028347  64.6966553  15.8711672  85.1140499  66.2007666
   3.3409998  77.6692343  51.0452080   3.1700820  77.4106789  50.1395750
   3.5875565  78.5923815  50.9882736  76.0238457  99.4937229  83.0414391
  75.7881737  98.9672184  82.2775745  76.5972948  98.9258099  83.5560894
  31.1676598  67.2634411  82.0191479  31.8264294  66.6245317  82.2912693
  30.3866339  67.0308256  82.5212669  97.6039124  20.8246970  53.1393385
  96.7780590  20.7967782  52.6562071  97.6389408  19.9876642  53.6023521
  19.4566965  98.5303116  66.7111635  20.0089574  99.0174007  66.0996199
  19.8245513  98.7248325  67.5731850 114.3723297  48.6317587  47.4398136
 115.2553844  48.6737204  47.8068113 114.4042969  49.2035484  46.6728258
  39.1143751  93.3608532  51.0975313  39.6237659  93.2694244  51.9027615
  38.3127999  92.8647232  51.2635660  95.7890224  77.3084211  74.5733213
  95.4275417  77.1045065  75.4358625  95.5037308  78.2055378  74.4000530
  13.5164511  49.2109489  50.5542469  13.0690253  49.6298218  49.8190022
  14.4358444  49.4538593  50.4449654   6.4915335  76.6490030  62.4030209
   6.6118872  77.5822496  62.5785065   7.3511171  76.3478422  62.1086597
   3.4638712  80.7282925  65.5220079   2.9354373  80.5419731  64.7459412
   4.0991753  81.3811588  65.2280951  48.2493067   6.6850668  45.5375767
  48.4609461   6.2715793  44.7006369  49.0985584   6.8296331  45.9548330
  93.1340122  57.6864815  61.4146328  92.2480106  57.3326206  61.4922476
  93.2857609  58.1366777  62.2456074  78.8645792  79.2950439  66.9596195
  79.3451548  78.4673309  66.9466972  79.4857693  79.9270439  67.3214579
  28.6448646  42.0969391  94.4061947  29.5990348  42.0274973  94.4372845
  28.4697080  42.6510715  93.6456013  12.6206946 104.3159008  61.7195368
  12.0078647 104.3246841  62.4547863  13.2373226 103.6147022  61.9300461
 110.0517178 107.4351501  92.7365875 109.7407055 108.3010197  92.4724293
 110.9764481 107.4271488  92.4895191   8.0893308  75.5108452  43.6925888
   8.7507790  74.8366737  43.5369968   8.0711079  76.0200405  42.8822660
  14.9884510  63.5199642  40.7444191  14.8710668  62.7847672  40.1428080
  14.1441083  63.6041164  41.1874008 113.4228611  80.6475544  79.4104338
 113.6326694  80.0443363  78.6974525 114.0212059  80.4017925  80.1159954
  59.0427256   7.0326519  66.0916758  58.5374022   6.4557183  66.6644144
  59.8206949   7.2559273  66.6026974   6.6300452  50.6836653  59.6942806
   5.9536493  50.3282022  59.1177702   7.3624575  50.0733137  59.6089697
 111.2035847  66.2652206  67.7431154 112.1240425  66.4142275  67.9593897
 110.8109665  67.1381474  67.7526331  11.3523638  64.4221926  59.1406679
  10.7108569  63.7698174  59.4219398  12.0907414  64.3052769  59.7384691
   9.1942286  72.1178341  64.0235996   8.4108829  72.6679134  64.0278959
   9.6973979  72.4234915  63.2688665  25.8040786  87.0268536  65.3485632
  25.5368829  87.5051689  64.5636702  26.6748762  87.3681450  65.5521965
   8.8041067 108.9802074  83.3330441   9.4208878 108.9803886  84.0650368
   9.3573159 109.0331459  82.5536919 100.8941555  89.2656994  87.6876259
 101.0695553  89.1352177  88.6195278 101.0397339  88.4055138  87.2937775
  14.6636665  55.9926844  44.1550016  14.0982902  56.0520935  43.3849001
  14.7099543  56.8889475  44.4878674  99.7313881  92.2465992  50.2692938
  99.6157932  92.6408100  51.1338615  98.9137363  92.4352646  49.8087740
  52.8453541  67.9030848  75.9074163  52.2937298  67.6981735  76.6623688
  53.5118055  67.2160149  75.9042120  12.0339715  76.2160349  56.7304707
  11.4037931  75.6050825  57.1123695  12.8530228  75.7221937  56.6916513
  17.6301897  83.5614014  54.9326706  17.2873592  83.8656616  54.0923595
  18.3071876  82.9262161  54.6993160   8.6063898  42.0549011  84.5078468
   9.2395318  41.4557314  84.1124249   9.1050011  42.8549767  84.6736717
  58.7430859  76.9947624  93.8050842  58.4373569  77.3038721  92.9523087
  59.2393732  76.2003422  93.6080360  53.7552309  85.1150703  76.3695526
  52.8671217  85.1871395  76.0198402  53.6425018  84.7043228  77.2267628
   0.9400084  82.3622322  52.2381639   1.8928328  82.3435020  52.3276424
   0.7574344  83.1899452  51.7934275  85.0625610  15.7190561   7.7765971
  84.6862030  16.4836431   7.3407155  85.8180523  15.4839766   7.2378916
  13.2106173  80.6349373  91.7718601  12.7356696  80.8067226  90.9587479
  12.5469112  80.2885818  92.3683167  40.2986145  98.7536907  89.1895676
  40.3825665  98.8147640  90.1411152  40.4058313  97.8218079  88.9989758
  66.3008881  83.9636612  62.8144503  66.4800644  83.3736229  62.0823383
  65.8023310  83.4314728  63.4344864  90.4876041  31.7085385  21.6139150
  90.5525589  31.2873483  20.7568216  91.3215828  31.5126038  22.0408940
  50.5837631  18.8965821   0.3751879  50.8970308  18.1521046   0.8888527
  50.7894278  18.6659873  -0.5307707  27.8328419 106.1674118  69.9830294
  28.2339334 106.3036346  70.8413982  26.9648385 105.8139515  70.1776266
  94.2196655  93.8319778  76.9363117  95.0587082  93.3817291  76.8387604
  94.4276714  94.6200180  77.4382639  13.5208428  69.1235590  82.6282406
  12.9368091  69.5791769  83.2345009  13.8047850  69.8010015  82.0144939
 112.0796776  73.9128017  60.3411007 112.0149422  73.3652115  59.5586777
 112.6901436  74.6084118  60.0967741   1.0474186  98.9417076  50.9714746
   1.7293841  98.9480114  50.2998257   0.2269316  98.9111423  50.4794407
  15.2402771  76.6456509  60.0704193  15.7168984  77.2604609  60.6281614
  15.8143318  75.8820343  60.0105476   3.8101417  65.4878521  55.2833462
   4.5417652  66.1024618  55.3400660   4.1069102  64.8184538  54.6668530
  34.2563891  94.2997456  75.7989550  34.4454098  93.4713364  76.2396765
  33.3450794  94.2188358  75.5175209  18.6684704  97.0070362  84.6584511
  19.3685913  97.6442432  84.5169258  19.1119075  96.2409306  85.0226974
   9.8591518  81.3276672  83.1559467  10.7592690  81.6474056  83.0943584
   9.3878561  81.8060589  82.4738503  44.0150404  73.5538912  63.1088591
  43.9095259  72.9972982  62.3372984  43.7056446  73.0150795  63.8369989
  18.7939155  84.7582150  35.1110172  19.1104865  84.4815826  34.2510819
  18.2595825  85.5319595  34.9320078  25.4392862  90.0979900  51.7705297
  25.6587124  89.3748093  52.3579741  24.6733451  90.5085564  52.1717834
  62.1486235  91.2421417  12.4383771  62.6280069  92.0536900  12.6051772
  61.7279005  91.0365772  13.2732236  11.8017006  96.5154362  70.2495670
  12.4581468  95.8420563  70.0710297  11.0278904  96.2304020  69.7635603
   3.7780803  64.9922132  40.6311131   4.1699165  65.3058863  41.4461613
   3.8896808  65.7178450  40.0169134   6.9650745  51.6606712  86.3247204
   7.2105312  52.1013880  85.5112362   7.1764946  50.7397795  86.1714363
   0.1073443  67.0394850  47.3124361   0.4958950  66.9068432  48.1771135
  -0.1350024  67.9653931  47.2982311   6.8368757  81.8942356  40.9434938
   6.3561058  81.6181087  41.7237759   6.2560695  82.5223351  40.5140877
  37.9376984  61.7823935  77.1033859  38.7345386  61.6025686  76.6044474
  37.5578785  60.9192181  77.2673893  25.3952575  69.6835327  73.3569717
  24.9113512  69.5851278  72.5369835  25.3440380  70.6187153  73.5545588
 103.9365482   6.8069309   2.3461156 103.0930233   6.3881665   2.5173831
 103.9992142   7.4978888   3.0055726  15.0075400  68.1382990  32.5546908
  15.6622386  67.4411583  32.5946927  15.0534523  68.4585857  31.6538334
  22.5433207  96.2003136  70.3892803  21.9519830  96.0527706  71.1273766
  22.6357555  95.3396606  69.9806786 113.2103348  86.5169621  80.8981991
 113.5757828  85.7111835  81.2634373 112.2653103  86.3656235  80.8821774
  13.5410583  83.6577988  20.3025246  14.1093755  84.1580963  20.8881426
  14.0436375  82.8695965  20.0966811  64.9113083   6.7903346   5.7202142
  65.1573706   7.4640608   5.0863540  65.2516127   7.1114111   6.5552795
  29.5475650  88.4785366  44.1824436  29.1849113  89.0536499  43.5086823
  29.7992039  87.6850319  43.7099409  33.8653517  74.7661257  64.4005489
  34.6340609  75.2172041  64.0514851  33.5773015  75.3138494  65.1307917
  38.7442303  76.2522316  90.3139591  38.7160420  75.3703022  90.6849575
  39.6751618  76.4215946  90.1693344 111.2045574  99.4305515  78.6710596
 110.6384754  99.6781063  79.4021559 110.8102512  99.8542786  77.9086876
  10.7288361 101.3161659  84.6347713  10.7184100 100.4556561  84.2156696
  10.7390368 101.9371891  83.9064407  41.5172482   9.1691923  33.3576775
  40.7381725   9.1022897  33.9097571  42.1688700   9.5963210  33.9137197
  36.6574192 100.4825211  53.8760996  35.8567667 100.9396172  54.1334820
  37.3562050 101.1183453  54.0299082   9.1326284  68.5140038  21.9855452
   8.8102162  67.9830313  22.7137971   8.8086456  69.3955994  22.1700788
  44.2636061  19.0960491   1.9880861  45.2042150  18.9874911   2.1284488
  43.9425755  19.4808292   2.8036329   3.7250936  97.1818447  60.6991482
   4.1062641  98.0351448  60.9060955   3.4585661  97.2544956  59.7826815
  98.0939865  66.4793730  21.5892649  98.6345673  66.2586832  22.3477483
  98.5821629  66.1383438  20.8398509  16.0120785  93.0334854  39.8884487
  16.4505756  92.5025558  39.2235684  15.3658307  93.5433292  39.3999267
  22.6949453  20.5175734  38.6708093  22.5271034  21.4393783  38.4750199
  21.9130325  20.0606608  38.3608532  59.6705818  72.7636528  12.9792225
  58.7894297  72.5468302  13.2838333  59.9914360  71.9553280  12.5793493
  40.4790020 107.0348549  58.8395977  39.7066522 106.7511940  59.3287230
  41.1305809 107.2301960  59.5130348 112.1243858  91.1255169  71.8098736
 111.5174103  91.7995834  72.1155548 112.7724075  91.0512161  72.5104284
  99.6777344  23.5732675  10.0400925  99.3633938  24.4605064   9.8662186
  99.0430355  23.2111716  10.6583786  46.2578821  21.1347556  76.8830395
  45.3107023  21.2289095  76.7819548  46.3682508  20.3011727  77.3404121
 110.6322002  95.1999474  50.7322311 110.3450680  94.9064922  51.5969133
 110.1586628  94.6377945  50.1190662  91.7394257  23.4046912  14.8058438
  92.5531673  23.8800168  14.6381485  91.9011784  22.9339027  15.6234181
  20.6990480  66.9576025  72.1299839  19.8057711  67.2314835  72.3380232
  21.1249399  67.7528000  71.8098068 101.4912319  76.2428856  86.7991447
 100.5677509  76.4876032  86.7397881 101.8980408  76.9593811  87.2863579
  22.1882582  86.6615582  72.1103621  22.8725886  87.1382332  72.5801516
  22.3146009  86.9034481  71.1928892  85.1559448   4.5736945  80.7015324
  85.3946400   5.3371406  80.1757908  84.8980427   3.9120436  80.0597095
  96.3601398  96.9323444  57.1053505  97.1949005  96.9933701  57.5697803
  96.2756634  97.7718067  56.6532516   7.4800020 104.0051651  79.5377827
   6.8444240 104.0437698  80.2524757   7.1639299 103.2990837  78.9740610
  20.3173518  62.2632408  62.2829390  19.6787035  62.2943449  61.5706253
  21.1298490  62.5824356  61.8902588  43.3914042  96.4338875  77.8049564
  43.2774067  95.6364155  77.2879696  42.5152206  96.8164635  77.8514719
  71.2386179 106.1518574  41.8046856  70.4363441 105.6615639  41.9841385
  71.6275740 106.2985802  42.6669025  49.7344303   3.7819013  70.3623104
  50.5205345   4.3279919  70.3550625  49.0095234   4.4049230  70.3114700
  19.3423331  77.5879860  38.6175537  18.4054399  77.7493000  38.5060191
  19.7451591  78.4528399  38.5401893  30.2016306  97.6160812  73.8744974
  29.5516324  97.4489975  73.1919861  29.8435354  97.1931553  74.6549702
   3.4561694  92.0953846  72.9374981   4.0663335  91.3811016  72.7538347
   3.7489083  92.8113842  72.3736906  20.9702516  94.8101997  62.5062132
  20.4642963  94.1915131  63.0329704  20.4979730  94.8593616  61.6750908
   8.6359447  91.3210773  93.1123257   8.7679315  91.1171818  92.1864605
   9.2022520  92.0755386  93.2745266 105.2698708  81.7236614  64.6166086
 105.3282928  81.8540001  63.6701250 105.6192303  82.5320339  64.9917173
  26.9573903  83.2097816  78.7906694  26.9811702  83.2232285  77.8338575
  26.1443830  83.6617661  79.0164232  56.4994669   5.0196981  38.6917186
  56.2477303   4.8338675  39.5963335  57.4523735   4.9294180  38.6849117
   0.9786889  77.3141432  47.9712105   1.4638990  78.0953026  47.7055168
   1.6401781  76.6234589  48.0114317 114.3986320 106.4073086  74.4272280
 115.1850891 106.9506359  74.4773388 113.7415695 106.9737339  74.0226793
  99.5726967  45.3676367   2.3107119  99.4908237  46.2131691   1.8695700
  99.0524387  45.4623938   3.1085771  51.3732147  89.5115662  67.2437334
  52.2602749  89.8501492  67.3650599  51.2125015  89.5923901  66.3035917
  14.9341393  37.2252059   7.3431373  15.3060019  37.5472450   6.5220159
  14.7234452  36.3081932   7.1672767  10.7779193  79.3296099   2.2198573
  10.4783916  78.6095667   1.6648275   9.9729663  79.7244501   2.5550926
  27.8177094  95.8161068  53.3425283  26.9282794  95.7889843  53.6952448
  27.9314137  96.7199993  53.0487728  32.7780938 103.9995098  67.8984690
  32.0354629 104.5320225  67.6135731  32.5416088 103.1060123  67.6495457
 109.5044994  16.4123178  72.7441978 109.1785049  16.3978994  71.8443394
 109.8606873  17.2937405  72.8558111  34.8902893 101.2966633  69.3938160
  34.8382568 100.8901787  70.2588558  35.2273440 102.1765327  69.5625114
  38.9118981  76.4422178  85.4478264  38.7041140  77.3437929  85.6932068
  39.2665172  76.0521936  86.2467957  18.0412591  81.0442543  69.1486454
  18.4681582  81.8870258  68.9946175  18.1425822  80.8926392  70.0883150
  23.3832693  94.3681335  34.0535998  23.4246159  94.8944950  33.2551861
  22.7236557  94.8034954  34.5936036  20.7738113  99.5769691  24.9117064
  20.9319472  98.8900948  24.2640710  19.9038815  99.9133492  24.6965313
  73.6108398  65.9294033  28.5582423  74.5557022  65.8262014  28.6714578
  73.2307100  65.1885700  29.0303588  12.0229733  89.0990829  93.0146408
  12.2583866  89.8531055  93.5552502  12.2759318  88.3396816  93.5395813
   1.9677508  93.4566021  83.7637711   1.2764624  93.1758881  84.3633938
   1.8076161  94.3914127  83.6344433  66.9169283  13.8498700  81.5838909
  66.6799641  14.7182143  81.9095612  66.0819149  13.4477174  81.3446140
   6.4871818 103.2487679  88.7343979   6.8720561 103.9036655  89.3168163
   6.4687335 103.6726284  87.8763485  30.1610255  57.2277927  82.1881485
  30.7266450  57.9061365  82.5571346  30.7671094  56.5807724  81.8272400
  20.7405090  60.8011627  56.6210794  20.8161306  61.7160988  56.8920088
  19.8446572  60.5560684  56.8526173  25.0470996  90.9219742  62.5172377
  24.2135000  91.0498142  62.0644665  25.4217839  90.1394844  62.1128321
  79.4102144  34.8245001   3.7348825  79.7503233  33.9786959   4.0267241
  78.6300325  34.6059680   3.2251835  20.8391953  86.1651993  89.0798950
  21.0087323  86.8034172  88.3869553  20.3612137  85.4596710  88.6439991
  88.2319832  34.2107558   5.5464321  87.6253128  34.8040891   5.9893101
  88.1344032  34.4182563   4.6171027   3.8180342 100.1401901  68.5471916
   4.3430153 100.7533932  69.0615892   4.3943235  99.3884087  68.4095430
  23.8815498  91.6687202  64.9095440  22.9397893  91.6231251  64.7445059
  24.2776585  91.6695690  64.0381527  88.6987686  36.8950844  11.6073859
  88.0048370  36.2362123  11.6315138  89.5068932  36.3963151  11.7273760
  10.0234270  79.0711212  50.7383871   9.4297677  78.6699390  51.3730955
  10.3843689  79.8309898  51.1950684  13.1039047  77.7779484  90.5399799
  13.7385786  77.1537352  90.8918095  12.3289931  77.6679087  91.0910130
 100.1514053  65.6123018  23.2254004 100.7646179  65.9328222  23.8868070
 100.0318909  64.6867180  23.4381175  44.0957546  10.1733232  75.4139757
  44.6817255  10.3501904  74.6780491  44.4812441  10.6523561  76.1475706
  16.6287732  85.4541779  77.2363949  15.8237159  84.9852562  77.4560022
  17.1907198  84.7907829  76.8359470   0.9685897  72.1362495  69.6352291
   1.5723109  71.8958664  68.9323997   1.1249740  71.4845562  70.3186560
  14.9716711  37.6384783  21.5890956  14.6218240  38.2318473  22.2537398
  14.2518258  37.0354414  21.4036250  19.4648802  68.9276981  59.8755503
  19.7297418  68.0089808  59.9206591  18.6969852  68.9278030  59.3040895
  18.5219395 104.8729038  60.6679583  19.4240439 105.1924801  60.6503153
  18.3546031 104.6788025  61.5902138  12.2584009  76.6853094  73.8821983
  13.2071304  76.7013073  73.7561512  11.9583571  75.9489918  73.3492422
  41.5085316  95.0881386  59.1031885  41.8469858  95.9832287  59.0811348
  42.0789003  94.6016693  58.5079861  34.4291806 105.6645393  76.4160395
  34.4528866 106.5891838  76.6624451  33.8425326 105.6330204  75.6603384
  11.8941069 106.2474632  27.6245451  12.4035931 106.8455219  27.0777440
  11.1645532 105.9762287  27.0673990  63.6399698   0.2690311  61.6487169
  64.1671467  -0.1887449  62.3035097  64.1686821   1.0284617  61.4038515
  73.5368776 103.4880352  17.3880291  74.4363117 103.8154411  17.3958313
  73.4004164 103.1840706  16.4906895  73.5619974   2.4495305  80.5266857
  74.3767881   1.9538069  80.4454231  72.8719711   1.7910108  80.4463959
  35.7787967  95.3778648  47.6032877  36.2432170  94.6215153  47.9617262
  34.9820042  95.0104427  47.2207308   6.2519038  82.9518223  50.5047274
   6.5153724  82.6450539  49.6371412   6.4064789  82.2030735  51.0806751
  49.2867804  98.7167072  53.9557838  48.6620665  98.0500603  53.6702156
  49.9135303  98.7819386  53.2352591  67.4442959  11.5415645  78.6955690
  66.4902210  11.5613759  78.6208200  67.7574015  11.8742323  77.8544188
 111.0406017  83.6155033  62.2330427 111.4669323  84.1287994  61.5467501
 110.3805256  84.2049122  62.5978994  84.0993309  48.5610390  21.7011571
  84.8417187  48.3022738  22.2471714  83.4629726  47.8546000  21.8117142
  40.7501173  26.7436433  94.5285797  40.9630728  25.9934759  95.0836754
  40.5385780  26.3595915  93.6777115 107.7788544  24.8951244  48.4206486
 108.5196018  24.8290038  47.8180218 108.1734848  24.8473120  49.2914057
  41.2193584  63.5603333  70.8854246  40.8443403  63.1412315  70.1108599
  40.5555153  64.1925955  71.1607218  19.0460920  91.4126396  54.7306538
  19.1601586  90.5796909  54.2730284  18.1550467  91.3748646  55.0782824
  12.1415591  77.0780420  42.2172689  11.5062439  76.4033985  42.4569798
  12.9123306  76.8811798  42.7496099  59.9361849  91.1468506  44.9592972
  59.3059206  90.4266357  44.9424887  60.3948545  91.0443211  45.7931709
  59.9753380  93.1209087  80.7229519  59.1349697  93.4673977  80.4230213
  59.7906685  92.2102356  80.9527302 115.2766418 101.6584873  90.5083370
 115.5148506 102.4167156  89.9748802 114.9400806 101.0197163  89.8799038
  19.6076095  97.2432613  36.1937356  18.7493801  97.1967125  35.7724190
  20.2324176  97.1264744  35.4780483  92.7946409  37.1778743  94.7838091
  92.9008397  37.5824134  93.9228162  92.1959624  36.4464729  94.6325961
  28.9014196  82.9675007  55.8413506  29.7743273  83.1863689  55.5152225
  28.3422565  83.6763573  55.5233908  34.3244219  55.3554010   8.2004195
  33.9350224  56.2255526   8.2866639  34.7284555  55.1883411   9.0519351
 110.0806522   1.0202836  21.0146451 109.5694733   1.1253652  20.2122235
 109.6369076   0.3186795  21.4911675  71.5811586  10.4042292  83.5697746
  71.7177296  11.2530696  83.1490040  72.0844460   9.7888732  83.0366039
  35.7282305  82.8841019  90.7101345  35.2522659  83.6897278  90.5084801
  35.6414652  82.3505306  89.9201965  30.7961082  15.0703406   5.9190470
  30.4539657  15.9417343   6.1186546  31.7145896  15.2193141   5.6944829
  26.1335659  93.4588242  62.1478558  25.8757639  92.5374413  62.1191740
  25.4060602  93.9240551  61.7349052  66.4433908   3.9495781  76.7756319
  67.3857880   3.7855747  76.8106842  66.0459852   3.1214061  77.0447588
  39.6373391  76.8834686  73.0491209  38.7236929  76.6214418  73.1623697
  39.8125696  77.4666262  73.7876654 104.3391323  27.8196645  40.6156588
 104.6771908  28.2793927  41.3841581 104.1372681  26.9393611  40.9327459
  78.7784958  10.4201102  49.3069839  78.1303453   9.7976106  48.9774084
  78.4011221  11.2798667  49.1208696  41.0035515  74.6028185  60.1859856
  41.3871574  74.2259789  60.9778643  40.8075237  75.5093050  60.4228067
  46.5545321   7.9313827  76.2432241  46.1107302   8.3202189  76.9969368
  47.3740911   8.4203577  76.1693668  42.2383261  22.6840377  69.8864365
  42.9298735  23.1956244  69.4665909  41.4750385  23.2615948  69.8790026
  88.7565517   3.5823250  41.3111496  89.4679356   3.3553925  41.9100332
  88.9135075   3.0416560  40.5370235 109.1357136  96.6668510  79.9715567
 108.5201931  97.3955917  79.8921824 109.6416855  96.6911411  79.1593790
   8.1000036  75.1024675  33.8508415   7.8516769  75.9911966  34.1052628
   8.2435459  75.1551151  32.9059315  33.9626789  10.7132638  63.4614992
  34.8921871  10.4906809  63.5134840  33.6522317  10.6579220  64.3652678
 104.2480373  77.8833485  75.3852272 105.0917816  78.1343555  75.7611609
 104.2810631  76.9278240  75.3392553  15.1305854  67.0691586  53.9655113
  15.4632723  66.2222338  53.6684132  14.2956281  66.8642473  54.3863344
  38.6886406  68.5726929  84.6610928  39.1616011  67.9738140  84.0832710
  37.7989459  68.2211351  84.6939945  22.9134893  86.1859894  57.6845837
  21.9728661  86.2946701  57.8247643  23.0496359  85.2385998  57.6971436
  65.5890465   7.4989915  53.1358242  64.7751284   7.9127097  53.4232330
  66.0918474   8.2100248  52.7385139  10.4781044  86.5976048  59.2548466
  10.6215656  87.5119209  59.0105629   9.8401135  86.6373253  59.9673223
  46.4537191  88.0365372  67.0316505  46.0827065  88.3984566  67.8363848
  47.3808289  88.2717991  67.0683861  11.0020792  86.0458565  64.7345781
  11.5127432  86.6184711  64.1622448  11.5066540  85.2333260  64.7724247
  45.3755474  90.9076691  72.9362917  45.5547285  90.8196259  73.8724375
  44.4235134  90.9904194  72.8813982  62.1298838  26.6521311  26.8795156
  62.8388166  26.0106158  26.8336368  62.0610332  26.9970822  25.9892893
  23.5057759  95.7341576  31.5976977  23.1348133  95.6797123  30.7169867
  24.3981647  95.4012108  31.5027118  42.6631403 104.2676449  69.8076725
  42.7148628 105.0316525  70.3819942  41.8287611 103.8555717  70.0318098
  17.8599632   9.0168965  74.2211056  17.0158362   9.1901523  73.8043737
  18.1811726   8.2243371  73.7910986  48.4853935  11.6993296  63.3015156
  47.5295401  11.7186415  63.2545280  48.7708712  12.3147118  62.6262093
  72.6777124   1.8440661  57.7775764  73.1642962   2.6673594  57.8182697
  71.7580080   2.1077088  57.8070164  62.0519114   4.6314418  38.3687115
  62.2957993   4.3887755  39.2619443  61.9349527   3.7957078  37.9169369
  24.7974133 104.9828434  81.0494423  25.0221348 104.3384743  81.7206573
  24.1686225 104.5321751  80.4857540  22.4010110  93.1354809  79.0668058
  21.7620206  93.1321144  79.7794819  21.9237328  93.4947205  78.3188868
  20.5242419  98.8486481  81.8400192  21.0966706  98.1189060  81.6032982
  20.0739217  99.0736675  81.0258865  75.0771332  12.8567815  90.3046322
  74.3372965  12.3821449  89.9256992  75.5166912  12.2120464  90.8590126
  26.6346073 104.0605259  35.3396893  26.6630650 103.1044769  35.3023124
  26.0534668 104.2542744  36.0751939  12.6956594  73.2533360  52.9584074
  11.8315780  73.5233116  52.6474285  13.2287884  74.0463734  52.9027605
  18.3392000  67.0442629  65.8264446  18.2303238  66.2293148  66.3165903
  17.4591053  67.2560072  65.5152702  46.1396074  23.8336945  63.4178543
  46.9172907  23.2797933  63.4859610  46.4413881  24.7034979  63.6797762
  28.4063768  89.5213413  76.9081211  27.9823470  89.1141891  76.1527014
  28.5218740  88.8052750  77.5327253  47.4860287  81.4732838  79.8714542
  46.6206312  81.6849327  79.5214128  47.3914242  81.5703773  80.8190060
  33.8172054   7.2954470  81.3173962  32.8735757   7.4081552  81.2029648
  34.1170025   6.9274068  80.4861927  27.2002554   8.8462985  62.8525352
  26.5870953   8.1286877  63.0115986  28.0155778   8.4131217  62.5998783
  17.7838349 100.2334690  76.1327696  17.3752308 100.6964588  76.8641424
  18.7234020 100.2960110  76.3046265  25.5473447  83.8834381  70.1781893
  25.4851866  83.6570740  71.1061573  25.8710694  84.7842216  70.1725435
  24.5675564  91.4220810  90.3367043  24.9405575  91.0380554  89.5432186
  25.2305198  92.0441818  90.6362057  73.7538099   2.3280863  13.1211019
  73.1800985   1.9843328  12.4363220  73.8901997   3.2447189  12.8814876
  27.1633911  77.4104834  57.5041437  27.7408266  77.2412443  58.2485628
  27.7571416  77.5322628  56.7632914  80.3002357  10.5555427  51.6364717
  79.9368572  10.3752029  50.7694864  80.8282757  11.3446915  51.5154409
  13.8066268 101.2834263  43.6322308  13.0204368 100.7388496  43.6718035
  14.5311344 100.6579208  43.6245871  54.2934561  91.2123585  48.0735493
  54.0079641  91.1649990  48.9859533  53.5576725  91.6157818  47.6129913
  76.7162371  53.4628916  10.5995595  76.9755936  53.6108017  11.5090036
  77.5373507  53.2793093  10.1431596   5.4248792  74.5832920  84.7893810
   5.2242035  74.9087286  85.6669044   4.6593982  74.0626001  84.5461655
  49.7686863   0.8417612  67.2763634  50.3945398   1.2341848  66.6676426
  48.9231110   0.9212921  66.8348837  31.1208057  91.3062954  37.8147602
  30.9037709  90.4272366  38.1252289  31.6206884  91.6968441  38.5315728
  15.0401580  89.5184135  46.0845375  14.1687632  89.2396069  46.3659096
  15.6407142  88.9484787  46.5648842  17.6186514 101.7058945  32.7239728
  17.1728086 101.2849331  33.4589863  17.2605145 102.5933266  32.7030802
  83.6372471 103.5525990  82.2633934  83.0777550 103.7606430  83.0116749
  83.5769272 104.3225002  81.6978550  78.6360216  20.6022549  87.2496128
  78.7035751  21.5048909  86.9382954  77.7939558  20.5678129  87.7034473
 114.8680782 100.2766514  87.7519035 114.2973042 100.9563351  87.3934841
 114.4765377  99.4546986  87.4563980  88.6050701  37.2991610  17.6900244
  88.7510395  37.0594478  16.7748952  88.2519341  36.5055275  18.0921078
  24.1152763  83.7419796  65.7855749  24.5494175  83.6983776  64.9336052
  23.2226276  84.0236473  65.5853844  23.2635212  80.4771233  55.5593586
  22.6899886  79.9151897  55.0382853  23.6763692  79.8827696  56.1858845
  36.9817734  25.8546376  54.9324560  36.0904241  26.1854959  54.8217392
  37.1878743  25.4370975  54.0961456  18.1544709  80.5430603  73.5058212
  17.8973937  80.8872890  74.3611860  17.6565158  81.0661697  72.8776217
  19.3283403 101.0909367  38.7110853  18.6130881 101.3139725  38.1153488
  18.8936937 100.8675671  39.5341396  22.5232792   8.0021119  57.1864700
  22.5018644   8.9590251  57.1959972  23.2321286   7.7844155  56.5811825
 114.7112083  99.3352222  71.9553137 115.5914497  99.3959427  71.5841866
 114.7325230  99.9130726  72.7181196 111.4644527 100.2066040  63.9226580
 112.3009396 100.5849457  64.1935730 111.3992977 100.4124355  62.9901266
   4.5886093  92.2167015  65.9061527   4.2738962  92.5353336  66.7521191
   5.4852694  92.5460243  65.8446789 102.6369762  77.9787159  88.7541771
 103.2507324  78.2611942  88.0761337 103.1216621  78.0802488  89.5733261
   4.8688304  74.7298241  61.0022449   5.5880415  74.6602631  60.3744507
   5.1941800  75.3294086  61.6737175  30.8590627  92.9789543  77.3940802
  31.5716839  92.6191139  77.9222059  30.0989962  92.4429131  77.6203251
  47.2525406 104.5617676  90.4496956  47.1142054 104.4324017  91.3879681
  48.0156898 105.1371574  90.3971958  17.2481370  81.0349274  91.7221928
  18.1108618  80.8196735  91.3677883  16.8970013  81.6884708  91.1173534
 103.5017300  84.2206860  83.9942646 104.4367599  84.4189167  83.9427662
 103.2768822  84.3636131  84.9136353   0.5223323  64.1268253  64.7164106
  -0.1393479  63.4387159  64.6462917   0.6861074  64.3946600  63.8121605
  32.9082465  67.6733208  85.7966423  32.1026254  68.1759357  85.6758690
  33.1297445  67.7940893  86.7199993  23.3312297 102.8921795  58.9716482
  24.0026498 102.7068710  59.6282196  23.4243107 103.8276196  58.7912989
  43.3832073  99.5694256  82.7371025  44.2003298  99.9437714  82.4078465
  43.3385849  99.8565674  83.6491299  41.6165018  76.0989237  82.3616791
  41.4113903  75.5221844  83.0975723  40.7895994  76.1852598  81.8873215
 106.4529800  70.9187651  66.2252903 105.5963516  70.9796000  65.8025360
 106.9164944  71.7068005  65.9417677  31.0354137  89.2973328  79.2734671
  30.7673097  88.3802032  79.3301582  31.8114758  89.2858219  78.7132645
  12.3154211  81.8577766  66.5044117  11.4790606  81.6310310  66.0978174
  12.6915431  82.5204277  65.9250498  51.1026001   7.3430717  34.7382832
  51.0423660   8.2197326  34.3587184  50.8381224   6.7565393  34.0295768
 112.3057938 104.3039227  78.5174608 112.3349380 103.6076164  77.8613091
 112.7739525 105.0341702  78.1127357   5.9249550  71.7759848  45.4367781
   6.6231436  71.5129757  46.0364342   6.3252026  71.7304373  44.5684671
  19.4363570  88.9027405  68.3744335  20.0197005  89.6213245  68.1303596
  19.8100746  88.5554028  69.1843224  36.6443515   4.9669954  57.1506596
  36.2728620   4.9512443  56.2686300  35.9131765   5.2204686  57.7140141
  48.9608002   0.6016701  81.2263966  49.8786831   0.3308503  81.2460041
  48.8234997   0.9182306  80.3335571  55.3861952   9.2356938  66.5519667
  55.7777214   8.4786922  66.1162043  55.0845146   8.8972414  67.3949814
  73.8212156  17.6415801  73.5411596  73.2810831  17.3437214  74.2731237
  73.3589268  18.4062767  73.1979942  36.5130520  77.0206642  70.4701996
  36.6637707  76.6337919  71.3326645  37.1829319  76.6273689  69.9108982
  74.4124174  83.1347942  61.7013311  74.0499353  83.2968903  60.8303738
  75.3606987  83.1413937  61.5711212  41.1245489  92.7418518  49.0199327
  40.6300592  93.0651379  49.7730541  40.9501934  91.8007755  49.0050125
  34.4952440  65.4861450  85.5885124  34.4417858  65.1303720  84.7014999
  33.7764621  66.1163664  85.6375217  25.8601904 104.5551491  53.9545155
  26.0134387 103.6180401  53.8338137  25.3703880 104.8199844  53.1759357
   4.3123507  92.2788239  68.5584354   4.6203467  91.3725758  68.5493660
   3.6376324  92.2957039  69.2371845   0.4262092 102.2875214  64.0094090
  -0.3369759 101.7633629  63.7664366   0.3928373 102.3305035  64.9650621
   8.2097405  81.7067432  56.6313028   7.5815350  82.0190144  55.9800911
   7.7589703  81.8127632  57.4690390  10.1685774  40.7217455  16.0059524
   9.3038684  40.5779505  16.3904428  10.3153014  41.6637182  16.0919499
 105.7743359  21.6614866  19.0709662 105.7056427  21.6777015  18.1163716
 104.9402428  21.2952924  19.3649316 100.7089424  96.3626480  50.9130096
 100.7747364  96.6004753  49.9881649 101.4331436  95.7532120  51.0556984
  92.1041584  49.7139311   0.7426011  91.4730644  50.1093388   0.1412668
  91.8359852  48.7970114   0.8023793  34.4299269  97.0504665  42.7702045
  35.3545332  96.8062782  42.8114986  34.4043398  97.7897358  42.1626997
 102.9168510   3.3083159  73.2424355 102.3286819   4.0633541  73.2569456
 102.3506069   2.5677472  73.0252886   1.9531813  50.1633024  27.8348446
   1.9994076  49.2169809  27.9711294   2.3390941  50.5384159  28.6264181
  74.7317934  88.8694382  63.0748177  74.1843605  89.5183563  62.6327229
  75.2053261  88.4331036  62.3665714  68.7836170   2.9517496  54.5896196
  67.8521681   3.1591028  54.6647024  68.9143991   2.7706093  53.6588573
  39.3569613  55.7835817  73.4080219  39.6795988  55.8345747  72.5082779
  38.4189415  55.6160736  73.3169746  19.6115124  62.3865604  76.7932224
  19.8407269  62.1050549  75.9075308  18.9372253  63.0538321  76.6654825
  66.8842077  37.1532631  10.4672110  66.9148970  36.6876006  11.3029432
  67.8004646  37.2267270  10.2001774  15.2927148  50.2007246  74.9590158
  15.7135940  51.0336018  74.7459221  15.8378100  49.5404959  74.5309973
  18.8859141  75.6110239  71.6940832  19.4072807  74.9658632  71.2163973
  19.0230846  75.3944063  72.6163054  48.3059502  99.1783619  50.1294851
  48.6857033 100.0517273  50.0332737  47.4021244  99.3387413  50.4007959
  31.5236640  83.3731651  79.6023655  30.5778599  83.4798145  79.7039080
  31.6592836  83.3273315  78.6559296  54.0269566  85.5539322  60.0696087
  53.6621141  85.8270454  59.2278671  54.9015999  85.9423256  60.0888920
  44.6331215 101.7622375  47.6839018  45.2669048 102.4641609  47.5361013
  43.8076544 102.1098614  47.3462772  41.8018866  36.2539721  91.8654060
  41.9783497  37.1573830  92.1279716  40.9738016  36.3008213  91.3875771
  13.3884931  78.8462305  69.3835020  13.3051264  79.7857666  69.2205667
  14.3314862  78.6982775  69.4549513  22.6695871  89.2404556  75.1540375
  22.3347735  89.4079590  76.0349846  23.4725380  89.7587395  75.1004124
  13.5001016  77.1906567  83.3971882  13.5257053  77.4048424  84.3297672
  12.5851583  77.3191118  83.1469727  30.7525754  77.3470259  89.8305225
  31.2463164  77.9877806  89.3187714  29.9541855  77.1995163  89.3235302
   9.0895915  82.7616596  75.6990767   9.0452838  82.7068520  74.7444725
   9.1706628  83.6977673  75.8817291  97.6721478  31.5285063   0.1804454
  98.3691216  30.9425807  -0.1147627  98.0051327  31.9055796   0.9947988
  39.9874496 103.9660549  66.7651272  39.8545742 104.0281105  65.8192301
  39.8243093 103.0453777  66.9700146  65.6254196  21.9463205  59.4901943
  65.8271122  21.2519789  60.1174450  64.9335766  21.5787196  58.9402390
  59.1827106  74.3175840  88.1301594  58.7754107  75.0676870  88.5633850
  59.1158390  73.6071539  88.7681675  30.4548144  72.0154238  77.0945644
  30.0205040  72.5263739  76.4115334  30.0816250  72.3432875  77.9127741
  67.6602507   8.4801131  91.3427353  68.4388113   7.9604816  91.1425781
  67.4638414   8.9411634  90.5272007  24.9607825  99.2257690  58.3679438
  24.2019892  99.0190697  57.8222847  24.6659470  99.9459553  58.9252853
  84.0899944   7.2607970  62.0652628  83.2257271   6.9253671  62.3035002
  83.9784241   7.6013631  61.1776829  48.7810183  97.5798702  58.3370399
  49.3467712  98.2924747  58.6342621  49.2947149  97.1301365  57.6661444
  34.6503448 100.7290173  63.3353949  34.5905161 101.6757107  63.2072544
  35.4513812 100.6064224  63.8448477  30.6118894  94.7462845  86.8190289
  29.8964214  94.8427391  86.1905098  30.9043264  95.6418610  86.9883347
  54.1926193  70.6747055  79.1876173  54.8984718  70.0848961  79.4524336
  53.6037159  70.1260328  78.6695576  48.2456875  20.3872824  75.2609253
  47.5496769  20.4708123  75.9127092  48.7085390  19.5861053  75.5061150
  34.6259093 100.7938290  66.7111301  33.6963940 100.9705162  66.5661669
  34.7409320 100.8779621  67.6576614   9.6587354 101.7967033  63.2035637
   9.2459363 101.0333729  63.6074972  10.5887806 101.5736389  63.1649256
  20.7838845   2.1544302  81.3395786  19.9084890   2.3460382  81.0031319
  20.9889007   1.2860417  80.9930229  59.9704742  39.8183799  64.9912834
  59.7686529  39.0797091  65.5656242  59.1166973  40.1913834  64.7718239
  28.8157439  12.0863414  57.0128632  28.1823707  11.6564763  57.5875664
  29.5198703  12.3649681  57.5983572  48.7548351 108.5604095  35.4461336
  49.3202591 107.8376389  35.1738644  48.6584949 108.4460926  36.3915873
  35.2566361 102.6940441  51.4045286  34.8586988 101.8732452  51.6946316
  36.1988997 102.5298977  51.4423418  78.9898777  10.3312778  54.7168636
  78.9442015  11.0368073  54.0715933  79.5348454   9.6624309  54.3022728
  20.1412582  68.5037661  67.2577381  19.4407761  68.0332184  66.8059206
  20.2608109  68.0253029  68.0781126  78.0060577  17.3670137  56.6856384
  77.1860313  17.5357735  56.2216234  78.6368370  17.1697342  55.9932327
  78.9423847   5.7743686  91.1875343  79.6344233   5.1427442  91.3833904
  78.9413548   5.8401054  90.2325916  32.7858472  91.9543076  51.5590858
  32.0996809  92.3740578  51.0402298  33.1486893  92.6611328  52.0929193
  44.5528364  98.2478333  58.4135199  45.1534843  98.9914417  58.4636211
  45.0076342  97.6091576  57.8644514  57.1932173  92.4652100  40.4808283
  57.2255659  92.3187828  41.4262104  57.4689102  93.3751011  40.3698158
  80.5885410  29.6175551  58.9640760  81.3413525  30.1619744  59.1945362
  80.0597382  29.5901108  59.7614765  58.7443209  16.8868196  37.5248194
  58.0003023  17.4556828  37.7224731  58.4194946  16.0016561  37.6897621
  43.7692451  66.7606831  91.8807983  43.6725903  66.9511986  90.9477425
  43.1889153  67.3863506  92.3143768  68.0690908 107.0675755  89.3679714
  67.4294329 107.7776146  89.3139362  67.5398159 106.2712574  89.4123268
  59.6514940  94.6126747  51.9970226  60.1551533  93.7987137  52.0010757
  60.3043795  95.2990150  52.1345377  72.0131254  19.5739782  79.4203949
  72.7642679  19.9732006  78.9814901  71.2603807  20.0803041  79.1150427
  32.0344877 106.2390518  47.6112318  32.6100755 105.6033421  48.0364323
  31.7265749 105.7931423  46.8221903  52.7527666 107.9273415  72.5842428
  52.5476360 108.2523632  71.7075920  53.1913185 108.6609745  73.0151415
  80.3762722  34.8537755  54.0303230  80.2592564  35.4653716  54.7572994
  79.5131207  34.8016858  53.6198521  32.2328615 106.9288158  88.2439518
  32.0387721 106.3488960  88.9803219  32.2314858 106.3533592  87.4790478
  48.5741949  83.2534027  62.9037046  47.9924107  82.7729416  62.3147058
  49.3840837  82.7432251  62.9091406  30.8535099  18.3041322  38.0079603
  30.6826544  18.5962629  38.9033365  30.9254718  17.3520875  38.0762625
  31.0272312  77.6470852  84.7534466  30.1275921  77.9547691  84.6429634
  31.4962697  78.4014416  85.1100636 104.3805313  69.1983604   3.8312680
 104.4210625  68.3392620   3.4110972 103.7622166  69.0831470   4.5528257
  45.5375385   7.4551886  86.0544777  45.4020071   8.1236494  85.3828907
  45.1442671   7.8261054  86.8444061  73.7162924  20.0410748  71.9442177
  74.4981813  20.0954533  72.4936962  74.0216684  19.6359062  71.1325455
  24.2405319  92.2749424  48.3637238  23.5142207  92.1114826  48.9653730
  25.0229454  92.2207355  48.9124680  67.2961569  17.8339493  64.9771595
  66.7860842  17.8283799  65.7871151  67.6659966  18.7157142  64.9330759
  27.8554106  81.1811447  50.0278616  27.0688510  81.5673542  50.4130888
  27.6481104  80.2505779  49.9423885  59.5418310 102.6268768  90.1412010
  59.2793989 102.7714825  89.2321014  59.0190315 101.8769741  90.4250240
  40.5204153  92.5904465  90.9747791  41.0160112  92.2520924  91.7205238
  39.6062469  92.5471306  91.2552261  68.1043386  25.4283762  74.7979450
  67.5655270  24.6423316  74.7082281  68.1664085  25.7789063  73.9094019
  57.2706318  31.9245124  82.8220367  56.8209314  31.7658544  81.9920826
  57.6798964  32.7828383  82.7124310 110.7265377  28.2949805  10.0221896
 111.5645695  27.9854846  10.3659046 110.3883362  28.8763499  10.7032633
  17.2471464  95.0862503  61.6834402  17.6814365  95.1227856  60.8312130
  17.7853549  95.6386089  62.2504091  85.7821178  17.5392008  75.1055193
  84.9327374  17.2348821  74.7858572  86.2642384  16.7368364  75.3055096
  51.2611008  26.2867308  60.3210354  51.2510586  26.5199924  59.3927479
  52.0250893  26.7425442  60.6742859   3.4987512  34.9160647   0.9873942
   4.0399939  35.4663968   1.5534538   2.9067966  35.5294752   0.5520195
  25.9156132  87.5742626  32.7977729  25.0556326  87.8762054  32.5053740
  25.7502127  87.1675873  33.6483550  54.4554949 109.3113703  92.6450062
  54.3836642 108.4795962  93.1132221  53.9465190 109.9275113  93.1718349
  13.2902050 105.9054089  56.4216757  12.7449834 106.6415691  56.1441183
  12.9377198 105.1534557  55.9456968  43.4494209   4.2964131  81.0892963
  42.5261736   4.1368192  80.8934021  43.5710192   5.2314895  80.9247398
  18.4156442  53.0502367  59.0244007  18.4109187  53.8412428  58.4854031
  17.6668084  52.5427198  58.7115049  84.1268730  10.2711618  62.6312828
  83.9780140   9.4766855  62.1185637  84.5103645   9.9589616  63.4508562
  50.2769661  13.9363217  39.7779560  49.7087908  13.4489512  39.1814017
  50.5550623  13.2891726  40.4261017  55.2569723  12.8674901  40.5437136
  55.1359558  12.7504325  41.4859915  55.8492184  13.6157930  40.4694319
  33.6700869  90.7849598  89.5426559  33.7306237  91.4807415  88.8880920
  32.7494001  90.7818890  89.8044968  71.7782354 106.4338398  51.8511677
  71.2826824 106.7942619  52.5865269  71.1419058 106.3771820  51.1383533
  16.8391871  65.6009007  32.7087617  16.9205534  64.6472931  32.7243161
  17.7347291  65.9157228  32.5857759  10.1868260 108.6676979  71.7032576
  10.5277002 109.1178322  70.9303284   9.4127828 109.1726208  71.9525528
  18.8302588  91.2683010  45.3191090  18.8421500  90.4525948  44.8184013
  18.6713934  90.9928513  46.2219477  39.3274689  22.1900105  70.4188442
  38.3790851  22.2732043  70.3194427  39.5404840  21.3578868  69.9964333
  85.6584644  20.4836512  61.6177893  85.3013802  21.2593913  61.1854124
  85.8795929  19.8899639  60.9002447 103.5684490   5.6563622  48.7457657
 103.4512043   5.8550584  47.8167868 103.5901451   6.5126681  49.1729689
   8.7640566 106.4868069  37.0277214   8.1098372 106.4426899  37.7250600
   8.5009485 105.8054829  36.4090109  51.3410854  81.8045139  63.6049938
  50.6717634  81.1202431  63.6078024  51.0266447  82.4497223  64.2382908
  99.0311909  31.2253594  88.6420059  99.3447971  31.0376954  89.5266914
  98.8207340  30.3665996  88.2752991  28.2091665  86.0891628  92.5450325
  28.8478827  86.4350414  93.1684399  28.2097888  85.1447010  92.7006531
  59.1884232   1.7113669  92.4397373  59.7234440   1.5670188  91.6592598
  58.5363531   1.0110284  92.4160194  52.0135927  41.8427896   0.8501676
  51.5663147  42.5727797   1.2782961  51.8736839  41.0991764   1.4364213
  51.0431290   2.2297612  32.6798201  51.3297939   2.7313337  31.9166160
  51.6102839   2.5295329  33.3902454 114.7869492  93.2414627  13.1919599
 114.6537018  93.1857681  12.2457170 115.5289936  92.6617622  13.3638728
  90.4963970   6.4238435  71.1782932  91.4469910   6.4192462  71.0661173
  90.2815247   7.3379952  71.3637352  44.9315214   1.9579430  61.7672777
  45.3452587   1.1249771  61.9935894  43.9973736   1.7553920  61.7165375
  85.5632496   4.5136353  31.7145157  85.6924248   4.3538421  32.6494002
  84.6280384   4.6994111  31.6302657  97.4593544  14.0560746  77.9957724
  97.3454285  14.9377644  77.6409817  98.3739948  14.0272236  78.2765579
  70.5396509  13.3037102  85.1906681  69.9538517  12.6147270  84.8770332
  70.7070017  13.8452899  84.4193649 100.4529762   9.8448366  86.1759186
 101.2855053   9.7191566  86.6312695 100.4025745   9.1119182  85.5623055
  89.5087242   5.6627721  62.7430534  89.1882992   6.3860279  62.2041082
  88.7185478   5.2791369  63.1234026  90.8454037  24.9596786  74.4144297
  90.7081604  24.0605617  74.7127342  90.2222443  25.0716066  73.6965370
  83.4176922  16.3143384  64.0108156  83.7436867  17.1524405  63.6828756
  82.5551033  16.2183535  63.6071301  45.9261894  61.5035295  76.1415291
  45.8844805  61.3792896  77.0897150  45.9033966  62.4531078  76.0231638
  24.4948030 104.3188953  37.2481108  23.6375308 104.7085094  37.0763111
  24.7609186 104.6874428  38.0904794  12.9405534  94.7202969  52.0210028
  12.4235570  94.1272736  51.4757776  12.4851203  95.5599976  51.9600296
  10.5116904  69.4908857  69.9774599  10.6968057  68.5740757  70.1809835
   9.6169424  69.4848061  69.6374273  52.8346825 105.7031155  78.4302568
  52.0550585 106.1343098  78.0802727  53.5578489 106.0609722  77.9152870
  69.9070597 104.4643307  86.0603333  70.3337336 103.7373638  85.6067848
  70.5847454 105.1372528  86.1247540  21.4847136  60.0024986   5.9892970
  21.1133718  60.5213642   5.2757764  22.2901416  59.6356630   5.6246728
  21.1649799 101.2749004  51.1880636  21.6907597 101.7518711  50.5459690
  20.3216529 101.1413956  50.7553864  75.4578495 103.6873722  81.4179039
  75.6372261 103.6461735  82.3572445  75.3617191 102.7728653  81.1520863
  42.1567774  91.9553471  74.2345285  42.0678425  91.2617970  74.8882151
  41.5704107  92.6479912  74.5389128  53.4644508   4.0861264  68.1102228
  52.8792572   4.4835922  67.4653959  53.6450768   3.2124728  67.7633286
  30.1945710  92.9167366  42.0575666  29.8633170  92.0329189  42.2168255
  30.7227135  92.8350925  41.2634468  12.4777222 106.7730045  41.7874861
  11.8752301 107.2181129  42.3833942  13.0694914 106.2884331  42.3630142
  33.8767242  75.9934711  84.5315742  33.2380724  76.6366053  84.2237854
  33.3903432  75.1697063  84.5643806  88.0503654 106.7890930  91.5394020
  87.8007698 105.8746433  91.4063358  88.1751823 106.8681145  92.4851322
  62.7821684  81.3600540  62.5695658  62.9472017  80.8344746  63.3523512
  62.7485085  80.7229328  61.8560028 105.0686264  52.8024960  29.6172047
 104.7129250  53.1542540  30.4332805 105.9480572  53.1758785  29.5586467
   8.7292981  47.6906252  19.9644172   7.9668725  47.7570486  20.5393314
   8.7015188  48.4886694  19.4366050  86.9547939  23.8246274  73.0198050
  87.7800655  24.2418313  72.7726507  86.4538670  24.5192647  73.4473467
  32.8780603  52.9530764  59.8955441  32.4695134  52.0902157  59.9647665
  32.4601746  53.3555555  59.1342211  92.7287769   7.2591215  87.9096794
  93.4030533   7.1592915  87.2376537  91.9666100   6.8021590  87.5539875
  87.2184563  53.7845898  22.2159982  87.6907635  53.6597013  21.3928580
  87.9037094  53.9582205  22.8613687  10.4804993  38.0886936  56.4967632
  10.2755201  37.4630284  57.1915722  11.1204648  38.6820698  56.8899298
  92.9423141  48.6236811  28.3219337  93.4991360  49.3994331  28.3881164
  93.2565308  48.0434465  29.0153456  26.0065746  63.5168457  48.4104776
  25.7192516  63.3018351  47.5230932  25.2015042  63.7491655  48.8732100
  22.0894575  36.1750865  68.7545300  22.1474004  37.1279526  68.6843824
  21.1753201  35.9752297  68.5529327 101.1356449  39.9384308  71.0462141
 101.5889359  39.6856022  71.8504763 100.9908485  40.8800745  71.1387825
 106.8903542  53.0620289  69.6680021 106.6784382  53.8543653  69.1745138
 107.4560642  53.3660507  70.3777695 107.9303169  35.2290249  64.5602465
 108.7456894  34.7311664  64.6197462 107.7802372  35.5500007  65.4494476
 106.1303425  35.6688166  52.0024443 105.2726364  35.9779859  51.7109299
 106.4732647  35.1758194  51.2570620  27.2929239  41.5817642  49.6868801
  27.6096749  41.5777445  48.7836170  28.0846143  41.5002155  50.2186823
 107.7174091  23.6323142  22.3126054 108.5315132  23.1302762  22.2748518
 107.4111938  23.5246921  23.2130909  66.9726038   0.0300780  85.8640957
  67.8864050  -0.1828570  86.0534668  67.0175505   0.6596267  85.1444626
  11.4328933   8.0281657  53.5833836  11.5163648   8.7852401  54.1631269
  10.8786237   7.4159032  54.0672731  25.8596468  48.4800386  67.1917582
  26.6454840  48.8777208  67.5666475  25.7504320  48.9160299  66.3466454
  60.0857782 107.7222443  41.5479469  59.8484087 107.8313923  40.6270885
  61.0001802 108.0014515  41.5943003  22.9398346  55.5522013  83.7445545
  23.6378193  56.1959934  83.6237812  22.1402383  56.0165787  83.4971142
  42.6168871  32.0516109  74.3575430  42.9929018  31.8124676  73.5104036
  42.7883863  31.2947893  74.9179411 104.4759369  51.7541456  58.9581871
 103.6575031  51.3998985  58.6104536 104.2008305  52.3718166  59.6357107
 111.3537788  70.6102228  60.2605200 110.4337597  70.7244301  60.0222874
 111.8247318  70.6616259  59.4287777 111.3595867  13.4824312  21.8614125
 110.4241371  13.2843912  21.9055581 111.7526150  12.9351485  22.5412965
 108.5513115  53.7444639  71.6782093 108.2089233  53.5149288  72.5421000
 109.2456913  54.3787098  71.8565512 113.3828354  34.6337795  36.4204216
 113.0029774  33.7933731  36.1641788 113.2602406  34.6727800  37.3689365
   6.9217640  67.1246624  28.0981207   6.2040901  67.6693773  28.4213233
   7.6685762  67.3614073  28.6480808  24.0172434  60.6637526  68.5039949
  23.1909180  60.9112978  68.0890942  23.9932561  59.7073126  68.5336828
   9.5921397  67.0873451  32.1115851   9.5548922  67.6459932  32.8879642
   8.9331686  66.4116192  32.2708964  96.0263443  20.9099722  73.1060886
  95.5319118  21.4903450  73.6848307  96.9339275  20.9976959  73.3973408
  82.4315548  57.1000099  46.6875553  81.8828964  56.3159895  46.6648960
  81.8110561  57.8243065  46.7688131  26.4591646  42.7983046  57.0849419
  25.8509946  43.4727955  57.3873091  26.0858083  41.9776440  57.4064207
   5.2230251  31.1039138  82.0925045   5.5031365  31.0364175  81.1796951
   4.9865019  32.0248270  82.2029877  88.8254738  11.2543976  56.4525509
  88.0545330  10.7389855  56.6896868  89.1978264  10.7957435  55.6994104
   5.5681235  54.1205025  20.9670353   5.1250434  54.9676466  21.0146189
   5.1009375  53.6440706  20.2807546 108.1278706  12.0221865  59.5683956
 107.6096249  11.3512838  60.0128508 108.2315731  12.7155447  60.2201128
 108.5626602  13.4272432  22.1630621 108.3710957  12.6578474  22.6993108
 108.0330372  13.3076584  21.3747549  20.7570815  68.5591125  21.4962840
  20.3914237  67.8329086  20.9911585  20.4589105  69.3443012  21.0371494
  28.6420226  28.2564950  40.0570536  28.1045818  28.4493828  40.8252907
  28.9690638  27.3699951  40.2100039 108.7518406  49.7514915  37.2853780
 108.6993694  48.8858414  37.6905036 109.6579170  49.8206329  36.9845724
   6.8251806  72.6314020  11.4492977   7.7400446  72.5207043  11.1904538
   6.4772314  71.7404509  11.4862406   9.3120199  67.2690153  65.7035637
   8.9576757  68.1316328  65.9193468   8.9155191  67.0513916  64.8599672
 102.3847008  34.5629263  45.1048470 103.3044529  34.7775960  44.9492455
 102.3075008  33.6428142  44.8525238   3.8115028  38.7478614  74.3214226
   2.9292363  38.6834359  74.6870518   3.7910256  39.5400810  73.7845755
 113.3385277  47.5007868  56.5373611 114.1981506  47.4412680  56.1205482
 112.7291584  47.6349401  55.8114815 114.9451923  62.0182943  67.2247028
 114.0047455  61.8795633  67.1127224 115.0601292  62.1299839  68.1683922
  12.5468445  41.7342281  21.5488172  12.7020216  41.5281677  20.6270313
  12.1495056  40.9409094  21.9079828  45.3177786  24.7641039  60.2787685
  45.0570202  24.1796637  59.5669603  45.6221437  25.5574012  59.8379993
   1.9027933  75.1154804  70.5091619   1.0864863  75.6153059  70.5160332
   1.6402440  74.2315388  70.2523565 110.0055599  74.4502783  40.4983187
 110.7058525  74.6874714  39.8903966 109.8755169  73.5121536  40.3596020
  27.6312494  41.0066414  36.4428473  27.4213171  40.1241589  36.7484355
  26.7915630  41.3677931  36.1587167 107.3613644  54.4112921  62.1075916
 106.9436550  54.5931625  62.9494190 107.4143887  53.4563875  62.0678663
 108.4759426  44.6982574  58.5500908 107.7330112  44.6638632  59.1526699
 108.4308147  43.8732004  58.0668974  86.7418575  64.9388695  72.3771858
  86.2809467  65.3910685  71.6705656  86.3484478  65.2835751  73.1788349
 109.9938965  34.7150111  48.9670944 110.0371742  34.7014856  48.0109692
 110.7367039  34.1806579  49.2480564  20.0369287  49.3463087  66.5079784
  20.0293422  48.5380125  67.0206451  20.7340288  49.2156887  65.8651590
  50.8793497 105.8019352  58.2527065  51.2264633 106.3579845  58.9502382
  49.9458694 106.0113907  58.2215881  97.5736904  55.0722313  58.3428288
  96.7987347  54.5119238  58.3843899  97.3569202  55.8222914  58.8965893
 107.8984261   8.9072883  65.1391172 107.2137260   9.3253338  65.6612921
 108.3791924   9.6361780  64.7469234 112.7686405  42.5648594  28.0647564
 112.6490879  43.2052231  28.7660933 112.4695015  41.7376375  28.4421802
   4.1921097  57.1391678  17.3648143   3.8111103  57.5779057  16.6041684
   3.8828355  56.2356329  17.2999752  32.0966697  29.5549130  49.4648743
  32.6708555  30.1682377  49.0062046  31.6510105  30.0896692  50.1218796
 112.7588081  63.5217714  61.6886282 111.8193054  63.4285927  61.8463707
 112.9702950  64.3974781  62.0121241  28.0992746  33.4684467  50.4369974
  28.6942625  32.7830386  50.7410336  28.6745811  34.1389537  50.0686550
   3.4045961  68.0341196  31.3610220   3.6515516  67.1408510  31.6004300
   2.5375897  67.9450226  30.9653044   2.9444712  36.4609575  14.3717706
   2.3743393  37.1676350  14.0688014   3.3019555  36.7801762  15.2003443
  87.0817852  78.1970406  76.0761213  86.7171192  77.9908800  75.2154541
  86.9948292  79.1472769  76.1517286  17.9702902  61.6534567  56.8540573
  18.5548246  61.9883966  56.1740828  17.1082604  61.9971132  56.6194630
  47.5540352  88.4666157   2.6356912  47.6882601  87.5293636   2.4950799
  47.0246124  88.7473869   1.8892902  11.0521924  72.4990559  69.8872852
  10.8680904  71.5701246  69.7479153  11.9307041  72.5147724  70.2670240
  11.7020881  35.6714654  65.8916903  12.5556958  35.8835697  65.5140686
  11.3698125  34.9579692  65.3469419   6.6421139   8.9713758  49.9593258
   6.3482130   8.1036234  50.2365589   5.9034634   9.5480710  50.1543856
  94.1581345  36.4552164  76.9132710  95.0824547  36.2811875  77.0909691
  93.9449406  37.2060466  77.4673796  65.3844452  97.7250195   1.6362745
  65.2590895  97.4824715   2.5537080  66.1810064  97.2639656   1.3733223
 103.9293575  24.2908859  64.6960258 103.7765789  24.4755220  65.6227398
 103.0570889  24.1271615  64.3374538  11.3751149  59.7003889  31.2237406
  10.9847605  58.9994574  30.7016730  11.0238743  60.5058336  30.8441114
   6.9668096  54.8320818  47.9807806   7.4160230  54.9796534  48.8130426
   7.1501064  53.9168549  47.7686596 102.7010155  51.1899757  82.1765518
 102.0209980  51.0975647  81.5092659 102.5415611  50.4665899  82.7827930
  29.3485951 105.2801418  26.0745478  29.5724559 104.3931007  26.3561273
  29.4471002 105.8137608  26.8630719   6.5851289  41.0437489  81.8086720
   7.1349847  41.0617590  82.5919819   7.0263064  41.6288519  81.1928463
   0.2870596  18.4748960  85.8169270   1.1189487  18.6898780  86.2387943
   0.2716751  17.5181603  85.7913685   8.4718573  17.7505720  49.1855478
   8.7427855  18.0923867  50.0375986   9.2551291  17.8196597  48.6397028
 110.7889843  12.1544182  68.0504370 110.6370163  11.4203191  68.6456108
 110.0178623  12.1666920  67.4834728 115.4347992   9.0066767  53.0763721
 115.5258846   8.5058409  53.8869858 115.6934357   8.3953106  52.3867559
  15.0273478  13.5275090  75.9241438  15.4969537  14.1968429  76.4218330
  14.2242599  13.9620018  75.6369209  10.3692293   5.8867395  28.9901447
  10.8194184   6.2810445  28.2430911  10.8158886   6.2469161  29.7563028
 109.3659115  35.0414109  73.1480551 109.3340778  34.6110487  72.2936487
 109.3708229  35.9768200  72.9450321 105.4389286  22.6464558  70.9772778
 104.9513435  23.3829069  70.6083059 105.0563622  21.8736720  70.5617285
  35.3050447  34.3814516  51.6994905  35.6459713  33.5099030  51.4984846
  36.0639048  34.9595165  51.6207075   7.4767500  48.4421825  46.3824081
   7.0535278  48.9470911  47.0768023   8.4124666  48.6002731  46.5076017
  13.0691016  45.9350157  74.5272684  13.6616862  45.9761906  73.7766838
  12.4399447  46.6400719  74.3746758  96.0146427   2.2689582  52.1764421
  95.7734203   1.4445889  52.5988817  96.9509411   2.1815182  51.9977570
  97.6627159  50.7892942  50.6809855  98.1178379  50.9291887  51.5113592
  98.2309341  50.1924515  50.1940107   7.6877308  79.9960327  49.1015911
   7.8884071  79.1322136  48.7413502   8.3215618  80.1136017  49.8091698
  30.3177357  60.9976673  27.5938106  30.8846378  61.7580843  27.7227139
  29.6297455  61.3088036  27.0055127  56.3862276  18.9278793  81.0188961
  55.7394361  18.8738632  81.7224407  57.0613766  18.2956195  81.2651730
   1.5569179  66.4960384  34.1584301   0.7428909  66.1016417  33.8453126
   2.2383103  66.1052132  33.6114454  35.4790831  67.1821594  75.7628870
  34.6319342  67.5654173  75.9902143  35.5714250  66.4364004  76.3558006
  19.5019889  37.1720672  46.9647312  19.5349026  36.2899184  47.3348236
  20.2801847  37.2283578  46.4102268  21.9991541  59.6952581  40.2663565
  21.2123179  60.0030756  40.7162142  22.7224326  59.9925900  40.8183479
   4.6518385  66.3723898  85.9095097   4.7512826  65.6804323  86.5633774
   3.7780777  66.7291069  86.0692787  33.8788843  42.4788189  56.6514587
  33.0488777  42.9543543  56.6169786  33.8403988  41.8757105  55.9091568
   4.9186522  67.2964144  58.7993383   5.1697159  66.3816881  58.6710167
   4.9583015  67.6807833  57.9235935  98.6023140  53.6745071  25.6162190
  98.5260963  52.9275799  26.2099576  97.7101707  54.0132761  25.5417371
  12.0940566  20.1962900  76.0835648  12.1856987  19.3476868  75.6503153
  11.9514918  20.8162236  75.3683090  13.3592200  63.7850046  61.3602400
  13.8401544  63.0546188  60.9710503  13.3013415  63.5653067  62.2900867
   5.9004843  75.3368950  87.5827503   6.0179937  75.9092331  88.3409405
   5.9321404  74.4510984  87.9441261 112.2966385  38.0946517  90.1195049
 112.8700161  37.4106908  89.7735786 112.2908974  38.7687349  89.4399357
  11.0629332  19.3613935  32.8431463  11.5475118  19.0952826  33.6245561
  10.2563119  19.7495520  33.1821537   1.7881739  99.1997337  13.2820845
   2.1619585  99.9434757  13.7546945   0.8739813  99.1715431  13.5643780
  15.2859914  75.1435852  83.0965328  14.6883762  74.4104815  82.9493999
  14.7787881  75.9183884  82.8543377 105.2683735  42.4096680  70.2714729
 106.2157917  42.3452663  70.3917980 105.0953865  43.3502626  70.2316141
  22.2700143  75.8062029  75.0555801  22.1981382  76.5043449  74.4046831
  23.0926514  75.9866333  75.5104923 102.7793503  36.1352801  57.3852348
 103.5322762  36.5504503  57.8059053 102.2634792  35.7834888  58.1107378
 110.6843185  58.5783958   0.8663535 110.3378296  59.2651606   1.4360294
 111.1714268  59.0505123   0.1910309  18.5566235  26.3826060  60.1281404
  19.5124245  26.3531923  60.1706982  18.3235478  25.6971598  59.5019865
  29.1498470  57.0074940  73.5418987  28.3464646  57.0511580  74.0604591
  28.9173555  57.4110174  72.7056265  30.2562594  33.1212568  34.8634744
  29.8423195  33.0283976  34.0054154  29.5242739  33.1773925  35.4777050
  95.5223942  34.6179366  65.5461740  96.1154938  34.9722219  66.2087059
  95.6436062  35.1879573  64.7868204 112.4207115  43.8300610  30.6435013
 112.3951817  44.6739769  31.0944867 112.3548985  43.1817293  31.3446188
  77.4670982  22.8496432  10.8512819  77.8497267  23.6797094  10.5669928
  77.9648733  22.1822476  10.3790152  34.2459869  26.1630559  67.3646498
  34.5147204  25.2600336  67.5336599  35.0568533  26.6686583  67.4202824
 113.2428646  56.3379622  82.7019596 112.4983406  55.8942509  83.1082058
 113.9049721  56.3756132  83.3921814  81.2090302  51.3542700  57.6331043
  82.0707417  51.1019373  57.3014164  81.2190437  52.3113537  57.6222181
  92.7757168  27.9016161  54.9691629  91.9932747  27.9440975  54.4194269
  92.5205326  28.3361411  55.7829809  34.1617894  12.0281231  53.7052298
  33.3055449  12.4241138  53.5431480  34.0402484  11.1015546  53.4980297
   6.1129075  84.8764896  36.3338351   6.9513917  85.1594639  35.9690022
   5.8086175  85.6266022  36.8446922  19.5045781  46.6480589  49.8167419
  20.4293489  46.7438078  50.0444794  19.4882774  45.9383869  49.1746140
  18.6365736  73.8841677  89.3885136  19.0740263  74.6978617  89.6390533
  19.3298316  73.3483887  89.0030766   7.4824792  53.2829952  67.8793716
   7.5748450  53.4795141  68.8116169   8.3318895  52.9221487  67.6253557
  18.1474531  57.5066090  55.0990248  18.7322605  56.9136667  55.5708885
  17.7856708  58.0765057  55.7776690  94.1942120  71.9199610  70.7940388
  93.4062195  71.9127893  70.2506590  94.1919899  71.0680199  71.2304163
  20.8126426  64.0895462  66.9401550  20.8812428  63.4554958  67.6539516
  20.3888655  63.6065626  66.2306690 109.5999908  41.2262344  48.3466864
 110.0275326  40.4089642  48.0907393 108.7329483  40.9579325  48.6508036
  83.9502621  73.3818340  79.1553974  83.9452934  72.8131866  79.9253607
  83.8421154  72.7841949  78.4155560  83.3634567  64.8427200  51.4980412
  83.4077454  64.0124798  51.9723511  83.4202003  65.5116701  52.1803331
  10.4454255  57.7197647  68.4518099  10.5782104  58.5569191  68.8965225
  11.3299727  57.3941374  68.2851458 107.8146362  53.1831169  23.3353758
 107.1910763  53.1878853  24.0615869 108.6418056  53.4620428  23.7280917
  97.1538639  57.7875948  36.8898129  97.7559376  58.5226631  36.7739820
  97.6533222  57.0219088  36.6060829  99.4662952  64.9375296  75.3662062
  98.7011528  64.3634272  75.4008102  99.1019058  65.8159733  75.2576447
  23.3616948  57.9447460  57.1290112  23.4494758  58.8661766  57.3729229
  24.2250228  57.7023315  56.7941475  13.4278536  78.9905262  40.7128143
  12.9257739  78.3711386  41.2424421  13.8195598  78.4539175  40.0237226
  12.2245991  51.3600397  68.9614487  11.7020929  50.9585094  69.6557093
  11.5857399  51.8182087  68.4154034  17.7557647  57.7037668  93.0867672
  17.8849363  58.4725332  93.6422348  18.4458029  57.0965624  93.3539391
   4.9464360  66.1981440  42.8468513   4.9162954  66.3173771  43.7961149
   5.1908964  67.0581770  42.5050688  50.2103806  77.2703457  69.4263268
  49.5229769  77.3852396  70.0824547  50.1843023  78.0750799  68.9086819
  10.5561268  57.6662397  62.0651531   9.9448347  57.1880531  62.6254082
  10.2656543  57.4727345  61.1738539  63.7767220   3.9049268  81.7783451
  62.8911161   3.8426137  81.4204979  64.1965437   4.5917681  81.2604427
 111.2709808  53.7486744  51.4127636 110.3842735  54.0739584  51.2572622
 111.1576748  52.8119230  51.5736723  55.2679396  31.7521286  10.0323033
  54.4523382  31.3993597   9.6765196  55.2892828  32.6594591   9.7281206
 106.5017796  55.2212620  67.8399611 107.2141647  55.8569860  67.9077625
 105.8459663  55.6538534  67.2931576  13.6585355  38.0940986  63.3110905
  13.9831698  37.4837160  63.9731169  13.6543322  37.5869679  62.4992800
 114.1559315  31.0628605  28.9734411 114.8250580  30.4979992  28.5868716
 113.6783600  30.4914522  29.5748186   6.3793957  66.4405870  56.0925865
   6.2428963  65.6485939  56.6125345   7.0290613  66.9417334  56.5855551
  91.3799572  54.7852230  25.6291270  91.5106392  55.4344225  24.9379754
  91.4830589  55.2780247  26.4432216  25.6421161  73.5165596  80.4399586
  26.1326051  73.3600330  81.2469006  26.0452199  72.9325676  79.7975445
   0.9151382  25.9618449  79.2216587   0.8594631  25.3557897  78.4828568
   0.5099137  26.7677402  78.9014149   0.3166354  26.6257501  10.3558850
   0.3470875  27.2050953   9.5945275   1.2348504  26.4400506  10.5524266
   4.3482873  74.6968460  46.6705275   4.8980457  73.9765215  46.3620949
   4.8970330  75.4751921  46.5741587  20.2010441  38.2637668  63.3250952
  20.9520268  37.7344012  63.5934734  20.4638791  39.1648459  63.5127306
   5.0557190  31.0484338  17.3132467   4.3555376  31.3360715  16.7273796
   4.5991197  30.6930900  18.0757952 108.0973816  41.4716864  39.7349072
 109.0064526  41.2058163  39.8732424 107.6661968  41.2946701  40.5709553
   2.4589415  22.0997357  55.1205444   3.3476624  21.7634082  55.0052595
   1.9159305  21.3163853  55.2084827  15.2337873  50.7128048  25.6377673
  14.6942401  50.5276823  26.4064336  15.1551723  49.9280691  25.0953317
  24.9884319  30.6296039  52.8921127  25.4020858  30.2485919  52.1175480
  25.2136016  31.5590405  52.8511572  21.8897104  44.5970869  57.0889711
  21.2878156  44.1372347  57.6741982  21.6215634  45.5144167  57.1422529
   9.5841497  41.6783094  47.9904890  10.2908254  41.3048267  47.4638510
   9.5919061  41.1664009  48.7992668   9.2239755 100.2719593  23.8593721
  10.0066245 100.0548458  23.3528614   9.2582411  99.6865273  24.6158934
  27.5738502  79.3643284  70.1022959  26.9136643  78.7428284  69.7955036
  27.3682666  80.1784420  69.6427441 107.7652168  60.3252792  76.0723829
 108.5203934  60.8999586  75.9471464 107.8994656  59.9384785  76.9375992
  23.8126874  53.3242178  70.7822704  22.9033303  53.4467888  70.5097342
  23.7573552  53.1180239  71.7153597   2.2393385  53.1383133  67.3931646
   2.4166752  52.2073126  67.5273991   1.3191825  53.1715775  67.1315527
 107.4506664   8.5600948  52.5590086 107.2679710   7.9684567  51.8290663
 107.9074383   8.0155420  53.2001400  30.2661872  42.1158123  69.6266079
  30.0817943  42.0878077  70.5654621  30.5409074  41.2248850  69.4097948
 114.4009018  45.7297230  26.0388565 114.5579052  46.3157082  26.7792630
 114.7711372  44.8911333  26.3143945   6.5308237  58.5195446  50.7525730
   7.4145645  58.2875109  51.0378695   6.0051543  57.7433491  50.9460211
   2.1988863  56.1433506  30.5861926   1.8622604  56.5433264  31.3880253
   2.0768781  56.8142080  29.9144101  91.6052914  62.1541834  65.8652258
  92.2918892  62.8086805  65.9934616  90.8014774  62.5923824  66.1447048
   6.0221535  71.5341949  25.6476307   6.4201516  70.6794977  25.4823184
   5.3070700  71.3515520  26.2571621   0.6858322  91.3744450  85.3063393
   0.7310444  90.5612564  84.8034382  -0.0241733  91.2300587  85.9318638
   5.9248275  51.8694258  62.3713446   5.8867377  50.9446669  62.6154757
   5.0444239  52.0696974  62.0535183  25.2642107  39.8198891  40.0001431
  24.9670076  38.9817858  39.6459031  26.2192941  39.7728276  39.9573684
  25.8362317  64.8746729  77.5859833  25.4556179  64.3245506  78.2706261
  25.8482027  64.3159676  76.8088531  30.4412079  47.0648384  50.9147453
  31.2230706  46.5935421  51.2025023  30.7789660  47.7945328  50.3954172
   2.0223495  67.6553202  50.4850769   1.7673750  68.2800245  49.8061371
   2.5113025  66.9787788  50.0166321  20.4327083  58.8942146  34.8768973
  20.8520794  58.6415529  35.6994057  19.5594037  58.5051632  34.9239206
   6.3266653  10.2116561  32.9133725   6.4419568   9.3854165  32.4440455
   5.8622223   9.9692726  33.7144828   7.6051188  49.6193552  57.1051979
   6.6521758  49.6530390  57.1888494   7.8599590  50.5200148  56.9049597
   8.8138813  86.0011005  79.6821117   8.0650246  86.5939617  79.6191216
   8.6782116  85.3681087  78.9770222  13.7427795  54.6208572  28.7970448
  12.8033447  54.4576454  28.8810396  13.8001668  55.4613495  28.3426094
  97.7096367  78.2781219  80.1454544  97.8644371  78.9664125  79.4985199
  97.4336910  77.5212336  79.6285343 114.9656773  61.4949846  72.0875788
 114.5201015  61.0365629  72.8000021 115.5560303  60.8406639  71.7139769
  99.6741295  64.2133379  49.6299791 100.1721954  64.6164751  48.9188910
 100.1324081  63.3919859  49.8077250 100.0220299  65.7633400  51.7084026
  99.7757530  65.2170897  50.9619474 100.2539539  65.1390076  52.3958969
  28.3288002  88.3710957  70.1363897  28.0457115  88.7235451  69.2926645
  29.2747569  88.2580853  70.0435162  31.0140562  78.6377716  92.2264194
  30.1865506  78.9664459  92.5777531  30.7573247  78.0734634  91.4971161
   8.8871974  68.5794973  11.9882274   8.9977998  67.8088045  12.5450361
   9.6703082  69.1057968  12.1493959   1.4468180  51.8369913  59.3907595
   0.6329607  52.0461130  59.8491669   1.1696399  51.6046619  58.5045195
  11.0648453  89.0518951  40.6713581  10.2095330  89.2249012  40.2779865
  11.5331447  89.8838234  40.6018209  30.1094913  31.6133881  51.2923717
  30.0956726  31.8339372  52.2237158  30.6744862  32.2774386  50.8973455
  76.6700172  68.0302334  41.8538523  77.4286938  67.5560760  41.5135384
  76.9999218  68.4856939  42.6284170 101.9104862  32.7513289  25.0671339
 102.0265102  32.5154138  24.1467452 101.8560791  33.7069774  25.0644159
   2.3200850  79.9352694  47.5148201   1.8994054  80.2406597  48.3185577
   3.2513085  79.8944235  47.7325010 113.7288380  52.8957176  55.2526665
 113.9439106  52.3315954  55.9954643 112.8753853  52.5824022  54.9531841
 101.1081028  74.8472071  73.9940882 102.0466232  74.9400234  73.8303852
 100.9965611  73.9271402  74.2334032 115.3566456  44.7218561  44.4420528
 115.0625229  44.7054672  43.5313082 115.4853535  45.6504250  44.6355057
  95.8666897  40.6106901  45.4971266  95.1292038  40.0115919  45.3812313
  96.6155624  40.0388813  45.6658220  12.7166140  30.7354140  50.1962900
  12.2336578  30.1462126  49.6167850  13.3476365  31.1709046  49.6232367
  74.7271824 102.2993946   7.2215503  75.5593252 102.6153469   7.5736165
  74.0817308 102.9393864   7.5216067  25.9117293  67.4900246  64.5127344
  25.6407690  68.1782293  63.9051247  25.7516336  67.8602552  65.3807926
  11.3242173  33.0072212  79.1387224  10.9647727  33.2875180  78.2970190
  10.6223500  33.1764674  79.7671890  23.5780573  52.5029135  61.2805986
  23.9186645  53.3915615  61.3831568  22.8345442  52.4605036  61.8819523
   1.5569317  71.2183714  79.2414999   1.4901760  71.5468740  78.3449173
   1.8011628  71.9850588  79.7599316  25.2702641  76.9375372  32.1060419
  25.9498858  77.2167063  32.7195668  24.4857478  76.8400955  32.6457357
   3.4646028  44.4129801  59.1395569   3.4589961  44.9276543  59.9465942
   2.6307499  44.6200705  58.7176180  11.9282901  38.2934618  28.8838673
  12.2102690  37.7685094  28.1347704  11.4707315  37.6737022  29.4519949
 106.6141415 104.2923546  44.2308903 106.7893505 105.1686287  43.8878632
 107.3564529 104.1075325  44.8062563  18.2267487  64.3654251  46.2956905
  18.1314909  65.0360346  45.6193495  17.4760604  63.7859201  46.1657953
  12.6612365  90.8577633  85.2940083  12.6302373  90.7597637  84.3423367
  11.9164538  91.4222717  85.5010414  59.6315622 103.1496811  61.1571407
  59.7168875 103.2095242  60.2056313  59.5561361 102.2116756  61.3323212
 101.4268589  72.1147251  76.3784885 102.0957184  71.6302347  75.8946228
 100.7189465  71.4832115  76.5060616  23.3296728  47.1898890  24.1157246
  23.6387324  47.7553320  24.8235321  23.5807586  47.6498747  23.3147240
  22.4798155  38.1729555  57.3039436  22.6827574  38.9822960  57.7729940
  22.3979926  37.5118423  57.9913044  64.7206163  23.7762952  24.4892097
  63.9017677  23.6136270  24.9574637  65.0978184  22.9065299  24.3570805
  16.1226189  70.3845167  61.3513136  15.4073036  70.2932835  61.9807816
  16.8184388  69.8252916  61.6967630 105.1689339  66.1790514  51.8622351
 104.9278927  65.6912994  52.6497793 105.7527828  66.8690968  52.1771860
  10.0587857  48.3070612  35.3312588  10.7799840  47.8039455  35.7093883
  10.4848754  48.9352608  34.7481251 106.2070465  35.8849621  68.2208014
 106.1521912  35.3264451  67.4453783 106.6533661  36.6749358  67.9158926
 107.1486092  55.9610176  53.9834309 107.1528721  55.0151062  53.8369036
 107.0948029  56.3391066  53.1057119 102.9927540  23.8047671  69.7424221
 102.9787064  23.5316944  68.8251066 103.1747627  24.7439432  69.7099781
  19.0249419  39.1932368  28.9245653  19.6021330  39.9086142  29.1916156
  19.6172106  38.5197639  28.5900712  16.7332494  70.6673479  71.3491726
  16.7903388  70.1220322  72.1337748  16.3158345  71.4749956  71.6486740
  23.2015824  73.9787674  73.3661270  23.9427447  73.4000921  73.5451412
  23.0625010  74.4507980  74.1871500  23.5662675  57.3785210  49.4996595
  22.8160381  56.8702364  49.1913795  23.6577559  57.1357155  50.4210234
 110.7313633  24.0398741  86.2236309 110.6139755  24.6859336  86.9200993
 110.1561356  24.3394303  85.5196381   9.1347444  41.4277267  44.7142649
  10.0138211  41.3146830  45.0757551   8.5847068  40.8420038  45.2344751
  29.3837118  24.4930530  66.3673306  29.6043682  23.6790037  65.9147120
  29.8023772  25.1780224  65.8460188  18.5549223   9.4084209  35.2475810
  19.0747464   8.6210811  35.0859928  18.3169186   9.7215658  34.3749261
 101.5435791  35.5649924  17.8750956 101.5632534  34.6160603  17.9990828
 102.4092674  35.8612680  18.1562150  31.6454935  56.5714884  68.5042143
  32.3791742  55.9597063  68.5647821  31.6925025  56.9142437  67.6117277
  21.5924716  54.7094250  53.2310247  20.8480978  54.8993874  53.8020325
  21.4471793  53.8093281  52.9395676 115.7074547  87.9579639  74.8576880
 115.1829433  88.7575531  74.8998260 116.1328220  87.9051590  75.7135582
  16.0940289  39.5612693  66.2732458  16.9074118  39.9575591  66.5856457
  15.9171891  40.0012064  65.4417324  20.4480052  31.6627097  52.2268343
  21.0860062  31.9220591  51.5620613  20.9065294  31.0113978  52.7576685
   1.4480193  42.6570368  28.6157894   0.8440997  42.7572060  29.3516421
   2.2387493  43.1215954  28.8899517  19.4764960  66.5621614  48.0274010
  18.8551867  65.9488535  47.6348925  19.1883695  67.4226999  47.7229548
  19.8072922  77.9514456  60.7603455  19.4627941  77.1383429  61.1296844
  20.5901289  77.6832056  60.2792597  38.5653567  14.8662829  55.5607319
  38.2402730  15.2729571  56.3639593  37.8647327  14.2716622  55.2928066
 113.7345123  43.5377359  41.4045334 113.9686203  42.6256227  41.5762091
 112.7835369  43.5246277  41.2962866  14.2518127  94.9913216  66.2004852
  13.9599597  94.3850231  66.8812609  14.3120420  94.4537544  65.4107809
 105.5843925  50.7181454  64.6364355 105.0031376  51.4151144  64.9407530
 106.2054062  51.1599731  64.0573311  34.4337583  51.7954016  33.7025142
  33.6979914  51.4395475  34.2007589  35.1818514  51.7227745  34.2952299
  97.7137280  61.7443419  67.7556705  96.9442558  61.7637777  68.3246803
  98.4387207  61.5243959  68.3406782 102.8612328  63.2939482  59.4544363
 102.0193481  63.7374258  59.3505096 102.6465797  62.3617172  59.4211912
   8.3105212  56.9466877  40.9690046   9.1753560  56.7064714  40.6364536
   8.4345239  57.8140831  41.3543320  22.4106884  60.4754639  82.0348644
  22.3573160  59.5572424  81.7698193  22.0472550  60.4906940  82.9202557
  17.8814888  55.2962160  85.9820747  17.7673841  56.0161352  86.6025066
  18.7045431  55.4935169  85.5349922  42.1415949  63.9767694  80.1020813
  42.8346539  64.5714188  80.3889465  41.5559578  64.5254660  79.5803595
  41.1533880  38.8622785  51.0734510  40.6001139  38.1996942  51.4871025
  40.7348490  39.6947122  51.2927961   6.1261624  77.9326439  75.1457882
   6.4893782  78.7098598  74.7212315   6.8618697  77.5587511  75.6307268
  45.4947281  34.6666908  79.5470619  45.7229519  35.0017095  78.6799383
  45.0674582  35.4035902  79.9837017  22.5418687  67.2430849  58.9607859
  21.6462016  66.9105053  59.0191078  23.0647516  66.4807272  58.7125206
  21.7138386  64.9473953  39.7915244  22.4627233  64.4909430  39.4080424
  22.0299149  65.8373737  39.9472904 108.5609436  59.7629166  43.0528021
 108.6889076  58.8246012  42.9134560 108.2184315  60.0843954  42.2187901
  20.1315904  63.6199665  83.3563805  19.4817078  63.6694384  82.6553631
  20.7390165  64.3360949  83.1708527  31.0326219  35.9594011  38.5827374
  30.5813909  36.3178492  37.8184485  31.5526533  35.2345634  38.2357383
  10.6888402  83.2076073  57.6024389   9.8280102  83.2946205  57.1930122
  11.2643707  83.7555218  57.0687866  29.0965295  77.6074886  80.1952362
  28.7976527  78.4267378  79.8006058  28.4520245  77.4214315  80.8780479
  12.1349418  69.6089983  67.4924612  11.4358950  70.1099491  67.0722055
  11.9174254  69.6296167  68.4243870  12.1401966  43.6734629  27.7598405
  12.5764370  44.1098166  27.0280480  12.3251736  42.7434826  27.6288629
  17.8593457  43.2688141  67.0959806  17.7676666  43.7421942  66.2690973
  17.8308499  43.9509296  67.7669001  29.1946268  58.2366800  42.9095650
  29.7213888  58.0023718  43.6736679  29.4307041  57.5869083  42.2475290
  89.2790222   5.2766722   1.0842786  88.9327145   4.8741296   0.2878725
  90.1707935   5.5364984   0.8530447  52.2069025  93.7070942   1.7469086
  51.3275480  94.0198898   1.5344772  52.4081039  94.1125774   2.5903162
 108.6722469  15.6353354   3.3683091 108.6342335  16.1436832   4.1784757
 108.7395763  16.2928402   2.6759309  36.7367220  55.4811049  73.1428385
  36.6590023  54.7402763  73.7439775  35.9798694  56.0320282  73.3425570
  37.8229070  45.8123779  62.2779751  37.6865315  46.1352539  63.1686974
  36.9988990  45.9973383  61.8273783  35.0485277  29.8773122  52.3511791
  35.6669474  30.5736947  52.1301794  35.1876688  29.7209549  53.2852173
  26.0586262   7.7257586  39.0787530  26.4822316   7.6868904  38.2212687
  25.7876658   6.8244207  39.2531157 106.2421131  75.2978277  30.5010104
 106.0204029  74.5578098  31.0662079 107.1982098  75.2871227  30.4564166
  24.3191791  22.3661375  90.6144428  25.1098847  22.7599216  90.2457333
  24.3442035  22.6019979  91.5417862 113.9569664   1.5592486  86.5434933
 113.2332039   1.9612414  86.0630703 113.6369038   1.4873749  87.4427319
  80.2677345  54.8004818  59.9599600  80.6548119  55.6453085  60.1894760
  79.3694162  55.0101185  59.7044277  10.4245090  67.2389078  75.6545448
   9.8721033  67.2320652  74.8728561  11.0919952  66.5748978  75.4819441
  14.3184423  33.7911391  71.7828798  14.1525435  33.8421011  70.8415461
  13.7121749  33.1202984  72.0969582 112.0825768  37.4183750  28.6029339
 112.1782684  37.9071331  27.7855015 111.1740589  37.1170807  28.5968971
   3.6210638  84.5005226  80.4295158   3.3731803  84.1552925  81.2871838
   4.0801227  83.7766457  80.0035000  67.8527069  10.5929863   8.6396879
  67.3884583   9.7643971   8.7586272  68.6252308  10.5172360   9.1997755
  30.8500695  91.6349506  66.8523407  30.1458454  91.2141323  67.3455000
  31.5167236  90.9544754  66.7587662  92.3159313  37.9510093  75.2220106
  91.6313457  38.0762124  75.8792067  92.9029369  37.3011422  75.6084394
  98.6979103  36.2543964  31.0089159  99.5371819  36.0930419  31.4399695
  98.1313133  36.5873671  31.7048597  17.9159331  39.2364836  62.2686768
  18.6181676  38.8561153  62.7963305  18.2128024  40.1269150  62.0809793
  27.7269316  54.2828321  64.3778372  27.0564389  53.7968969  64.8579884
  27.6608491  53.9583826  63.4797287  14.1986656  71.9623518  27.6599693
  13.9259911  71.4894819  28.4462738  13.3794701  72.1802998  27.2153902
  94.9240017  34.2025256  33.0144072  94.4043446  34.9698234  32.7747321
  94.3057251  33.6247444  33.4617686  16.9747174  62.9665089  62.1123171
  16.8395710  62.7266121  63.0290604  16.6726649  63.8729858  62.0549154
  43.5627890  55.7716417  63.9235592  43.2621050  55.1461315  64.5827675
  43.4645033  55.3086138  63.0915880  57.2322798 105.9510612  -0.1865300
  57.1075344 105.2840710   0.4885888  57.9847288 106.4597988   0.1155280
  -0.0019654  65.0585461  81.5491867   0.9474233  65.0590801  81.6712189
  -0.2318434  64.1333723  81.4629459   5.4283756  38.8989091  40.3404379
   5.2800232  39.7215343  39.8740578   5.3816295  38.2264805  39.6608162
  16.3258541  56.5530682  58.6105776  15.8023190  56.4247894  59.4015837
  16.0745871  57.4211979  58.2952213  23.3581614 101.2164021  56.8254900
  23.2785225 101.7681217  57.6036215  22.4895620 100.8292580  56.7164612
  24.7814250  48.4744120  51.1912775  24.0622592  48.6698771  50.5905867
  25.4569411  49.1165352  50.9731293   6.8798983  98.5026360  84.7646523
   7.5114954  99.0713310  85.2050018   7.4180359  97.8902340  84.2630482
  99.5375538  65.6205893  69.0807629 100.0123978  64.9480724  69.5691013
  99.0509892  65.1345205  68.4150076  29.5922565  53.7903214  43.8479805
  29.9727368  53.2551241  44.5444250  30.0399995  54.6331120  43.9218426
   5.9621543  68.8286448  34.3762875   6.8624473  69.1297293  34.4989729
   5.4664207  69.2679405  35.0672984   6.6005594  94.0946960  48.5253096
   7.0089757  93.6118126  47.8068066   7.3353142  94.4770336  49.0050888
  24.8786592  76.7040539  59.9371672  24.8613524  77.6224899  60.2062607
  24.1808939  76.6321087  59.2858744  14.0117824  89.0060139  42.9445314
  14.2366028  89.0455151  43.8741159  14.8088801  89.2839813  42.4933147
  69.2331505  34.9016213   0.6102341  68.7898779  35.7459688   0.6927944
  69.5152426  34.6911526   1.5003803   0.7704841  89.2708015  47.1062517
   1.6120443  88.9895821  46.7471933   0.6325725  90.1434994  46.7379999
  98.2324791  54.4974566  68.3056259  97.4108982  54.8142624  68.6809587
  98.9056206  54.7934675  68.9184046   7.8007329  81.3161087  59.3754721
   8.6301184  80.8488655  59.2752886   8.0356169  82.1269703  59.8266506
  26.8992639  54.8543930  16.1371040  26.5369534  54.1964054  16.7304146
  27.4997282  54.3650961  15.5747354  24.8187518  76.4862156  76.4198208
  24.5933342  77.4101639  76.5281630  25.3449202  76.2759876  77.1913004
  31.7261553  93.5733032  74.7916031  30.9487033  94.0342236  74.4764042
  31.4572644  93.1947613  75.6286478  16.6752839  67.1994686  69.4175768
  17.0040011  67.9922009  68.9936018  16.6927004  66.5347815  68.7290144
  48.3147097  41.6563845  64.0346909  48.1597853  42.1883583  64.8152208
  48.3465052  40.7568502  64.3603611  15.1223123  82.3972893  38.8971043
  15.4794323  81.8765163  39.6164680  15.7223272  82.2415161  38.1677580
  92.3204231  40.2294254  15.7600772  93.0905724  39.6667147  15.8403957
  91.6882515  39.7019434  15.2718651  26.6592979  76.7340088  81.6382408
  26.8865991  76.9447470  82.5438690  25.8558655  77.2270584  81.4720154
  26.2900758  80.8875084  80.1824379  26.3873672  81.7488003  79.7763062
  25.4858255  80.5332756  79.8030472  10.4848301  77.9806232  92.2108841
  10.7977116  78.7726974  92.6478672  10.1048803  77.4534988  92.9137325
  44.1040421  60.3445148  65.1409960  44.6575356  59.7203064  64.6717024
  44.0107346  61.0822248  64.5382452  42.9329109  43.7372589  49.4379044
  42.8298759  43.9128113  50.3732061  42.9465818  42.7823210  49.3735313
  24.6566868  62.1147251  65.2966213  25.0889683  61.7916632  64.5060539
  23.8161039  61.6571760  65.3139591   2.2251303  83.0468655  29.8393321
   2.4025898  82.2162724  30.2807570   2.2337745  83.6977196  30.5411458
   8.2743186  64.6496391  32.4773216   8.7323999  63.8097620  32.4457192
   7.5708401  64.5631313  31.8339968  66.9338703   2.1717063  51.4148903
  66.5213633   2.7180314  50.7458639  67.8155661   2.5323874  51.5084648
   3.3419341  84.7599983  66.6021967   3.2314521  83.9179707  67.0437956
   3.1393510  84.5776367  65.6846285   3.2463339  42.9646206  69.6770239
   2.8668070  42.6748514  70.5066156   2.4905419  43.1659651  69.1252327
  51.4995861  98.0523014  80.9308624  51.7223406  97.4070168  80.2598763
  52.3247480  98.2185268  81.3866138  95.5068398  66.3213491  66.3736773
  96.3829899  66.6558933  66.5651464  95.0103188  67.0927668  66.1005259
   2.1136643  61.4564419  31.6728115   2.4037795  62.2952032  31.3142824
   2.6109934  61.3581562  32.4847460  22.8904319  78.0428600  63.3338451
  22.5356078  78.3226728  62.4900198  22.2579741  78.3623171  63.9774132
  37.3573327  53.9563513  63.1075478  36.9112372  54.0379906  62.2645950
  37.2205448  53.0442238  63.3635712  10.2726460  65.6344557  53.9531851
  11.1205983  66.0767555  53.9929199   9.6305758  66.3399744  54.0320587
  30.0658727  86.9023037  56.0902786  29.7125363  87.3765182  56.8429470
  30.8775687  86.5110493  56.4132309  47.2921801  73.4283733  73.4066916
  47.6074982  74.0158463  72.7199030  46.5313339  72.9947567  73.0202770
  14.6137512  60.5567789  35.4077840  13.9688921  59.9299002  35.7355189
  14.2981005  60.7908916  34.5349789 109.5369625  36.4820576   7.2745538
 109.7321510  36.2127590   8.1721127 108.8582897  35.8728218   6.9839257
  56.5571308  73.3087111  69.7861528  55.9194374  72.7695131  70.2539587
  56.1032009  73.5779238  68.9875889 111.7428684  68.8501835  24.4394493
 110.9391403  68.4346914  24.7518849 112.2407627  69.0372849  25.2352715
 107.5994396  77.4394560  83.4136581 108.1160164  78.1797123  83.7321091
 107.8657150  76.7056465  83.9675999  10.9719837  32.4690390  60.1402140
  10.0850403  32.6163673  60.4686356  11.5090394  32.3888946  60.9284925
   0.6369565  93.3480549  37.5655413   0.1805959  92.9105759  38.2842708
   0.6904988  94.2640591  37.8381228  13.1356347  81.7350388  69.0541124
  13.8368511  82.3804092  68.9645195  12.6508439  81.7922401  68.2307434
 102.1474552 103.7624264  44.5294619 102.8627110 104.1137123  45.0597811
 101.4426517 104.4032860  44.6232367  29.1622257 101.8503284  47.3953199
  29.0084124 102.7838707  47.2501040  29.9728060 101.6645718  46.9213152
  60.0913429  32.2793126  66.8182707  59.1802692  32.4593735  67.0501280
  60.1021242  31.3486886  66.5945482  25.0515580  79.4584751   9.3684947
  24.8698759  78.5192251   9.4006783  24.3038678  79.8622894   9.8090893
  39.4080091  44.8179626  73.8266468  39.3945622  45.7491207  74.0479851
  38.5218453  44.5127439  74.0210438  17.3088706  84.0726089  84.6719170
  16.8615043  84.3756390  85.4620266  17.4847472  83.1462288  84.8366356
  22.2640061  97.4031734  63.9812803  21.5205121  96.8534088  63.7338734
  22.9445004  97.1867466  63.3438444 110.6152630  85.6118107  65.6606102
 111.5122986  85.9181309  65.5274582 110.7069683  84.8341179  66.2110901
  37.6467013  28.3010483  56.3710642  38.5804915  28.2378817  56.5717554
  37.4655199  27.5326085  55.8298540   4.7483224  91.4240074  41.5257740
   4.4350958  90.9190273  42.2761822   5.6483889  91.6574001  41.7530155
 110.4291821  43.9364815  33.2958937 111.1330318  43.2877731  33.2929635
 110.8218384  44.7176886  32.9063177   0.2922822  61.4640617  57.2403002
   1.0673708  61.8467665  56.8291950  -0.3350482  62.1855354  57.2868443
  27.7442288  87.9996777  79.3612909  27.0363784  87.5270367  79.7992277
  28.3644986  87.3175049  79.1041183  47.4058437  96.3318920  40.0100040
  46.8383741  96.7041111  40.6850290  48.1100559  96.9723225  39.9092245
   8.9023083  51.0448360  42.5370121   8.0922836  50.5793190  42.3287249
   8.7058878  51.5170908  43.3460999  19.0063477  94.8677635  49.5843267
  18.8200903  94.3287945  48.8155317  18.4201908  94.5298576  50.2614355
  41.5142202  86.2116432  82.3543072  41.1504030  85.7680988  83.1205559
  41.5909624  85.5236149  81.6932869   0.9974398  81.0406113  45.4542112
   1.5170023  80.6794643  46.1724472   0.1520564  80.5970383  45.5235147
   6.2975734  88.0171680  86.9304180   6.0804647  87.2719002  87.4904823
   6.9358784  88.5194492  87.4368954  24.4801879  69.9229717  70.6158972
  24.0031910  69.3105555  70.0558472  23.8519430  70.6224823  70.7954168
   9.0198332  74.2779160  69.0502834   9.7036636  73.6914682  69.3738317
   9.4952095  74.9675369  68.5869551  40.4739094  62.2738314  68.2713127
  39.5803428  61.9736910  68.1049156  41.0294676  61.6117573  67.8599215
  81.6220856 107.9609776  73.5237837  80.9565067 108.6148453  73.3100033
  81.4075851 107.6831722  74.4143105   6.9226646  70.2890205   3.4969476
   7.5383329  69.5566130   3.4692582   6.2053829  70.0207996   2.9226673
  30.1896906  94.6504211  53.7951660  29.9028587  93.7748623  54.0547037
  29.4302678  95.2095985  53.9589500  26.2882853  96.7657566  56.9115019
  26.9529104  96.1745834  57.2650814  25.8620834  97.1365643  57.6842165
  31.0483932  18.2117248  56.6358995  31.6573238  18.9085293  56.8806410
  30.2744174  18.3691478  57.1766520 111.2730217  60.1548862  56.0399008
 111.7256832  59.8230553  55.2645206 110.9260559  61.0049391  55.7692337
  20.2524137  71.2970257  56.7730427  20.6645179  71.0735130  55.9385157
  19.9463058  70.4594612  57.1209240  20.2057958  66.5508223  61.5187693
  19.6365082  65.8333683  61.2405539  20.2419996  66.4719915  62.4720287
  37.1877432  72.1806765  91.0256004  37.1806359  72.1107388  91.9802189
  37.9250669  72.7600145  90.8333778  11.9741011  52.2891235  61.4088202
  11.9664860  51.4482212  61.8660450  11.0764349  52.3994541  61.0953665
  25.3975940  79.3019629  47.6394176  26.2172103  79.7562695  47.4443150
  25.6448531  78.3796120  47.7054834  49.7548151  72.2791195  73.8908577
  49.0140390  72.6865435  73.4419870  49.3654394  71.5660667  74.3969917
  22.5017762  48.6093664  65.7073736  22.7915478  47.7415419  65.9886980
  23.1472802  48.8770247  65.0532246  10.6028891  72.3152876  47.8446627
  11.3352513  71.7021513  47.7818966  10.9961748  73.1745625  47.6923132
  23.9290595  62.1104002  76.8714190  23.3453107  62.8528166  76.7155743
  23.9152980  61.9900894  77.8209257  29.5279145  56.2641096  65.3468227
  30.3419995  55.9419250  64.9599171  28.8470268  55.7054996  64.9718857
  19.0691030  29.7043324  70.8545256  19.8869467  29.3070841  70.5552673
  19.3357110  30.3080368  71.5478468  60.3777647  79.6642923  72.4470615
  60.8333254  80.4054070  72.0477533  59.5146084  79.6625948  72.0333052
  46.5248871  49.2975521   3.3359119  46.7832518  48.4543180   2.9638481
  45.7103968  49.5190525   2.8844988  18.5757530  82.3255062  65.7235575
  18.2165682  83.1933498  65.5389881  19.0660465  82.4374676  66.5379953
   8.1387252 108.1182957  47.9563713   7.8024989 107.4671650  48.5721779
   8.6162788 108.7415600  48.5038328   4.6585858  64.6051025  37.3565650
   4.8871270  64.2509079  36.4971781   3.7331042  64.3871403  37.4670529
  30.6658578  48.8010645  19.0888321  30.8969212  48.7797165  18.1601846
  31.4919305  48.6404324  19.5449412  46.9801092  63.9008188  78.6021042
  46.2040520  64.0313530  79.1470098  47.6640320  63.6384678  79.2182636
 102.2248077  48.6649990  46.8803692 102.0491409  49.0297031  47.7477551
 101.4567757  48.1276512  46.6864443  39.6476436  60.6874752  75.0869417
  38.8704801  60.1575232  74.9097300  40.3549814  60.2371597  74.6252871
 111.8105125 101.5354443  34.7059822 111.9552994 101.2886524  33.7925482
 112.6070976 102.0031357  34.9568725  46.5403700  52.6341724  63.6558771
  47.1574831  52.3705101  62.9733133  45.8498240  51.9721270  63.6231661
  12.6232326  56.2038708  94.1197491  12.9816020  56.6413736  94.8920155
  12.7758455  55.2725458  94.2796707   4.0825468  93.7345791  20.0865388
   4.4582921  93.7982082  20.9646034   4.8408484  93.7014389  19.5033467
   7.0522881  52.5007677   5.0381142   6.3000548  53.0923462   5.0177824
   7.6770133  52.9277563   5.6243151  45.9590340  54.3461418  69.6842623
  45.4024935  54.9540186  69.1974592  45.9456539  54.6761942  70.5826569
  82.9188347  78.8018036  36.7312264  83.1426048  79.6047449  36.2606478
  83.0547905  78.1032372  36.0911107  30.4332185  84.7732925  52.0999575
  30.7451010  84.4601059  52.9489994  30.3820753  83.9857960  51.5582323
  14.7985888  85.1056576  54.5557499  14.4027019  85.7495117  55.1430845
  15.2612042  84.5029354  55.1379442   7.3277164  72.8614235  67.6157045
   7.1625793  73.3468628  66.8074274   7.9363734  73.4135246  68.1065750
  99.0551376  50.6713915  43.1911802  98.2373524  50.1918650  43.0588102
  98.9603710  51.0726357  44.0550423  11.8718350  77.6652098  54.3758583
  12.0008445  77.2561693  55.2315903  11.4622247  78.5077190  54.5724154
 108.2116795  95.8851051  69.9133348 107.6911736  96.3527489  70.5664968
 107.5661182  95.4220867  69.3793917  25.6312370  78.1594896  64.1754723
  25.3649545  78.9174938  64.6958113  24.8692989  77.9636955  63.6301756
  33.8968801  58.1498766  82.0356560  34.1400504  58.1283712  82.9612064
  34.6756911  58.4846449  81.5911102  22.9826641  75.4693556  61.3412189
  23.8123012  75.7449675  60.9513855  23.0090594  75.8182716  62.2321701
  21.1071849  61.4215994  31.6275978  20.6731129  61.9530106  32.2949910
  20.4682755  60.7433128  31.4086151  42.2410727  62.6815462  90.0475311
  42.9496956  62.7401066  89.4067097  42.0229578  63.5919046  90.2472878
  16.1279738  78.5689354  51.0169649  15.8228278  78.8132668  50.1432228
  15.3341365  78.5506916  51.5514946  21.1616230  99.1165447  71.7172718
  21.1161232  99.1947937  70.7643604  22.0414257  98.7804699  71.8882561
 112.4256039  64.8197746  30.6443834 111.5428448  64.5187283  30.4291081
 112.5117397  64.6570539  31.5837097  26.6100860  54.5033360  89.7464275
  26.0745311  53.7236023  89.6000385  26.8288994  54.8121262  88.8672161
  27.5806928  68.0595255  21.6870499  28.1045079  68.5574198  22.3147035
  28.2221198  67.5554371  21.1863518  74.8339653  32.3209119   5.2149642
  75.5852270  32.8203726   4.8950043  74.8790598  31.4904785   4.7410655
  13.7312126  98.8500881  68.9741087  13.6550164  98.2879353  68.2031345
  14.3577337  99.5263481  68.7164640  90.2526093  60.9858322  58.8526917
  90.3295135  60.6816769  59.7570181  89.5952511  60.4104090  58.4615421
   3.3978039  86.3955021  42.6231861   2.4421355  86.3445473  42.6414442
   3.5987955  86.8276691  41.7930841  24.8113561  85.4501438  63.5041046
  25.1490331  85.7795715  64.3369818  25.0730276  86.1098671  62.8618193
   2.5549069  59.6529293  61.0698938   2.2694252  59.5307112  61.9753170
   1.8850312  60.2155924  60.6814241  29.4042301  83.3892822  40.5268621
  28.7017155  83.7400723  41.0742664  29.1555762  82.4778366  40.3730154
  25.0564337  68.4157991  82.8530216  24.2157173  68.8640785  82.9450703
  25.4301238  68.4242582  83.7342262  40.0079012   8.2723099  61.0608196
  39.4571543   7.5443149  60.7728434  40.0328875   8.8653731  60.3099012
  11.0094571  47.7030039  64.3880844  11.5334988  48.2495832  64.9736309
  10.3107882  47.3579073  64.9439669  46.0370636  96.6842937  76.9680023
  46.3755894  95.9516048  77.4825907  45.1226997  96.7652798  77.2393084
  44.0635252  47.6999426  29.6027136  44.3951416  46.9995642  30.1646137
  43.2776833  47.3314190  29.1991377 112.5281715  58.1841660  54.4094706
 113.3496666  58.0334902  54.8771048 112.0298481  57.3765182  54.5343876
  27.6553011  69.7909403  66.4431143  26.9880223  69.1123867  66.5457726
  28.4835577  69.3384695  66.6027784  12.3117769  51.8933153  73.7908506
  12.5516891  52.2744370  72.9462099  11.9813609  51.0212803  73.5749531
  48.8155031 102.0791531  45.1760197  48.9273739 101.1611557  44.9290466
  47.8959608 102.2673607  44.9882412  47.3068333  81.2647247  77.0587301
  46.9035721  80.5449486  77.5440502  47.9718113  80.8434772  76.5141296
  31.7404437  86.6341114  50.5138731  31.3373446  85.9272575  51.0179520
  32.0337129  87.2620487  51.1741161  44.1478157   6.8055284  72.7785397
  43.4503794   6.5854770  73.3961058  44.9525690   6.5317065  73.2185698
  14.6464050  84.2439938  57.3120117  13.9355397  84.3797207  57.9384947
  14.9975979  83.3810234  57.5315189 109.0733051  84.8637581  94.5450974
 108.8188267  83.9658260  94.7576523 108.5197163  85.0997734  93.8007450
   6.9402760  70.3852081  58.7299633   6.0622710  70.2718782  58.3659601
   6.9724399  69.7798204  59.4707060  29.0634751  72.7694368  26.2414169
  28.2831407  73.1431580  26.6508603  28.8088822  72.6223850  25.3304887
 115.9625530  79.5120955  41.7183924 115.8460236  78.7130499  42.2323704
 115.7994747  80.2221489  42.3392439  34.0079260  84.3889141  58.1490469
  34.3118358  85.2903175  58.2555819  33.9992237  84.2494297  57.2021055
  46.5746880  77.0553160  67.5454998  45.8961296  77.6339960  67.8932381
  46.8591690  76.5393925  68.2998991  22.4246311  91.8799496  62.1409607
  21.6083097  91.3961792  62.0151758  22.3933744  92.5769806  61.4856720
  39.3113971  99.0454769  63.1291246  39.2452884  99.8212337  63.6859608
  40.2520990  98.9187241  63.0056667 109.8343945  97.5405216  68.1364918
 110.0946140  97.9080391  68.9811516 109.4143391  96.7089748  68.3562851
  43.9573097  20.7566357  70.3883171  43.4506035  21.5684104  70.4107666
  43.8136911  20.3607988  71.2479210 104.7793198 107.7524567  51.9297838
 104.7117805 108.0802631  51.0330057 104.2547894 106.9517708  51.9322538
  23.5731673  99.7931385  52.0194101  23.6204076  99.0593052  51.4066362
  22.7957153 100.2815342  51.7487240  18.9050710 107.0806694  73.7257290
  18.0507028 107.4598980  73.5196400  18.7018430 106.2890434  74.2239809
  26.6570139 106.5134239  48.9134645  27.6049376 106.6288662  48.8475466
  26.2940454 107.3609066  48.6560488  11.0526931  72.2111082  44.3039513
  10.4954636  71.8024969  43.6415577  11.4208722  71.4758348  44.7939014
   6.3373709  89.6359539  24.9259543   5.8843863  88.8584328  24.5995998
   5.6531245  90.1490211  25.3558326  34.4718361 106.2714100  66.6547155
  34.0161610 105.4709625  66.3942003  33.8823771 106.6890049  67.2827196
  20.5024743  80.8466339  64.0838099  20.1707768  81.5462399  64.6466303
  20.5593443  80.0834179  64.6586895  53.0614758 101.5689278  64.9144936
  53.9952707 101.5563488  65.1244879  52.6389456 101.8682194  65.7195568
  38.4041595 101.7988205  66.3796377  37.6885056 102.3547935  66.6878080
  38.1776667 100.9224129  66.6908360  53.9054203 102.4757004  77.3500729
  53.8343763 102.8674889  78.2205200  53.2779074 101.7529583  77.3607826
  44.6459818  97.2195530  65.8837557  44.7351837  96.5190792  66.5299892
  44.0957785  96.8430996  65.1968861 106.3302612  93.0128765  76.1541700
 106.3350964  93.7730217  76.7358732 105.4055882  92.7790642  76.0732603
  34.6171379  72.0227003  66.1378956  33.8149071  72.5366926  66.0458565
  34.6764731  71.8370914  67.0750523  52.2157764  97.5546837   3.4899351
  52.9837847  98.1234264   3.4358710  51.7674637  97.6774311   2.6531678
  37.6848960  89.7661495  35.1593328  38.4333014  89.2423153  35.4452062
  37.4031925  90.2312469  35.9470916   2.0097724  64.4998550  57.1831656
   2.6436016  64.7993803  56.5314150   2.4317344  63.7485838  57.6000261
  34.9734426 102.3324871  24.2226291  34.4796538 102.6435757  24.9813294
  34.9490499 103.0632973  23.6049247   5.3237277  81.9119644  63.9853048
   5.2647936  82.4730968  63.2120752   5.8367628  82.4215317  64.6124935
  23.0117059  74.6736383  64.2159462  22.6453972  74.1726065  64.9446535
  23.8594747  74.9798632  64.5380449  25.7992578  90.2800179  41.4734697
  26.2262821  91.0394478  41.0770512  25.1007581  90.0508881  40.8604240
 102.5929070  15.2932501  13.1803083 102.4947643  15.2278578  14.1302156
 103.5221577  15.4808593  13.0478871  43.1142950  95.8218861  83.9321041
  44.0461779  95.9641457  84.0981960  42.6731920  96.4954948  84.4497013
  42.7764082  80.5979061  62.4605751  42.1144295  80.1645947  61.9218206
  42.5182533  80.4016399  63.3611679  76.9051886  75.8260727  76.8465567
  75.9764194  75.5946493  76.8548393  77.3379803  75.0956297  77.2885704
  23.5298538  84.6869850  44.9458694  23.8970733  83.9828110  44.4115257
  23.9824963  84.6111965  45.7858706  50.0169468  84.8118591  56.5865564
  49.6179485  85.6239319  56.8988991  50.9560251  84.9966526  56.5716934
  52.1449280  97.8144836  32.3678589  51.7184925  97.8008461  31.5110064
  53.0807590  97.8457642  32.1691799  39.9522138 102.1877193  77.0862961
  39.6135521 101.4147758  77.5380659  39.2469978 102.4466038  76.4930964
  82.1541405  25.6131768  76.9444036  81.7505074  25.0623107  77.6151133
  83.0525589  25.7415628  77.2486973   5.3784418  85.2345085  53.9204693
   5.6000799  85.6920338  54.7315073   4.4432941  85.3996372  53.8001966
  77.1306992  97.4054432  58.7178898  76.8491268  97.2767544  59.6236467
  77.2463465  96.5193462  58.3748341  47.4329901  87.8586483  82.3426056
  48.0552769  87.4647808  82.9540348  46.5822411  87.5100422  82.6089287
  23.6565256  71.4332294  67.5646210  22.8976178  71.0704851  67.1077728
  24.2417932  71.7224360  66.8645859   8.9757991  72.3741484  50.4320431
   9.3902504  72.2945118  49.5729017   8.0419123  72.4599981  50.2404261
 113.8994980  13.6913860  36.6881561 113.2246971  13.7102675  36.0095501
 114.5777035  14.2862546  36.3681436  27.0533395  98.7378883  53.2172012
  27.5862956  98.5039043  52.4573040  26.2358141  99.0674782  52.8440380
  40.8841133  83.7724972  93.8432026  40.3467560  83.4031010  93.1424713
  41.3670397  84.4849968  93.4244442 115.7138634  94.9219990  29.5217371
 115.2510834  94.6405697  28.7325168 115.4987907  95.8508110  29.6071315
  40.6392479   1.3663903  80.8546638  40.4252100   2.2915761  80.7344532
  40.4368114   1.1911609  81.7736626  48.0665350  96.8811131  71.9106579
  48.5562801  97.0396900  72.7176523  47.7778196  95.9711838  71.9805861
  49.3850899  69.1206408  73.3499336  48.9054728  69.6124792  74.0164900
  50.3054094  69.3213463  73.5200977  23.7606144  94.1146660  51.3302851
  23.7947059  94.1972351  50.3772593  22.8334785  94.2145443  51.5463305
  16.4084184  97.0141602  68.5176277  15.7702851  97.0611858  69.2295313
  17.2003281  97.4121761  68.8791466  19.8077917  15.6782532   3.4480327
  19.1955221  16.3491094   3.1458598  20.3024483  16.1034966   4.1485429
  12.2063041  90.9478092  62.6564550  11.7218328  91.4269638  61.9841957
  11.5696144  90.8093929  63.3576679  75.1830387  98.4481907  39.5190167
  74.2626953  98.4542942  39.7819924  75.5615377  97.7052402  39.9891186
  52.9541206   5.7551789  38.7821746  52.2164679   5.3790700  38.3019257
  53.4358120   6.2583363  38.1256390  87.0375347  84.4743156  50.4470730
  87.2367191  84.4330692  49.5117378  86.6682625  85.3481007  50.5750084
  35.9807086  87.5864220  35.1401424  35.9985900  87.3688126  36.0721087
  36.4056063  88.4424305  35.0858641  27.8255391  93.4792137  83.2398033
  28.2417011  92.6662827  83.5264778  27.6499271  93.3430004  82.3087597
  25.7381892  89.2130947  60.4209137  25.4230762  89.3431091  59.5264673
  26.5573168  89.7067547  60.4604053   6.4743787  89.5869541  61.5244913
   5.6038499  89.5555115  61.9212580   7.0369297  89.1223812  62.1441269
  36.7809439  82.2869968  70.1025963  37.3928761  82.9196548  70.4787731
  35.9156227  82.6211071  70.3388643  88.3284569  14.4651866  40.1896334
  87.7646255  13.7796235  40.5478525  88.9090538  14.7002935  40.9134197
  36.8771791 108.5303593  65.1109028  36.4968061 109.3387413  64.7672892
  36.5338492 107.8427029  64.5403862  44.9883032  99.3178940  89.5332813
  45.1994848  98.5251522  89.0401459  44.3425322  99.0328979  90.1797962
  26.2687039  92.0756054  49.9456978  26.6184211  92.8549671  50.3775787
  26.1351013  91.4478588  50.6558514  42.3098135 100.3466320  30.0381684
  43.0538511 100.5004501  30.6203914  42.3397398  99.4077587  29.8541880
  40.8211851  97.2564411  77.3678493  40.6529760  96.9409561  76.4799261
  40.2653122  96.7115688  77.9249477  53.5361147  94.8477936  44.7453165
  53.3520317  94.1047764  44.1706276  53.1139994  95.5923748  44.3167830
   8.1355333 107.9261303  41.5763998   8.6595875 108.6366272  41.2065458
   8.1523693 108.0825424  42.5205851  27.0198178  87.1780682  48.0278587
  27.7759051  87.1136761  48.6113119  26.7166543  86.2756252  47.9281950
  35.5241060  88.0553913  72.9673100  36.3595986  88.3017349  72.5704527
  34.8726511  88.5744667  72.4957228  59.2087936   2.4194910  49.7772694
  58.2780552   2.2765398  49.6054459  59.2498589   2.6363662  50.7086706
   7.2330505  97.8711605  44.6214676   6.6797274  97.4566364  43.9594746
   6.7797703  97.7082825  45.4486561  35.5678463  99.1147327  50.3348780
  35.7281756  99.7001171  49.5947027  34.9082255  99.5678329  50.8600760
  95.4937077  30.4922843  64.7956657  96.3007736  30.9100246  64.4950724
  95.0157833  31.1897373  65.2444172  57.7822018  75.3251553  71.9289637
  57.3027611  74.6344423  71.4714909  58.3187675  75.7342958  71.2500429
  31.6364956 101.8917847  76.5201664  31.0683084 102.2022343  75.8151722
  31.2939644 101.0254002  76.7399025  10.4169059  96.2235737  23.6083007
  10.1337814  96.8469238  22.9393363   9.7795677  95.5112553  23.5570049
  25.4854226 107.7478504  44.7155523  25.2724576 107.0297623  44.1195440
  25.0625420 108.5141659  44.3280363  10.4249489  82.7169704  20.4397392
  11.2156641  82.3375893  20.8232355  10.7427311  83.4482479  19.9101317
  14.5284927  72.0963669  24.5297480  13.9381289  71.4208651  24.8635173
  13.9988971  72.8936481  24.5197105 110.1324081 106.9883060  62.3330975
 109.4258595 106.4570427  62.7002144 110.2593899 106.6409016  61.4502525
  74.2440128   1.0296017  70.7761049  75.1869869   1.1575015  70.6728029
  73.8768673   1.2531902  69.9208593  39.0556264  91.7638779  87.4921894
  38.1269979  91.8206978  87.2671318  39.1036916  91.0549450  88.1335449
  51.8344450  97.5450134  48.1694889  52.6299810  98.0745316  48.1150007
  51.5479946  97.6359177  49.0782881  47.2869253  69.3722439  77.5500631
  46.3688278  69.6080828  77.6831198  47.3007679  68.4173536  77.6150513
  93.4379196  75.6345844  40.8992100  93.2030296  76.2605190  40.2141809
  92.6482010  75.1082134  41.0237169  62.0365334   6.2381136  31.0697198
  61.7112732   6.6434813  30.2659082  62.9660606   6.0839385  30.9010553
  30.8040094  76.0692978  73.1496096  30.1419067  75.8303690  72.5009489
  30.3218198  76.5617847  73.8138247 109.5466328 100.5464935  51.6317749
 110.2268600  99.8732185  51.6167212 110.0264168 101.3729668  51.5771961
  70.5407763   7.0103121  19.2773545  70.4552507   6.6077358  18.4131503
  69.6653938   6.9460618  19.6592033  38.1344604  85.7671928  58.2393122
  38.9410782  85.3472900  58.5381222  37.4959207  85.5752850  58.9260960
  27.7521276  87.6785278  28.4594798  28.3546615  88.3078003  28.8559723
  27.3892832  87.1942997  29.2011666  25.8703995  62.1803856  55.5727768
  25.6002092  61.7370510  56.3769484  25.0915647  62.1632767  55.0165796
  34.0066242   5.6212759  38.7921858  33.1237483   5.5862564  38.4240341
  34.5772767   5.7486176  38.0343127  92.3274994   2.5181985   3.8789082
  92.9344654   1.7824052   3.7987161  92.7311611   3.0917716   4.5302963
  29.0926886  86.7548561  49.4510269  28.7405467  86.6009140  50.3276825
  29.9889994  87.0548534  49.6022272  94.6559048  88.9044476  54.2149353
  94.2142391  89.7063637  54.4943857  95.4388237  89.2095280  53.7564516
  64.6660709  11.0376906  78.1965828  64.2121458  10.4975522  77.5497198
  64.1474915  11.8408298  78.2442760  25.8696771  85.0380611  51.1821556
  26.5228891  85.6636524  51.4954901  25.0602198  85.2958679  51.6232300
  52.8402233  96.4459324  85.4457474  52.1285057  95.9557724  85.0341320
  52.4054146  97.1786118  85.8820534  34.7903419  91.3065720  62.2548199
  34.0907717  91.2459564  61.6043139  34.4608760  91.9284439  62.9036283
  74.3557215  12.8721988  47.1926594  74.3909502  13.7643361  47.5377417
  75.2508116  12.6907039  46.9061279  60.7457733  20.8831906  63.3361483
  60.0244951  20.8159947  63.9618301  61.5069962  21.1075306  63.8713551
  73.5333347   3.8969991  69.8920584  73.2198811   4.4239908  70.6270838
  72.7841234   3.8439643  69.2986727   9.6912086  76.6376686  53.2976532
  10.5306840  77.0842361  53.4076071   9.4664055  76.3306284  54.1759586
  35.7979202  58.5968304  68.3810186  36.6995287  58.5386276  68.6971617
  35.5350757  57.6875973  68.2380486  41.2485600  54.8111105  86.5456200
  41.3745689  55.7368040  86.7540455  40.3569365  54.6193790  86.8362713
  30.6062365  99.2450333  67.5906181  30.9792185 100.0989437  67.3716354
  31.3660264  98.6886120  67.7619076  64.6387577  97.0949936   4.2808753
  65.0294542  97.6030064   4.9918687  65.1659155  96.2971497   4.2388207
  25.0163460 107.0600128  51.3223124  24.1700363 106.6436958  51.1590099
  25.4935670 106.9638634  50.4981518  54.7294378  95.7468224  63.1949759
  55.5660486  96.2118435  63.1870604  54.8001051  95.1145077  62.4798393
  28.0994558  68.6479568  62.5341702  28.8811517  68.5256243  63.0728912
  27.3716497  68.6016464  63.1541586  50.5083370   4.4886261  75.6114340
  50.5579233   4.3814451  76.5613174  51.0907507   5.2244246  75.4226923
  38.9583254 107.9530239  87.0886612  38.5340476 108.4712601  87.7725029
  39.4526911 108.5922909  86.5756607  28.0845833  78.0407810  63.0947924
  27.3247766  77.9483175  63.6695766  27.8871512  78.8086414  62.5584650
  40.0716209  88.0603409  66.8885851  39.6886039  88.8950443  66.6187668
  39.7035813  87.8975391  67.7570724   1.0255481  80.1375294  37.9255199
   0.2139268  80.4568100  38.3199358   1.7161334  80.4587555  38.5052919
  58.8850784 104.1146469  79.2660713  58.1447077 104.6571350  79.5377159
  58.9179993 103.4119415  79.9151897  15.1242435  68.0607367  50.9939671
  15.5772233  67.2914934  50.6485510  15.6722605  68.3547449  51.7216110
  51.3146114 103.0927086  71.1994314  50.8471966 102.8458786  70.4014158
  51.3502598 104.0487957  71.1701202   9.5338297  50.3164625  78.5310507
   9.4976974  51.2321568  78.2545948   8.6729622  49.9640036  78.3054113
  29.1939139 100.8857346  35.7534528  29.7245908 101.6591167  35.9445047
  28.3241463 101.2343884  35.5580521  50.4668427  82.9979992  87.3750401
  50.0358963  83.7375259  86.9465351  51.4014912  83.1927395  87.3061752
  58.7909651  90.9981346  66.6316223  58.0157757  90.4500866  66.7539501
  58.7434769  91.6414738  67.3387909  58.6252832 105.4016399  76.3478661
  59.5441628 105.6491375  76.2447071  58.4684181 105.4507637  77.2908497
  32.2668242  95.3701782  49.4280195  32.5421977  94.9683952  48.6040211
  33.0807972  95.5013752  49.9142981  26.8100715  81.3768673   8.8526702
  27.1231794  81.0410309   8.0127847  26.2487936  80.6809902   9.1946501
  52.5845337  83.3276367  66.9426012  51.6484928  83.3347225  67.1426153
  52.6255131  83.2252693  65.9917736  26.6407561  60.6177664  66.8201685
  26.3892579  61.3942909  66.3201857  25.8972549  60.4555750  67.4007988
 104.1549587  34.0073586  26.8752313 103.9435005  33.3740854  26.1893129
 103.3377552  34.4838357  27.0214868  86.0826778  13.2403660  66.9753504
  85.2689075  13.4296358  66.5082312  85.8299828  13.2206571  67.8983831
  50.9996605  16.9790864  69.2687511  50.1835918  17.4615419  69.1364622
  50.9292555  16.2244821  68.6840773  20.6799793  89.9015141  37.0491600
  21.3631773  90.2712154  36.4898777  20.5718231  89.0042400  36.7338419
  61.2665224  10.0440860  43.5441875  62.2228193  10.0773287  43.5192394
  60.9900188  10.5088627  42.7544022  33.2702661  48.2300091  20.3390574
  34.1641164  48.3438301  20.0160885  33.3781338  47.9222584  21.2389946
  81.8908024  18.6638844  33.0424070  80.9929657  18.3344567  33.0024219
  82.0012760  18.9485943  33.9495826  10.9548354  79.2834234  73.7476635
  11.4231575  78.4875631  73.4956455  11.0289121  79.8566818  72.9846954
  47.4230337  12.8964424  71.5905428  48.0482626  13.3217180  72.1774483
  47.8981352  12.1432328  71.2395668  56.0867882  10.5522573  60.6772518
  56.0958242  11.4964163  60.8344650  56.8049383  10.2135527  61.2118292
  66.8014145   9.8547399  81.9673347  66.1858892   9.2154717  81.6085911
  67.2795582  10.1808274  81.2049103  13.9222169  76.9612074  66.4994383
  14.2167652  77.8525639  66.6864014  14.7291183  76.4496088  66.4410496
  19.3228018  89.3988991  63.9526653  18.3766007  89.5270634  64.0198231
  19.5831966  89.9277210  63.1984901  71.8608427 101.1049843  27.4983215
  72.4557924 101.2549400  26.7636228  71.3009214 101.8811417  27.5153756
  47.6963997  72.4956894  78.8186216  47.6918650  73.2924366  78.2881451
  48.5380363  72.5159979  79.2741108  10.9753287  81.2684727  24.5050097
  10.5022609  80.8031654  23.8151360  10.8213687  82.1945667  24.3182731
  33.4663701  81.5905285  65.6864166  34.1426682  81.7557812  66.3433361
  32.8034806  82.2610950  65.8511829  14.7988260  85.1300812  94.3622971
  14.5961857  84.3874264  93.7934208  15.7546496  85.1393032  94.4127941
  85.7400036   9.3235207  58.5740805  85.0736904   8.9646763  59.1601658
  86.1171150  10.0566101  59.0604925  20.3644848  70.7683277  77.3833942
  20.0186753  70.6066751  76.5056038  20.5251884  71.7116308  77.4075460
  53.9105463  90.4560375  76.6663980  53.1438684  90.0917053  77.1087837
  54.2237091  91.1420822  77.2558880  44.5462847 102.6298618  72.6898336
  43.9864302 103.0960083  73.3107281  44.9083996 103.3174133  72.1309185
  42.4244642 102.5490475  63.5473680  42.4342489 102.7670670  62.6153803
  43.0167723 101.8010902  63.6246061  14.2664051  82.9942608  32.9916096
  13.5655749  82.7738285  33.6051869  14.4879544  83.9024734  33.1972933
  52.2311878   2.5829306  80.7952404  52.3576021   2.3144048  79.8852158
  51.9900274   1.7767906  81.2515450  20.4016280 101.8929482  82.5855350
  20.8275270 102.4108028  81.9024086  20.8478951 101.0466003  82.5577831
  30.0428462  73.7308502  82.7157879  29.1333485  73.4359932  82.6699352
  30.5391836  73.0474567  82.2653961  23.1257749  97.3241901  45.2920675
  23.3102536  96.4472485  44.9556398  23.5347915  97.9144573  44.6591997
  29.2745495  70.5053377  74.6505976  30.0364041  70.9966135  74.9579382
  29.6376562  69.6861076  74.3140793  40.6504393 108.0457211  69.5394802
  40.0449228 107.6596928  68.9065742  40.5402470 108.9903450  69.4309807
  45.6193972  77.7814770   6.7605174  45.5389977  76.9245863   7.1794468
  46.5604115  77.8957367   6.6275740  76.8967962  10.9008849  60.4527998
  77.7317953  10.7997680  59.9958754  77.0102453  10.4146683  61.2694693
  42.1100807  63.6688328  61.5131044  41.7694330  63.7368441  60.6211615
  42.8177643  64.3123674  61.5489388  59.6496153  86.5002632  63.7615442
  60.1553154  87.2098160  63.3652735  59.3391085  86.8620110  64.5915794
  71.4403725   8.8596743  58.5236931  71.6798735   8.2661343  59.2354345
  71.2767315   8.2840526  57.7766228  48.9545488  97.6300144  34.5275378
  49.3775463  97.0039749  35.1152301  49.0804148  98.4790421  34.9512601
  28.8716531  92.0652676  56.9710445  28.6623645  92.0669842  56.0370064
  29.5687675  91.4152622  57.0590973  51.6273737  77.1664667  65.9125566
  50.7170391  77.0307255  65.6496954  51.9341803  77.8803539  65.3535700
  34.9769521 101.6077042  42.4506569  35.3533745 102.3637676  42.9011106
  35.4015017 100.8516121  42.8560066  92.7486134 104.7351456  80.2307987
  93.1175804 105.5969906  80.0376129  93.5037518 104.1469383  80.2356339
  49.5768261  99.5004749  44.8795748  49.9987364  98.9868069  44.1908264
  50.2824783  99.7026920  45.4938936  44.6184301  83.4037018  82.4521446
  45.1595879  82.6511669  82.2132206  44.2377329  83.1661320  83.2976437
  14.0399504  96.8230724  84.1758442  13.2009780  96.3799286  84.0494347
  13.8059878  97.7367306  84.3393230  32.4371791  85.6886196  30.0060463
  33.3028698  85.8486080  29.6302605  31.9266868  85.3220654  29.2840600
  31.9871902  82.4370193  20.4737926  32.8579855  82.5484371  20.8552790
  31.4421320  83.0783367  20.9297061  79.0667677  23.3076382  65.0916195
  79.9296522  23.0517983  65.4175091  78.4702444  22.6519656  65.4528522
  44.4514275  90.2145100  51.6671658  44.0363598  89.9640274  50.8418131
  44.5519686  89.3908501  52.1443510  91.4472961  13.4717906  60.7682037
  90.7837391  12.9925466  60.2719784  92.0327377  12.7926493  61.1032486
  70.0586557  93.0964470  80.2694988  69.8574781  93.2135582  81.1979675
  69.3025064  93.4644794  79.8123121  26.6832781  93.6126232  11.1403763
  25.8453274  94.0677357  11.2237179  26.9947982  93.8427448  10.2650297
  75.9474373  92.0358276  28.8789105  75.4033995  91.2758446  29.0854979
  76.8298960  91.6786766  28.7792087  85.4619980  23.8493323   0.5710057
  84.6297836  24.3084645   0.4576186  85.9454632  24.3822098   1.2023032
  74.8644543  11.5838850  74.7880745  74.7338772  11.9000065  75.6820774
  75.4905844  10.8653736  74.8771477  37.4116898  20.4159117  45.7531929
  36.8631387  20.8516860  46.4054394  37.8140140  19.6877146  46.2265825
  85.3761101   2.5805718  25.8154321  84.5085621   2.9778004  25.7392621
  85.2225399   1.6440667  25.6905079  34.4519019 106.9712353  52.4760199
  34.3116665 106.2555504  53.0959892  34.4386125 106.5497780  51.6166973
 103.7555599   6.0457623  56.2247801 103.8265038   6.9839340  56.0486174
 103.5152245   5.9932631  57.1498299  60.8840847   9.1577363  37.5768089
  60.8558798   9.2991394  36.6305304  60.0306654   9.4580650  37.8893971
  32.9665017   9.7925025  58.8216829  33.0267096  10.3084290  58.0176735
  32.8670001  10.4429984  59.5167971  79.4132614  89.6499252  49.8076677
  78.9857864  90.0867558  49.0710020  80.2642918  89.3782234  49.4639254
  53.0185318   6.5951550  59.2085552  53.7872171   6.0258192  59.1737890
  53.3753920   7.4704349  59.3594456  49.6623516  87.3787212  66.7000532
  50.4608679  86.9729996  66.3624239  49.9336386  88.2578087  66.9643068
  68.9029360   1.5584223  42.9806709  68.7282705   0.8966813  42.3114777
  68.2665205   1.3742141  43.6715269  94.1098785  28.8598990  81.1471653
  93.9849567  28.0980587  80.5812836  94.8042488  28.5979390  81.7516994
  36.1646152 105.7378197  60.5714083  35.7427001 106.5943336  60.6393147
  36.7558599 105.8207226  59.8232222  88.9674473  27.7199364  31.8093395
  88.7380314  28.4015775  31.1777067  88.3599186  27.8533030  32.5369024
  51.8000937  92.6111126  51.5759182  51.2154722  92.6277351  52.3336601
  51.2671089  92.9459858  50.8547974 107.5368500 106.5735435  53.3664322
 107.6546383 106.7280483  54.3037033 106.5938377 106.4475250  53.2611179
  37.9407740  84.2741776  78.3560324  38.1543207  83.4005642  78.6838007
  38.6951756  84.8115921  78.5974646   6.6437042  64.2404652  42.0743704
   6.1604947  64.9701548  42.4620485   6.6022444  64.3997955  41.1314344
  51.4507437 101.6706181  56.8622160  52.0389700 101.1421776  56.3227892
  51.9027567 102.5087929  56.9590282  42.4244213  77.9610252  79.8457289
  42.5002384  77.4002600  80.6177521  41.9032383  78.7072420  80.1419735
  58.0994368 105.2019978  84.6241951  58.2144928 105.8754063  85.2946472
  58.6732626 105.4758835  83.9086914  13.7899077 108.8187981  87.6215172
  14.0986729 109.6762466  87.9142189  14.5123315 108.4694004  87.0997334
  37.2869921  89.4847775  38.6132669  37.0798540  89.6180248  39.5382380
  36.6776323  90.0567055  38.1465626  42.8511000 100.3650665  72.3782349
  43.4086561 101.0980892  72.6391029  43.3999920  99.8430729  71.7930269
   0.4717350  67.7131987  58.6611271   0.5994351  67.6727772  57.7133417
  -0.1015798  66.9722319  58.8573742  15.1773620  73.3347559  59.6271610
  14.9575627  73.1675196  60.5436516  16.0929847  73.0672359  59.5477867
  69.1147804   5.6106949  50.3088808  69.0717840   4.6861389  50.0647926
  68.2298517   5.8211237  50.6069565  80.1062298   9.6076244  68.4556150
  79.6959209   8.7616289  68.6349678  79.6596098  10.2193213  69.0409231
  42.4940157  87.3625469  54.2518377  41.7454720  87.4515629  53.6619377
  42.5157452  88.1871891  54.7373533  86.3529491   9.5124072  51.1706495
  85.5871964   8.9755774  50.9665251  86.7305183   9.7253990  50.3172445
  11.8101192  14.1789949  20.9103632  11.5899408  13.4363747  20.3479862
  12.1597373  14.8381341  20.3107500  49.4320679  68.8550329  67.1801949
  48.6019421  68.4324217  67.4004841  49.8521280  68.2524776  66.5664339
  80.4603291  97.9630756  59.1194963  81.3803005  97.9502392  59.3835449
  79.9754333  98.0148315  59.9431658  38.9625978 105.0602531  69.0769243
  38.1312847 105.3909874  68.7366772  39.4126630 104.7082615  68.3089542
 105.6987286   1.7999899  64.5656109 105.2116299   1.2945709  65.2163935
 105.8439064   2.6496381  64.9818516  62.9393005 102.8780556  69.7192144
  62.3560572 102.4568748  70.3506184  62.6577139 103.7928104  69.7061920
  50.3114319 101.5312481  91.3246918  49.5956707 100.8997440  91.3962841
  51.0723782 101.0721207  91.6802120  74.7259808  83.2326412  54.8746729
  74.1737461  82.5276756  54.5365858  74.7934580  83.8530540  54.1488886
 109.2352581   4.5500150  68.5944510 110.0558853   5.0293577  68.7086344
 109.2444038   4.2744169  67.6778316  77.7592468  11.0567129   8.7980491
  77.8040123  10.3342903   9.4244152  78.2699394  10.7545090   8.0469853
  84.2581177  75.1313210  65.0924730  83.7365723  75.4574060  64.3590593
  83.8170528  75.4725885  65.8704424  32.4863553  95.8032894  82.7074051
  33.3149195  95.7448292  82.2317028  32.6531672  96.4409542  83.4015179
  20.8227468  73.5566044  67.3482847  20.3791118  74.0063190  66.6291380
  20.5646658  72.6397943  67.2529650  38.9225149  23.5737371  31.1464667
  39.1191125  23.0398703  30.3766799  38.0797529  23.9811635  30.9464931
  69.3394184   7.7969050  77.1586752  68.4846067   7.5413942  77.5054312
  69.4747686   7.2205788  76.4065075 111.7770672  68.8975573  41.5449715
 111.3418961  68.4651995  40.8101749 111.5220261  68.3830357  42.3107719
  58.0771828  71.7323494  59.7195768  58.6965370  71.9975233  59.0396357
  58.3326292  70.8366108  59.9401045  53.5001469  99.5853424  23.9059877
  53.1430483  99.3591976  23.0471683  52.9399586 100.2956486  24.2188311
  24.1598821  87.5268936  77.8248692  23.5690570  87.8010082  78.5263109
  24.9135423  87.1509647  78.2797384  89.0546894  -0.0189015  64.0638065
  88.4300613   0.7063400  64.0738058  88.8465023  -0.5251467  64.8490477
  51.7996693  29.0341806  38.1277180  51.7414904  28.1400299  37.7910519
  52.7356434  29.2342591  38.1155658 102.4809074   1.8787783  94.5308018
 101.9662857   2.5130266  94.0316772 101.8348122   1.2577488  94.8671246
  49.8138285 105.6881142  49.9524403  49.4983816 106.5330029  50.2731991
  49.7524166 105.1062393  50.7099867  67.4935770  98.0772305  71.0438824
  67.5241184  98.7710667  71.7025757  68.0742979  98.3827972  70.3470230
  19.6026313  19.1763854  45.0057268  20.1961589  18.4597003  44.7814083
  19.4296014  19.6138930  44.1721344  87.4232483  12.3153412  88.8593960
  86.8854904  12.2949135  89.6510029  86.8016052  12.1811128  88.1440163
  28.1965375  31.9212723  22.6600409  28.4201860  31.0276031  22.9199839
  27.4085617  31.8250370  22.1251893  90.7316303  15.7405388  64.3978119
  90.1531982  15.3392124  65.0463343  91.6099262  15.4582047  64.6529579
  15.7005692  61.5869093  53.1653023  15.0137818  61.2233782  52.6063728
  15.7630169  60.9736633  53.8976049  49.5171165 107.7807999  44.7998476
  50.2878952 107.2209072  44.8929024  48.7749481 107.1808052  44.8735332
  79.5297003  76.5792990  54.3021345  80.2402306  75.9738636  54.0904188
  78.9404011  76.5295744  53.5494804  49.3067026  80.6482315  59.7821760
  48.8518715  80.0047684  59.2387390  49.7803307  81.1973858  59.1574097
  44.8798132  80.0993347  80.7114315  44.9483776  79.2211819  81.0861111
  45.4780483  80.6310940  81.2363815  34.9400997 105.0489616  33.0557346
  34.8460531 104.3193531  33.6681581  34.8612285 104.6471310  32.1905518
  25.3659320  89.2049599  48.8171959  26.0831285  88.5804272  48.7084818
  25.5373764  89.6219540  49.6615601 105.2226734  45.0943184  92.6317215
 104.6729851  44.5662642  92.0527267 105.3783131  44.5333529  93.3915424
 102.4018192   6.4318228  70.3586197 102.6338100   7.2419018  69.9045420
 103.1187916   5.8305216  70.1570797  14.1101849  68.4242344  43.1237221
  15.0017631  68.7476683  42.9944515  14.1848135  67.7971888  43.8430786
  46.3368225  91.8060780  49.7203493  47.1200037  91.3814545  49.3702745
  45.6133652  91.2499332  49.4313145  31.4935374 104.3670177  38.8441086
  31.8965554 104.1187000  39.6760631  31.1069942 105.2263927  39.0122867
  27.7062321  89.5868492  37.0299578  28.2465243  90.2982998  37.3736978
  27.1766877  89.3061638  37.7762985  40.3716183  94.4736195  24.6923685
  39.5927811  94.8302841  25.1194930  41.0956573  94.9927425  25.0423670
  61.5701771 105.7369995  66.8511772  60.7168913 105.5923557  66.4422607
  62.1989775 105.3709793  66.2291861  27.3518682  85.0141335  44.4019365
  26.5953207  85.4485226  44.7958565  27.4979138  85.4848385  43.5813665
  69.9251747   5.5283618  87.8032875  70.2947474   5.8659118  88.6191940
  70.5795813   5.7410347  87.1378899  38.7158108  91.4754868  74.0196180
  39.2691922  92.2563934  74.0059996  39.3081999  90.7664776  74.2698383
   6.5123546  78.5285139  83.8242817   6.8116820  78.5380983  82.9151344
   7.2305411  78.1212568  84.3086147  65.6857157   7.4362874  60.0617361
  65.6903601   7.6070356  59.1198969  66.5943146   7.5665367  60.3332472
  73.5611534   1.7040928  27.9379487  72.8922844   1.0887229  28.2382250
  74.0460205   1.2225659  27.2676730  39.7688580 106.0678482  44.7568560
  39.7746158 106.4784622  43.8922215  39.7085142 105.1298046  44.5761299
 106.4351463  21.6748071  15.9757113 106.5290546  22.2951841  15.2528393
 107.2151756  21.1227775  15.9204352  52.3530436  78.9850473  71.3104296
  52.0607328  79.6931696  70.7365417  52.5434589  78.2587481  70.7167435
  29.4741201  87.0802975  58.7643766  28.6450815  86.6048622  58.8181067
  30.1090097  86.5034199  59.1890526  82.7859402   4.6394938  28.2168078
  82.6286888   5.0391966  27.3613882  82.1001148   4.9995655  28.7791395
  66.4374304   8.8066381  38.8505101  66.8383980   9.3676436  39.5143843
  65.6042099   8.5366225  39.2366004 102.6096153  -0.0535459  63.3659506
 102.9220295   0.5160201  64.0689611 101.7770481   0.3339320  63.0959082
  82.5216866   1.4726542  82.6147270  82.0016670   2.0820904  82.0908928
  82.3729324   1.7472628  83.5195446  47.3390007  67.7223635  82.0601273
  47.8051758  68.4965563  81.7446232  46.4261866  67.8767538  81.8168831
  47.6508522 107.0122242  77.1365833  47.9923439 106.5756607  76.3561773
  47.8058386 106.3893032  77.8466415  71.2583876  12.7270222  69.8101854
  71.7729807  13.5084879  69.6083593  71.3816595  12.5952542  70.7502222
  59.0725851  89.0219212  29.9223614  59.0144968  88.3649635  29.2286229
  58.6838150  89.8087502  29.5402813   0.1419260  16.1683083  78.1596422
   0.8803152  16.7354918  78.3817148  -0.2750571  16.5990996  77.4134731
  33.4896755  79.5760536  10.6445003  32.5383663  79.4856787  10.5890846
  33.6280632  80.2449322  11.3150823  33.1735110  10.2713025  73.5192442
  33.1957150   9.3539542  73.7916613  32.4587893  10.3152907  72.8840494
  29.2710328  94.1957569  47.0031118  28.9497662  93.4569263  46.4862394
  29.7938371  94.7094345  46.3874435  11.3135839  92.7521801  50.7697487
  10.4494894  92.4652481  50.4743814  11.6365874  92.0273972  51.3050842
  58.9792490 105.3015995  90.7353115  58.5899591 105.0356388  91.5683460
  59.5310497 104.5617104  90.4817390  55.3229332 100.5800724  43.4899902
  56.1877728 100.7669735  43.1248188  55.4989290 100.0288963  44.2525244
  89.4779968  32.8670263  55.6558514  90.1645660  32.3166966  55.2790260
  89.9492741  33.5986757  56.0543728  33.7691879  92.4952412  58.0805016
  33.5171485  92.8433132  58.9358091  34.5282197  91.9409180  58.2617044
  37.7833915  97.1653843  60.1547670  36.8517804  97.0213509  60.3208494
  38.2244921  96.4752197  60.6500769  31.9083762 100.1772499  63.9829206
  31.4555931  99.4465923  63.5617733  32.7815676 100.1759338  63.5907888
  55.4228354 108.4697247  15.8725142  55.2119780 107.7066231  15.3345072
  55.3735495 108.1488991  16.7730021  22.5383258 105.9002018  68.7379503
  21.8325305 105.8796692  68.0916834  23.3291316 105.7048607  68.2352591
  64.3933009   0.2737042  82.7207088  64.1696572  -0.6372169  82.9116058
  63.5488176   0.7206627  82.6632023  97.3346329  10.3254390  31.8203092
  96.6176605   9.7541338  32.0955968  98.0406284  10.1389492  32.4392056
  46.1291027 107.5105476  38.7098956  46.2911320 106.8919659  39.4221687
  45.3751230 107.1480751  38.2447481  41.4902258  83.5069942  64.3358660
  40.8879232  83.2317734  63.6447001  41.2731361  84.4263077  64.4906759
  16.1503708   2.0222065  52.0459747  16.3162851   1.0853156  51.9413805
  16.7179286   2.4397492  51.3980770  26.3237095  30.5124998   0.0998835
  26.6470504  31.3490582   0.4343310  25.4820490  30.7250094  -0.3034503
  86.6691303   6.0224718  65.4609632  85.8928871   6.1881202  65.9959698
  87.0089817   6.8934846  65.2558517 110.6646824  28.3482957  57.2781801
 111.0178566  28.3486223  58.1678391 109.9073219  28.9320803  57.3209238
  20.9012008  78.3695984  65.4577112  20.1522374  78.2794571  66.0469151
  21.6609645  78.4005642  66.0391188  34.1622782  84.6944809  55.4354239
  34.0506601  85.6213379  55.6468678  35.1092982  84.5788574  55.3578758
   2.6502049  80.8437824  74.8526621   2.8458098  79.9289131  75.0551128
   3.3978546  81.1392593  74.3331003  32.2964835  60.8985090  75.5142403
  31.3965821  61.2232161  75.4830551  32.2265816  59.9753714  75.2710009
  95.0808334  18.1544852  79.7178316  94.3014050  18.0524135  80.2640057
  95.2254581  17.2860432  79.3421650  73.5410166   4.0935913  44.2618942
  73.8238430   4.5991725  43.4999084  73.9658308   4.5222619  45.0048685
  38.4810686  86.0904694  65.0441456  38.5459900  85.6527996  64.1953373
  39.3677974  86.4052868  65.2197313  90.3453636  17.4009120  29.1766644
  91.2173080  17.7425003  29.3748403  90.2958488  16.5759599  29.6596074
  34.6337414 108.7160397  48.7304449  35.1389480 108.7738419  49.5414066
  34.5558763 107.7767944  48.5631895  20.3523064 101.3716984  32.5636244
  19.4206393 101.5413666  32.7030492  20.3786206 100.7880306  31.8054199
  39.7704530  90.1410866  37.9600716  40.1631546  89.3848038  37.5241280
  38.8552999  89.8932362  38.0915713  30.6041265  93.5721970  50.9908772
  30.9268999  94.3634224  50.5595922  30.5054498  93.8232994  51.9092703
   9.3460447  60.1645565   8.6346638   8.5253417  59.8778486   8.2340682
   9.0934461  60.4697609   9.5060277  13.6298788  30.1575422   8.6691350
  13.5714221  29.2031670   8.6246568  12.7792525  30.4644871   8.3553642
  48.5498095  17.8913605  58.1560040  48.7569523  17.2347903  57.4909925
  48.8193417  17.4892128  58.9817524  49.1634846 100.2823925  35.0655985
  49.8807573 100.3558159  34.4360256  48.3921909 100.5850983  34.5863175
  57.1483088 102.9337311  58.0247402  57.0755911 103.7115192  57.4715710
  58.0845356 102.8574181  58.2088184  71.4447832  96.0248566  62.4882746
  70.8592749  96.0724449  61.7325306  71.4998007  96.9261932  62.8057623
  91.6089439  14.5650017  71.2177277  92.1771145  14.0111482  70.6823301
  91.6381168  15.4213405  70.7910395  20.8776546  73.3524132  26.6835284
  20.1919317  73.8766336  26.2697554  20.5450678  72.4553919  26.6523290
  41.1462593  97.8542995  65.5062437  41.4148331  97.9289532  64.5905304
  41.5615797  98.6001301  65.9392214  31.9103122  88.9815617   9.7649348
  31.4642406  89.4492722   9.0588915  32.0261979  88.0931759   9.4279301
  80.3507233   1.8190764  37.6473737  79.5833206   2.3403099  37.8832603
  80.7985878   2.3401947  36.9809747 100.1775742  13.8562536  90.0952721
  99.9071407  14.5298135  90.7193089  99.4956493  13.1871533  90.1545715
  43.5414934  94.7391796  18.6375606  43.3061981  94.3415833  19.4758844
  44.0766954  94.0769577  18.2002330  59.5398664   8.5532206  42.1623468
  59.3681908   7.6115817  42.1536589  59.9625826   8.7118375  43.0063725
  73.5953331   7.2353256  55.3835011  74.3852758   6.9633746  55.8506870
  73.7361860   6.9413811  54.4835091  32.7354741  85.3359890  61.6446781
  33.3617473  85.2099419  62.3575115  31.8789124  85.3109932  62.0711851
  71.1591768  11.1963010  62.7443457  72.0133638  11.5054619  62.4426556
  71.3514376  10.6997693  63.5397863  49.4291639  94.6071720  44.0091276
  49.9093246  94.8572922  43.2197475  49.8219442  93.7757587  44.2750359
  48.6344767 107.6599789  51.2934828  47.9500723 107.2476292  51.8205452
  48.2561350 108.4960556  51.0213280  82.2032738   0.3642641  29.9957538
  82.8029251   0.3103336  30.7398868  81.9494724  -0.5430111  29.8264313
  19.2017019  93.1661987  59.9716330  19.1935921  92.7844715  59.0938807
  18.8068020  94.0310097  59.8603678  27.1120524  81.1870861  39.8019862
  26.5627694  80.4253674  39.6167874  26.5102553  81.8314075  40.1747179
  95.8861828   1.9137114  62.7772999  95.3046799   2.6736379  62.8017569
  95.3286362   1.1773022  63.0284500  55.6068230  27.2223210  21.8618035
  56.2923670  27.6510954  21.3495398  55.8267975  26.2914848  21.8246055
  10.3282559 103.9061356  46.7058563  10.9173489 103.9590073  45.9532547
  10.0533271 102.9896069  46.7308903  45.6046152  98.2264900  12.8513420
  46.2328529  98.2825565  12.1313369  45.9671116  98.7954903  13.5303605
  83.0655575 101.8717861  58.6512613  82.3889065 101.6606903  59.2945480
  82.6079655 102.3772049  57.9794025  59.9967194  11.5400958  53.3125305
  59.9583149  12.4737155  53.5201645  59.9488449  11.5050375  52.3571682
  93.7578869  81.1542225   8.1268990  93.1663704  81.5330124   8.7771720
  93.7881279  81.8031216   7.4238676  57.2072601  10.2306175  53.5390568
  56.8592453   9.8947918  54.3650961  58.1526423  10.2809691  53.6802816
  89.1797733  10.3101122  49.3730211  89.1825294  10.9525287  48.6634254
  89.6586514  10.7363284  50.0838327  47.3866463 100.0095749  14.1790473
  48.0323792 100.6789207  14.4053948  46.8534231 100.4130840  13.4941459
  47.9835176 100.2529716  41.9284153  48.0269814  99.7524261  42.7431536
  47.2025728  99.9215794  41.4850903  22.0607805  90.7226658  86.8972015
  22.3052025  90.1393890  87.6157284  21.2670612  90.3323555  86.5312862
  43.4308004  88.5474205  66.7419243  42.7862263  88.3179283  66.0725307
  44.2588186  88.6097050  66.2657547  58.6192036  89.3714142  74.1631556
  58.8701439  90.2685165  74.3833303  58.0162811  89.1133881  74.8603916
  51.3214874  97.3295212  68.3732653  50.4435110  97.3936081  68.7491417
  51.1874342  96.9152641  67.5208282  49.7342253  89.2882824  35.0053692
  49.4099140  90.0820541  34.5799518  50.2221489  88.8315487  34.3201232
  85.6901360   4.6176052  60.3996515  85.5189323   5.0721371  59.5748377
  84.9887753   4.9075472  60.9829664  91.5998459  11.1918998  33.2576871
  91.0348225  10.5541039  33.6938071  92.2076225  11.4789331  33.9391875
  18.4910190  55.0539637  67.1405220  18.9686930  55.5454683  67.8087139
  17.6532876  54.8419762  67.5522232  84.2706108  92.6898003  85.1901436
  84.5346832  91.8850803  84.7441483  83.5323524  93.0172062  84.6763325
  79.7920084 107.7367210  10.3770232  80.1379299 108.1392193   9.5804268
  79.1874409 108.3886147  10.7316685  52.9286671 105.3566551  69.1663933
  53.1665134 105.7847881  68.3439827  53.7529278 105.0006962  69.4982338
  32.8151345  93.6148548  29.5325780  32.5785518  94.5215511  29.3371987
  32.8226590  93.1801987  28.6797881  44.0781307 107.3858166  64.8982906
  44.3005610 106.4800453  64.6830368  43.5143089 107.3173714  65.6687784
  34.7468328 109.1021729  54.3543339  34.5412707 108.3280087  53.8302517
  33.8954854 109.4228935  54.6519566  67.5076914   5.1560092  59.2953491
  66.9057989   5.6868470  58.7736559  67.3320723   5.4142326  60.2001762
  18.0274642 103.7312031  35.2551913  17.9526627 102.7776718  35.2929711
  17.3939943 103.9948845  34.5877957  44.5187807  93.0430222  23.7566781
  43.5981131  92.7845669  23.7990212  45.0025511  92.2230339  23.8557172
  42.3282766  77.9798317  93.9294338  42.1734571  78.6262321  94.6182251
  41.4944458  77.5178385  93.8427353  56.1004353  15.3943563  50.4514551
  55.2254677  15.7318878  50.2597904  56.6280890  16.1759949  50.6153297
  13.7284803  82.7570724  52.3623419  13.4855926  82.0870781  51.7233181
  14.5104611  82.4079418  52.7899408  97.2296047  15.5131602  53.9409590
  96.5156841  16.1364174  53.8064194  96.9205093  14.9432826  54.6451855
 100.8520985   9.2188364  30.4258370 101.2725830   9.4282287  31.2598515
 100.3365898   8.4331745  30.6081057  89.7837448   7.4623412  49.1512918
  89.6094227   8.4008157  49.0798283  90.4870892   7.3008150  48.5224438
  61.8731499  82.4216366  58.6789131  62.6796341  82.6303387  58.2074690
  62.0046568  82.7891922  59.5528889  25.3905463  83.3184814  61.6789770
  25.3136039  84.2200947  61.9910908  24.6167374  82.8769875  62.0290184
  32.0348978  84.5920372  44.1185379  32.3502612  83.6891937  44.0779209
  31.2267590  84.5407295  44.6289396  21.8620086  92.0716476  35.8150434
  21.5497565  92.7531147  35.2197814  22.5677824  91.6389179  35.3345633
  77.5327587  12.9030693  41.3389492  77.4536800  13.2350254  40.4446459
  78.4484339  13.0570173  41.5714788  39.3805647  95.5303192  47.0241022
  39.7189426  94.6879387  46.7205763  39.7739768  95.6490040  47.8886080
  15.1285982  92.1707630  46.1540604  15.4059935  91.2687492  46.3142490
  14.2290342  92.0919037  45.8365726   5.9132487  23.4051132  52.4511433
   5.6357288  23.5348201  53.3580017   5.1847798  23.7390518  51.9276476
  37.9354644  61.6835213  64.0342665  38.4594321  60.9451103  63.7237263
  37.0997858  61.2933016  64.2903900  87.2470379   9.7598857  72.9385948
  86.7341042  10.4730844  72.5584841  87.5678539  10.1117253  73.7689638
  68.9188385  12.2743011  15.8320355  69.0835619  13.2073617  15.6960297
  69.0961790  12.1328354  16.7619658  49.7302532 100.7150650  58.8619518
  49.6168089 101.4501381  59.4644690  50.3822088 101.0207367  58.2312775
  52.2475576  95.3222179  66.2850046  51.7771912  94.5801735  65.9050655
  52.0730782  96.0483551  65.6862354  39.3496990 107.9036522  39.4444489
  39.2662144 107.6891899  38.5153246  38.4672093 108.1612968  39.7110224
  80.5557156   2.5535324  80.5443287  79.9730539   2.0585212  79.9683905
  81.1039734   3.0643132  79.9487257  61.7103815  16.0751534  66.1634159
  62.2200823  16.8465114  65.9155416  61.8520451  15.4545939  65.4485273
   8.4800589  25.0911498   0.4823378   8.3887768  24.1744781   0.2223106
   7.5806063  25.3998327   0.5915707  40.0377798  88.8041973  73.5689831
  40.2493191  88.8058567  74.5025158  40.8886766  88.8074207  73.1305790
 106.1942101  42.4623585  43.1700754 106.9319057  41.8740368  43.3310556
 105.7299232  42.0678663  42.4318075  49.1771936  86.0064697  53.8597059
  48.6695862  85.2755833  54.2123842  49.6109152  86.3873672  54.6232748
  38.2011127 104.8384476  71.7184734  38.7184429 105.2452087  72.4135590
  38.6601686 105.0704479  70.9112120  34.9380136 105.1583481  50.3053665
  35.1916814 104.4447613  50.8907557  34.3072033 104.7622299  49.7042036
 102.9116249  17.1168065   9.8932725 102.2965240  17.2854197   9.1795117
 103.0506802  17.9734790  10.2970147 113.8943005  17.0256495  91.8423653
 114.3274593  16.5508068  92.5516796 114.5198917  16.9977391  91.1184311
  33.1481838  88.0466557  60.9439468  33.2489920  87.1781445  61.3335037
  32.4039173  88.4317303  61.4065599  80.5883694   2.5720298  56.8963051
  81.0051346   2.1746798  56.1316776  80.2415180   1.8305424  57.3924065
  79.6216011 104.5429039  61.2210846  79.8596096 104.9614143  60.3937864
  80.0031376 103.6668396  61.1647844  10.8805346  90.0627995  48.0665874
  11.2245166  89.1696358  48.0530453  10.1411748  90.0439453  47.4589491
  29.5745492  39.2395544   0.1664812  29.9409032  38.9339089   0.9962985
  28.9523339  39.9226165   0.4164946  12.3717630 108.0573368  62.7905083
  11.5196276 107.6229668  62.7529526  12.9092467 107.5857449  62.1541595
  48.6073256 105.6363487  61.1637783  49.2290401 106.3461781  61.3245535
  48.2276297 105.4513741  62.0227575  88.1368256   2.3453261  49.9916649
  88.4541512   2.3389143  50.8947086  88.6799145   2.9992545  49.5515919
  61.7974329  94.5348930  39.1827583  61.8101501  95.4377651  38.8650990
  61.2484360  94.5643902  39.9663210  97.3448944  13.3618331  72.7938223
  96.9891834  12.6579738  72.2513485  98.2717228  13.4010243  72.5578499
  43.0859184   7.9113483  76.9571686  43.8120794   8.3222872  76.4880753
  43.4568501   7.6653087  77.8045797  75.8264256  93.7549686  45.0221729
  76.4942312  93.3169556  45.5498219  76.1429596  94.6539402  44.9333239
  97.7230167  14.0022004  47.4676561  98.1841087  14.4088578  48.2013178
  98.3991718  13.5080445  47.0041227  83.2410336  10.7345366  50.6993246
  83.6332226  10.0730693  50.1293373  82.4971199  11.0707355  50.1995230
  23.7915468  78.9106703  76.2162209  23.6421728  78.8318443  75.2740431
  23.6316752  79.8348236  76.4075804  83.9423275  19.0197682   3.6480990
  84.6228027  19.6441054   3.8998646  83.6241341  19.3397677   2.8039509
  37.3378563  23.2452369  80.6135845  37.5313210  23.5619354  81.4959145
  37.8495502  22.4405766  80.5303669  10.2718019  92.1654606  33.7318611
  10.8956730  92.8862095  33.6450887  10.3244686  91.9127560  34.6535993
  78.7112665  22.8570676  58.7257719  78.7610149  23.0139780  59.6687126
  78.1311369  23.5446644  58.3988237  11.8515933  20.4169917  71.8422604
  12.1571767  21.1272502  71.2780046  11.9028115  20.7759404  72.7281332
  85.4325390  87.6207352  60.0769901  85.8020401  87.4483013  59.2109823
  86.1637878  87.4878597  60.6801844  28.8722515 103.4650040  42.6216030
  28.8991833 104.0678024  41.8785429  28.2634521 102.7778530  42.3506355
  81.3443279  14.5520580  27.6711178  82.2865582  14.6934354  27.7630138
  80.9459496  15.3233397  28.0744171  94.4747829  10.1754558  78.0014658
  94.6438789  10.2905476  77.0663786  94.8468208  10.9570074  78.4101152
  42.1816063  96.2354183  26.2846088  42.8535366  96.0915852  26.9509840
  41.9745111  97.1676159  26.3505912  42.7964973 106.4785957  61.4469624
  43.0037880 105.5442333  61.4318752  42.5402164 106.6524792  62.3526764
  62.0483923 108.8919258  81.9021988  62.0593214 109.8489952  81.9136238
  61.4149761 108.6515427  82.5783825  56.8616247  99.8681736  58.4984922
  56.1742067 100.3769970  58.0686235  56.5492010  99.7537613  59.3960094
  65.9657526   9.7509927  64.0246630  65.7052565  10.0011575  63.1382132
  66.8591022  10.0828016  64.1144085   5.0136882  93.7738705  91.8983650
   5.0947511  93.1263447  92.5986195   5.9111714  94.0640354  91.7353916
  87.1383762  20.7419276  55.3840017  86.6759968  21.3492799  55.9615517
  87.7355576  20.2683973  55.9631157 107.2765446   4.8283586  84.4144821
 108.0397797   4.9407378  83.8478470 106.7721939   4.1278335  84.0008068
 108.7986374  18.2330477  18.4508038 109.2215443  18.0271804  19.2844713
 107.8816414  18.3859909  18.6787474  19.1159046 107.1180058  31.3541293
  19.7031462 107.5237560  30.7163620  19.4570553 106.2303066  31.4629722
  80.1245403  95.8585835  50.2861881  79.6435690  95.0311375  50.2712154
  80.8103275  95.7251835  50.9405088  63.6803579   7.7860183  64.2356634
  64.5235872   8.2369453  64.2787838  63.5894203   7.5355619  63.3162975
  84.9165630  20.4526591  22.5169945  84.0340996  20.1072884  22.3820376
  85.1781178  20.1136422  23.3730865  74.0251446   8.2099390  37.5108457
  73.9901066   9.1662979  37.5303912  73.9120197   7.9849470  36.5873647
  83.5406303  97.0147038  66.5328884  83.0228901  97.6000977  67.0855951
  84.3192101  96.8193531  67.0543146  89.2206573  31.6254377  79.4213200
  89.0357494  32.5467610  79.2390919  90.1761913  31.5717554  79.4384241
  93.4945488   6.2535781  71.8955612  94.2855740   6.7237073  72.1591663
  93.7437153   5.3298628  71.9255781  49.6730137  94.1129303  81.4685726
  49.4334507  94.8972416  80.9749126  48.8429594  93.7846279  81.8142033
  72.2950220 107.5831604  83.7172413  72.8490639 106.9378662  83.2780743
  71.5355968 107.0829868  84.0161324   7.9325211   5.2531278  12.4577403
   7.0695144   4.8395801  12.4784744   8.4308511   4.7358486  11.8250310
   6.8567789   3.0780429  60.2557564   6.3743240   3.3205628  59.4654036
   6.4968091   3.6434874  60.9390736   4.4156665   8.3625406  68.7978697
   4.2839581   7.8994960  69.6251965   3.8272315   7.9253304  68.1823826
  85.3272057  28.9648557  49.5088005  86.2055969  29.3276191  49.6231079
  84.8744392  29.6029496  48.9573717  31.0620546  98.1140232  61.0221386
  31.0322475  99.0387917  60.7769108  31.7054820  97.7290630  60.4271221
  76.3906670  22.7763033   1.1133406  77.1038103  22.2607780   1.4900206
  76.7673635  23.6464787   0.9824561  97.6435280  27.8128266  74.3554783
  96.8993855  28.3464670  74.6342278  97.3849392  27.4693298  73.5002756
  65.2974653  21.2952828  78.7124348  65.6086254  20.6673360  78.0604410
  65.8565617  22.0627880  78.5916901  96.7943859   9.9031097  42.7070427
  96.5149117   9.0111929  42.9134750  96.0089588  10.4354680  42.8332663
  83.4279537  16.3244975  73.8998699  82.9392910  17.1323264  73.7422228
  82.8673935  15.6329536  73.5480690   2.8810552  15.2147520  47.0549011
   3.7381291  14.9600077  46.7131996   3.0618888  15.5403543  47.9366684
 114.2082787  21.0912538  75.4283094 113.3567238  21.0255241  74.9961567
 114.5289516  20.1900721  75.4639959  66.8744230  86.2099457  89.8451042
  66.7274284  87.1455479  89.7062397  66.4718485  86.0276794  90.6941891
   0.8348610  14.5472038  35.9079123   1.1450878  14.6984327  36.8007302
   1.2921633  13.7548113  35.6264496  97.5617313  46.6942787   4.5968851
  97.9337883  47.5762081   4.5949772  96.6872025  46.8040752   4.9702203
 112.2625160  44.2829847  56.8616295 112.0308685  44.5416117  57.7536392
 112.1743488  45.0863838  56.3487816  90.9691811   9.3176717  76.5355730
  90.9438133   8.7245905  75.7846737  91.5088749   8.8626611  77.1820354
 101.7175770   0.6607486  85.0592613 101.2325096   0.5404820  85.8756447
 102.2665787  -0.1202615  84.9895763   1.7814349  49.5841789   0.4674385
   2.0538872  49.6112394  -0.4497688   2.3499349  48.9257574   0.8668384
  26.9563770  26.6785693  16.9573581  27.5987840  27.0761347  17.5451422
  26.5846705  27.4166512  16.4743435   1.9743799  20.8625102  90.7567692
   2.2077610  21.2909842  91.5802765   1.0843972  21.1636996  90.5738831
  86.9512653  18.8353634  59.0847635  86.8354797  18.6775661  58.1477880
  87.8967857  18.9347315  59.1958714  49.6478748 105.1333427  36.8328428
  50.2937174 105.2845860  36.1427355  49.3127728 104.2537880  36.6586876
  23.4983897  97.9464531  54.1041136  22.7314305  97.5988770  53.6489248
  23.6404109  98.8075447  53.7109566  85.8412170  11.4758050  86.5639973
  85.9319496  10.5783677  86.2436771  85.1437283  11.4274025  87.2177505
  87.2550392   0.1317898  41.0593128  86.9920444   0.7892703  41.7033529
  87.0681381  -0.7061951  41.4824963  93.9416790  41.4567709  27.1333718
  94.2115879  41.3593817  28.0465508  93.8241768  42.3996496  27.0176005
  26.1832929  71.8290615  26.2696314  26.2280011  71.3930035  25.4186988
  25.3121185  72.2251225  26.2903237   5.7366198  11.4257824  62.3247051
   5.5334842  11.7584562  61.4504623   4.9123675  11.4980614  62.8059673
  95.8851242  19.3884265  87.7792740  96.5183926  18.6711156  87.7535629
  96.4214706  20.1798868  87.8256607  77.6280880   6.3891548  41.8246078
  77.9856968   5.5410373  42.0873785  78.3879995   6.8859112  41.5212917
  75.3145123 101.4430141  53.2266378  74.7792673 100.7641506  53.6376047
  76.0836315 100.9763622  52.8996420  60.0816774  83.7610722  67.2288895
  60.6703234  84.4783306  66.9938087  59.5912933  83.5809994  66.4268112
  59.9417543 102.4055672  58.5585260  60.0747252 101.4652157  58.6781025
  60.6572151 102.6774406  57.9836893  67.4975538  88.4752560  72.3059893
  67.0521021  88.6282158  73.1393003  68.3099508  88.0300426  72.5468636
   2.6588702  89.2101955  54.5569801   2.3780109  89.1155243  55.4671383
   1.8626723  89.4536495  54.0847206 110.1992130   7.5206035  43.9926624
 110.4660511   7.7641755  43.1062603 109.9968338   6.5868950  43.9338112
  72.3070335  20.7991529  63.4055805  72.1030188  20.5452442  64.3056583
  73.1420088  21.2626028  63.4708643  98.7628651  14.1208136  37.6164818
  99.3459606  14.2222333  36.8641877  98.0443668  13.5784245  37.2912073
  68.8822174  28.4075785  48.4175396  68.1998730  28.2968259  49.0796328
  69.7020102  28.2787991  48.8945961  71.6793203  32.3688078  41.8924141
  72.1571970  32.9070234  41.2613916  70.8583498  32.1530962  41.4500237
 115.1735973   8.2297224  84.6673775 116.0352421   8.6458242  84.6930027
 114.5588875   8.9404237  84.8497772  11.6517580  88.0132484   6.3821191
  11.9266796  87.1008396   6.4723641  12.4186826  88.4601688   6.0238993
  56.7955017  21.8423581  87.0556164  55.9362936  21.8592262  87.4771690
  56.7646313  22.5575972  86.4202309  66.3444090  13.6703122  55.5707550
  66.3238049  13.3527291  56.4734983  67.2567272  13.9211369  55.4258585
  22.2801280   3.2713217  56.6770411  21.6475344   3.9563099  56.8934822
  23.0378032   3.4615698  57.2301865  63.8189363   4.3983471  36.0792422
  63.3898687   4.1910166  36.9093895  64.0861082   5.3130513  36.1696100
  45.4370928  98.7643623  53.5788918  45.6021452  99.2175865  52.7521038
  44.9257231  99.3871403  54.0954924  70.3256035  96.4532661  66.9905233
  70.3860807  97.4002552  66.8648529  69.4933653  96.2104702  66.5847397
  17.1712673  79.2796898  23.6981964  18.0936170  79.3329906  23.9485168
  16.8039072  78.6125231  24.2779970  64.1807222  10.2438736  43.1345224
  65.1259565  10.0932157  43.1264305  64.0902328  11.1938560  43.2091904
  95.1019764   7.6428187  18.2111609  96.0088634   7.8914547  18.0323827
  95.1690865   6.9432080  18.8609862  86.2204075  17.2001779  67.1257877
  85.4273891  16.6714811  67.0372868  85.9131336  18.1047368  67.0658875
  51.7152023  94.3749523  62.5043535  50.7734680  94.2363834  62.4035501
  51.7852831  95.1102829  63.1131315  85.1317406 105.7018375  20.2944779
  85.4833794 105.7564926  21.1830688  85.8531284 105.9866238  19.7334778
  14.3039572  45.1352310   2.5246316  14.1018319  44.6818924   1.7061792
  15.2005899  44.8704386   2.7299806  54.4719124  95.2902031  54.5651102
  53.8065243  95.2375031  53.8790274  55.0283003  96.0237789  54.3033218
  74.0356588   7.2340775  69.7518921  74.1587543   7.0618123  70.6853819
  73.2352924   7.7572924  69.7083902 101.6707039  15.5771935  66.0247707
 102.4147129  15.0892317  66.3777208 101.8289089  16.4823043  66.2930584
  73.6637306  11.3040769  44.0125704  73.8538599  11.8078887  43.2212067
  73.7410593  10.3900790  43.7389660  16.2371063  92.1759796  58.4489012
  15.4148078  92.0607090  57.9726982  15.9735501  92.2589684  59.3653488
  86.6494274  11.0762084  53.3703327  86.0387516  10.6817818  53.9930105
  86.4854431  10.6138134  52.5484228  52.0686102 100.8482933  78.5204744
  51.3401365 100.4543018  79.0004015  52.5015640 101.4113235  79.1621733
  28.2552505 104.0953636  57.4488115  29.0557528 104.6111012  57.5459814
  27.5686049 104.6456146  57.8256035 109.9563408   3.9975598  35.3096485
 110.7501602   4.4766891  35.0718951 110.0648499   3.8010284  36.2401509
  43.3163834 107.7365208  81.9667530  43.1547928 108.6520576  82.1945763
  44.2106104 107.7288818  81.6253853  77.9485512  15.4799211  48.3905172
  78.8494968  15.6789064  48.1356955  78.0273533  15.0802314  49.2567015
  57.7277136 106.0935783  42.3109484  58.0915785 105.5380440  43.0003071
  58.1292725 106.9501686  42.4567318  86.2110519   5.7259589  50.7623911
  87.0962524   5.7988441  50.4055405  85.6724167   6.2589782  50.1775885
  92.1281910  17.6052272  44.6863842  92.4810505  16.7216361  44.5815516
  92.9013538  18.1665015  44.7449541  10.0933063   3.7075198  37.9554367
  10.1664686   4.4909611  38.5005045  10.9989667   3.4467116  37.7881289
  79.4713068 105.1042747  36.8440175  78.6775303 105.4003048  37.2895670
  79.9654770 105.9067917  36.6766644 103.6970711  22.4666023  51.0950184
 102.9471493  22.6331615  51.6660786 103.5067272  22.9627514  50.2988815
 110.0764561  19.9855840  31.8866444 109.6123981  20.2122521  31.0807300
 110.0177956  20.7737827  32.4265814  49.1157818   9.9769229  46.0239840
  49.6631336  10.5824113  46.5240049  49.6749115   9.6886331  45.3025293
 112.0411777   5.8488476   0.4754275 111.8023300   5.8934665   1.4012751
 111.5185070   6.5347075   0.0599169  22.4918151  36.1153245  59.3690252
  21.6547775  36.2603426  59.8101282  23.1508040  36.3388753  60.0262880
 106.4415169   6.2005419  55.6383801 106.5708065   5.2938235  55.3602123
 105.4989243   6.2729579  55.7884073   7.5008988  28.2401180  43.2025719
   8.0044079  27.8486180  42.4888229   6.5891629  28.1680632  42.9201221
  22.5458837  15.3822637  58.7290716  22.0145798  14.9200320  59.3773699
  22.6963544  16.2455273  59.1142559  14.5047903  19.1684520   8.8538152
  15.1111579  19.6916485   9.3780446  14.9961352  18.3753896   8.6396563
 104.0396786  10.0963616  84.5747852 104.5894527   9.4012833  84.2130566
 103.9021301   9.8424697  85.4873943 103.3149433  18.7704015  46.8534374
 103.9809704  18.0946124  46.7271519 103.6781025  19.5470905  46.4278746
 101.9160461  18.7857676  40.4434776 101.2000179  18.8677013  41.0734177
 101.5339947  19.0596318  39.6096516  35.7044053  83.9745331  93.5678959
  35.5783558  83.6440468  92.6784420  35.2554941  84.8199081  93.5751534
  96.0393143 106.1000824   5.7354963  96.1003208 107.0143127   6.0124201
  96.6294765 105.6312180   6.3254994  14.7798789  38.1670880  68.2163382
  15.3479254  38.3988142  67.4815845  13.9936280  38.6976838  68.0878401
  86.8543053  92.7362442  44.7041798  86.2574196  93.0583286  45.3796196
  86.8613434  93.4270000  44.0415812  22.6941538  19.0987432  47.6849031
  22.9478741  19.3293190  46.7912054  22.8065777  19.9087739  48.1823397
 112.6621628  11.8069112  77.4149370 113.3887959  12.3946989  77.6216888
 111.9295692  12.1402907  77.9330015   9.2423296  12.5935471  27.2713184
   8.3946002  12.5992596  27.7157903   9.3244195  13.4722960  26.9007874
 104.5119762  32.2420979  73.6909628 104.5160961  32.7088809  74.5266247
 104.3014717  31.3375926  73.9228916   1.6221079  33.1263471  37.1378827
   0.9230636  33.7777305  37.1950340   2.3483467  33.5106802  37.6288986
   5.4240942  42.4312735  59.1382313   4.5551664  42.8235340  59.0526152
   5.2562594  41.5448236  59.4580221  94.6362305  95.0099468  57.1873808
  95.3086758  95.6763172  57.3287821  95.1256943  94.2223549  56.9499874
 112.9726887  23.0128765  57.4427605 113.4122467  23.3441639  58.2258749
 113.3248234  23.5432744  56.7279816 101.9238758   9.1274822  33.0077243
 101.8778515   8.1786180  32.8903747 102.7918053   9.2808241  33.3811092
  25.4064012  31.4516854  43.3692074  24.4762611  31.6153669  43.2133865
  25.7108974  32.2282934  43.8386679  58.5488844  38.7619519  53.7986422
  58.7245035  38.4641242  54.6912146  57.6023293  38.9023137  53.7748671
  92.9652882  23.7365103  25.1145434  93.1611824  24.5268273  25.6177902
  93.8210678  23.4149170  24.8309088  26.9955492  38.8247275  43.9768314
  26.1374068  39.0395832  43.6112356  27.4369574  38.3372188  43.2813263
  42.3493576  26.7528319  41.0721016  41.6382551  26.1120796  41.0718632
  42.1394157  27.3438954  40.3490543   7.1887499  42.2889185  47.0891428
   6.6420084  41.8263006  47.7241945   8.0821991  42.0174503  47.2995806
 110.6584167  23.3182788  43.3836412 110.5543137  23.1241775  42.4521255
 110.8134651  24.2622948  43.4157228  72.3301029  87.4310970  40.5906010
  72.4111700  86.4781189  40.5520964  72.9609442  87.6983261  41.2590742
  11.9174564  50.3378010  48.6743879  11.1102235  50.6744146  49.0633583
  11.6510844  50.0108957  47.8150797  11.2674248  46.8097258  59.6115398
  11.0601950  46.4050245  58.7692165  10.4328799  46.8286276  60.0799513
  14.3781817  20.5797267  49.3617916  13.6690140  20.0285792  49.6927738
  13.9644337  21.1274457  48.6946726 105.3915501  48.5292053  27.4514413
 105.5657005  49.3814945  27.8508306 106.2238312  48.2777786  27.0510364
   8.3811712  33.7188792  51.9984579   7.9484236  32.9678607  51.5923357
   8.6866701  34.2469668  51.2608767  11.1380696  36.6840672  43.9740181
  11.4481902  37.4228168  43.4502745  11.2770462  36.9580960  44.8805666
  81.6704464  24.4815302  74.4429064  82.0353603  24.8183656  75.2612066
  82.1858978  23.6969662  74.2558289  21.9297051  28.9627957  46.2372589
  22.7471638  29.4275451  46.4161539  21.8004704  29.0599704  45.2938128
  10.5942452  24.7665453  35.3092194   9.7551906  24.3334270  35.1522851
  11.0315228  24.7572613  34.4577885  46.9072819   6.5943652  23.2327008
  46.7323494   7.4060404  22.7564526  47.0129824   6.8691093  24.1435122
  28.2060933  53.2301569  69.8894405  28.7608886  52.9890919  70.6312752
  27.3766875  53.4954119  70.2868795   7.4437022   0.8580497  47.0565414
   8.2139111   0.5400549  47.5275898   7.7014470   1.7203119  46.7304993
  73.4455681  91.6237545  82.5427818  73.1455135  91.4451218  83.4340096
  72.6934052  91.4121246  81.9898796  87.5996685 103.9761925  26.8779826
  87.0897675 104.1816521  26.0943866  88.0638599 104.7882175  27.0814061
  10.8352959  52.5534153  36.4535260  10.7748270  53.4965563  36.3016701
  11.0364783  52.1847391  35.5933905   1.1573915  42.1234655  42.2561359
   1.9324619  41.5655422  42.1911764   0.4320672  41.5575314  41.9918346
 112.4451351  96.0007668  59.8658085 112.6729298  96.7840767  60.3665686
 113.2161331  95.4380417  59.9374771 101.9708347  41.0390568  31.7109799
 101.9007587  41.8236113  31.1671114 101.9815445  40.3143597  31.0857320
  16.1357057  34.1868401  51.6174173  15.4083645  33.7374926  52.0478725
  16.9130218  33.8952231  52.0938349  27.8972411  17.1374249  65.6874895
  27.4178219  16.8736970  66.4728785  27.2880459  16.9715965  64.9680328
   0.3485068  22.5835299  16.6726720   0.1933298  21.6489220  16.5360558
   0.5931029  22.6533318  17.5954568  37.6096869  16.7807055  42.3492432
  36.8860698  16.4247966  42.8649378  37.2862458  16.7771173  41.4483547
  32.7183437  42.7235031  47.2780228  32.6246667  43.6672354  47.1483040
  31.9923162  42.3407984  46.7854214  33.4517026  31.4945173  30.9748268
  32.9354167  31.8548036  30.2538037  34.0616727  30.8890224  30.5534697
  26.8862724  33.3287525   0.7867541  27.2058129  34.1863632   0.5063425
  26.8321943  33.3933353   1.7402408 113.2861042  16.7344511  34.5813513
 113.7572670  16.1313987  34.0064001 112.6587105  17.1726263  34.0063691
  81.6171265  19.1723096  18.7707806  82.3019695  18.5828936  19.0867066
  82.0331669  19.6658063  18.0639517   2.7758163   5.8448714  56.5738630
   2.8238812   6.0816801  55.6476641   2.4544397   4.9432343  56.5741825
  40.5643749  24.5582461  41.6426849  40.3038931  23.7844777  41.1430216
  39.9249768  24.6110606  42.3530483  80.0005436 108.5050201  60.9713554
  80.4447937 108.1108284  61.7220163  80.4679012 109.3266964  60.8208370
   9.1110408  25.9807825   9.9479890   8.9723068  25.3246760  10.6310058
   8.8356191  25.5474687   9.1401446  34.4573259  35.2741408  79.0788031
  35.2089572  34.6815968  79.0657091  33.9263535  35.0040746  78.3295631
  96.5014267  95.2068806  23.5354638  96.4272594  96.1430740  23.3503199
  97.2348022  94.9132061  22.9949617 112.2308826  37.5079727  75.8996487
 113.1600094  37.6096797  76.1061001 112.2077751  37.3934340  74.9496078
  21.1403966  30.1559067  91.2638569  20.7619762  30.1003480  92.1413231
  22.0803213  30.0370479  91.4004135   3.7427008  27.0676160  52.7833986
   3.2515609  26.3300443  53.1453371   3.8284534  26.8642879  51.8519831
  90.4754353  24.0749431  23.9070940  90.1133251  24.5487022  24.6558642
  91.2441921  23.6249280  24.2574239  12.3924601  49.0567684  38.9269376
  13.0527282  48.3702040  38.8325644  12.6837182  49.5669127  39.6826839
  38.0054045  40.9335756  32.1925712  37.2845936  41.5628862  32.2176623
  37.8533030  40.4268646  31.3948607 113.2552624  22.3888779  72.5099993
 112.6381874  22.6704288  73.1854057 112.8015137  22.5598764  71.6847086
   7.6247478  36.2698865  39.0407395   7.7163237  36.3285708  39.9917412
   7.9040396  37.1273637  38.7198615 102.2460651  32.1867752  62.0043325
 102.8421116  32.3121643  61.2659264 102.3977184  31.2839651  62.2839165
  19.6979380  22.2269034  33.6306477  20.5609345  21.9956994  33.9741755
  19.6524131  21.7871380  32.7816677  16.9707608  47.1521568  47.3741579
  16.3775504  46.5311241  47.7968311  16.9856358  47.9073048  47.9621744
  14.9217427  41.3388014  41.2430382  15.7366741  41.4091301  41.7402029
  14.6685469  40.4195166  41.3269758  31.8817329  67.3884630  23.2748818
  31.3613725  66.5940857  23.1547666  32.7844882  67.1086168  23.1233764
  19.1068923  56.2370014  37.2395229  18.9404297  57.0922089  37.6359391
  18.4527314  55.6593323  37.6327205  13.8426185  15.3674459  13.7551844
  12.9018879  15.5123210  13.8565230  14.1626501  16.1619496  13.3278942
  39.8711014  41.9602394  13.7996888  40.4116821  41.1758471  13.8931453
  39.9352002  42.3978376  14.6485901   2.6772508   5.4374051  33.1800938
   2.8715163   5.8050543  32.3179293   2.4678615   4.5194909  33.0074024
   2.6901227  17.2845054  25.6338167   2.6820937  16.8910062  26.5063572
   2.3805091  16.5884244  25.0542974  11.9541860  37.2755456  60.5267334
  11.3112855  37.9836345  60.5657196  12.1518528  37.1825504  59.5947981
  20.5203104  44.7064877  53.1741714  19.6123946  44.5568371  53.4378481
  20.7521701  45.5428982  53.5777760 113.0591393  60.8296967  35.3139663
 112.7476597  61.5920830  35.8018041 112.6616764  60.0815201  35.7594776
  51.9850254   8.4607309   8.4757400  51.2789726   8.2841843   9.0974748
  51.5499115   8.8748199   7.7304614  12.9578638  20.4239941  37.0627618
  13.4585297  21.1311531  36.6559505  12.1798444  20.8544970  37.4171424
 110.2506733  17.1130466  41.4252663 110.2766609  18.0654550  41.5173244
 110.9921741  16.9071162  40.8560467  30.9373116  27.3880744  47.9732037
  31.3690114  27.3924470  47.1188927  31.4800262  27.9573798  48.5187197
 115.0356388  74.8058796   9.7783846 115.8306026  74.5598936  10.2514231
 114.7281456  73.9889097   9.3856514   3.8367265  36.6252494  23.4774065
   4.1348845  36.3741159  24.3516278   3.2981452  37.4031711  23.6223173
  33.7896466   3.1106052  31.9939780  33.3602977   2.8079730  31.1937857
  34.5524645   3.6000371  31.6860867 115.7535362  48.1575108  52.2107410
 115.5421925  47.7950382  51.3504028 114.9526978  48.6037970  52.4859190
  30.9387493  64.9797487  22.3410654  31.3663769  64.2339039  21.9202542
  30.5020261  64.6051407  23.1060314 100.0883198  15.5469394  45.2822876
  99.9536705  15.9579170  46.1362171 100.9328842  15.8848464  44.9843502
  13.5126472  60.8475399  49.0142918  14.4078207  60.7381678  48.6934614
  13.4284163  61.7876673  49.1733599  83.3341885 105.5732822  62.9369593
  83.1986332 106.0152626  62.0987988  82.6000023 104.9631786  63.0075026
  55.2034712  59.0769720  46.3132048  54.9289274  59.9318171  46.6450167
  55.6794548  58.6787748  47.0419788  14.7761178  27.6134849  26.5179348
  14.1905999  26.8735242  26.6787410  15.6390691  27.2990656  26.7875409
  75.5327511 108.4521770  55.8337021  75.6758070 108.1613064  56.7343473
  76.0134983 107.8205204  55.2988005  25.4555106  30.4471660  55.6371021
  25.4990292  30.4875946  54.6817493  24.6241879  30.8676171  55.8570004
  26.2664604  39.4234014  46.9214392  27.1187878  39.3005466  47.3393774
  26.4638209  39.4777727  45.9863853  65.6088400  30.9354234  25.7354712
  66.3581848  30.7126331  25.1831341  65.9969807  31.2117982  26.5656495
  16.3523817   2.7332634  57.7720928  17.0262253   2.4498187  58.3900118
  15.5457330   2.3336107  58.0974007  42.6598167  44.2821789  45.1520491
  42.7154303  43.4506083  44.6812773  42.3369265  44.0442514  46.0211706
 115.6068897  43.3324909  26.6622686 116.3665962  42.9287338  27.0818710
 115.0811005  42.5933313  26.3566256  11.4931703  40.2268410  46.6154480
  11.4298630  39.2745566  46.5421200  12.3442864  40.3793955  47.0260048
  18.3365667  62.7447462   7.6410580  19.2378676  62.5505161   7.8982830
  17.8124404  62.0752954   8.0807841  92.2019100  11.5900230  11.7678869
  92.9132557  11.0105324  12.0406556  92.2157097  11.5524209  10.8115256
   8.7410367  50.6978130  34.3132043   8.0544293  50.8114815  34.9703813
   9.0754861  49.8141623  34.4666171 111.4038754 109.1720295  64.8530006
 111.6342354 109.1727734  63.9239311 111.7869377 108.3638477  65.1940918
   3.0817252  49.4281197  55.6754065   2.2238100  49.6906948  56.0089731
   2.8992814  49.0537930  54.8135328  35.3860283  70.9265900  61.0641050
  35.1830292  70.5618334  60.2027225  36.3414764  70.9008598  61.1159849
   1.9097732  63.4700060  11.2541723   2.0948333  62.5555515  11.0402536
   1.3603772  63.7781334  10.5334413   2.7381584  70.2682972  56.9826984
   2.7084348  70.0453663  57.9131031   3.6251354  70.0349712  56.7087221
   6.5403557  31.1478925  63.3783150   6.8598855  30.7997346  64.2107296
   6.9810194  30.6195807  62.7127790   8.4365839  34.5582819  18.8813186
   8.3514267  34.0267801  19.6728265   7.7047384  34.2839479  18.3287120
  40.6066895   5.7277346  30.0893903  41.1264467   5.2671671  30.7481503
  40.6961870   6.6530013  30.3176546  10.3257835  39.4506216  60.6693935
  10.2150142  40.2510166  60.1562357   9.5412678  38.9353037  60.4817343
   5.9794873  66.7517328  22.5199819   6.8563235  66.3975906  22.6682115
   5.4006004  65.9919882  22.5825214  46.6379595  31.4303041  72.4747896
  46.3089275  30.6330109  72.0597076  46.7924786  31.1798859  73.3856392
  36.6920972  35.4595089  73.2805634  35.8838463  35.0598526  72.9592609
  37.1569371  35.7297373  72.4886513  24.4678998  49.6433449  45.4479504
  24.8666430  49.7815323  44.5887995  25.2092290  49.6004486  46.0519600
  29.9715519  53.2241678  57.6928616  29.8133707  54.1224718  57.9831457
  30.8104014  53.2650614  57.2336340 107.9093647  56.2743616  34.4912362
 107.6202583  55.3646803  34.5629191 107.4289989  56.6197538  33.7387800
  23.9693666  39.6449780  71.6922903  24.2236447  40.3842497  72.2446060
  23.2113457  39.2642522  72.1357822  99.0912342  59.3142843  26.9755173
  98.7908840  60.2180481  27.0715904  98.9009953  58.9075232  27.8208494
  13.0381286  48.2234621  57.7194452  13.0755675  47.2921133  57.9372120
  12.1029830  48.4161901  57.6516914  37.9060841  26.5649319  37.9006934
  37.0460415  26.2548757  37.6170969  37.7178311  27.3322153  38.4411287
  47.1272612  25.0978470  85.9369850  47.0034456  24.4083500  86.5892792
  46.7929173  25.8894014  86.3587570 110.0103664 104.0621376  73.5681725
 109.5784283 104.6606541  74.1776371 110.5432606 103.4955597  74.1260719
  23.7249279  37.1840835  39.9671984  23.1818318  37.8642249  40.3655529
  23.2215428  36.8896031  39.2081738   8.2600170  23.5137677  35.3392196
   7.5323391  23.8756108  34.8334670   7.8674477  23.2568765  36.1735630
   6.8015885 101.9772816  57.9529762   6.7379612 102.7955437  58.4455585
   6.2815678 102.1314526  57.1642828  22.2010946  27.8863859  24.9433374
  21.6486478  28.3243465  25.5908155  21.6980410  27.1152210  24.6816587
  20.9470034  31.4787936  25.7031798  21.8065143  31.8868136  25.5983210
  20.3799796  31.9555998  25.0970697  60.2415991  29.3552351  66.4403629
  60.1047754  28.4826851  66.8093681  60.8935785  29.2245603  65.7518291
 108.8576698  59.3285036  28.4442854 108.2159805  60.0069141  28.2339931
 109.6112919  59.5316315  27.8901792 111.8057728  53.7447071  64.6839285
 111.6865444  52.8007793  64.7888994 111.9805813  54.0639591  65.5692244
 113.3625317  31.3952398  14.1563070 113.7304401  31.4234066  15.0395298
 112.4820137  31.7582393  14.2519379 111.3877869  29.8125124  40.0760794
 111.5428257  30.5475235  40.6693363 110.8138847  30.1689625  39.3979931
  90.5614948  19.4871557  17.9625607  90.5218792  19.0105915  18.7917459
  90.7220840  18.8105059  17.3048472  25.2777338  40.6261063   9.7603405
  24.4026947  40.5372715   9.3826556  25.6530499  39.7473288   9.7045052
  84.6650791  86.9036770  33.7719250  84.3532848  87.0667934  32.8817511
  84.8199463  87.7756977  34.1350126  28.1272006  29.5440984  52.5122213
  28.4332299  29.9592304  51.7058420  28.3110738  30.1868939  53.1972313
  88.8865376  32.8780985  19.7017527  89.4622326  32.6328063  20.4260731
  88.4220600  32.0707822  19.4810033  36.1607385  39.0429211  63.8219309
  36.5409327  39.1213846  62.9469872  35.2713084  39.3840003  63.7280607
  19.1347325  14.7231567  30.9362578  18.7408304  15.3430843  31.5500689
  19.7163773  14.1881573  31.4763474  54.1220284  38.9231873  42.9749966
  53.4592199  38.5876584  43.5785961  54.8404503  39.2055345  43.5410166
  28.7952995  44.5893526  42.5314808  28.2056880  43.8353539  42.5228119
  28.4464645  45.1739311  41.8585634 100.0680256  25.4743242   1.5082058
 100.5147743  26.2948823   1.3000454  99.6480942  25.6377912   2.3526984
   6.1022997  33.3043504  35.6394577   6.1975390  32.5702024  36.2462425
   5.2054632  33.2305908  35.3131509  14.4695139  65.9001207  39.1608453
  15.0707638  66.0675192  38.4350991  14.7079039  65.0271797  39.4728899
  14.5178795  73.7587833  46.2950373  14.6079445  73.4965611  47.2112036
  15.2152050  74.4004250  46.1598921  12.5402761  12.2753716  67.0542812
  12.2165310  11.4094663  66.8060350  11.8425679  12.8760779  66.7923927
  46.6712999  42.8838778  37.8457761  46.5754271  42.5519753  38.7384582
  46.8944073  42.1117830  37.3258495  37.1638656   1.6741017  46.4277411
  37.5555849   2.3066650  47.0299435  37.8122449   0.9730530  46.3616705
  82.8663635 100.7311726  52.0553255  83.6108208 100.2132797  51.7490530
  82.1259689 100.4161549  51.5368652 104.0068340  57.1482468  14.8060858
 104.4522858  56.3070869  14.7048199 103.1907272  56.9341850  15.2581632
  18.1226301  31.4005041  21.3248634  17.9566610  30.6029940  20.8222055
  17.3027945  31.5649414  21.7907619  17.0280826  43.4532881  41.1916018
  17.0029545  44.1818714  40.5713034  17.9323900  43.1412983  41.1581135
  97.2861004 108.2730865  45.2070522  96.6017246 107.8954697  44.6545458
  96.8807602 109.0493202  45.5935621 100.1187897  19.3127811  50.5601358
 100.5865669  18.5098195  50.3306484 100.5508423  19.9963689  50.0480175
  55.3447342  94.2590046  92.1869564  54.8615313  93.5763168  91.7214584
  55.4434299  93.9186668  93.0761528  40.9868622  43.2106686  47.4336147
  41.5184259  43.4997272  48.1753111  41.3332844  42.3460007  47.2132206
  51.4079285  43.3340788  60.7669640  51.7336464  44.1228485  60.3333902
  52.1975803  42.8720474  61.0484076  22.3431945   8.5030675  72.2292423
  22.1932101   7.5689489  72.3747015  23.2400322   8.5529894  71.8984556
  19.9963427  27.2805691  64.9124718  20.0458694  26.7175460  65.6849861
  19.1977763  27.7926564  65.0401163  27.9285312  38.4607792  67.0551920
  28.1465220  38.2209349  67.9558516  27.3411369  39.2114711  67.1427202
 114.6028805  28.2937145  28.1826663 114.7455406  27.4538898  28.6192155
 113.6649895  28.3082533  27.9919648  55.0733280  37.7118659  48.7649775
  55.0312328  37.2032499  47.9551840  55.3987265  37.0937419  49.4194031
 103.4276772  63.5715628  45.9851265 103.7976646  62.7913761  46.3982344
 103.6857605  63.5011578  45.0660658  19.8171341  42.8887796  40.9645367
  20.4021811  43.3289957  40.3479624  19.8441529  43.4336758  41.7510414
   5.3199035  42.1374655  36.3802123   5.4758745  42.8713608  36.9746089
   6.0810328  41.5688610  36.4968371  43.1601429  35.9247375  31.1394739
  42.7978468  36.6253972  31.6817379  43.6375427  35.3681922  31.7547631
  16.6875911  23.9681029  62.1305466  16.8474805  24.8744130  62.3937368
  17.1323586  23.8815284  61.2873840  15.7017362  43.0033493  55.6787729
  15.5646873  42.5548506  54.8443270  14.9761534  43.6247778  55.7386827
  60.9170961  16.3210940  92.9107094  60.7117128  16.0772228  93.8132477
  61.8613577  16.1839783  92.8345203  25.1206350  46.2879467  46.6247702
  25.7850718  46.2734318  45.9358931  24.9644160  45.3653383  46.8263292
  25.7894969  24.8371100  38.7786031  26.5074396  25.1790595  39.3113899
  25.0532579  24.7658324  39.3861437 107.1242046  53.1243420  53.8049889
 107.3897076  52.2379494  54.0500402 106.6488838  53.0129957  52.9816437
   5.5235165  32.8936458  41.2903357   5.0258768  32.3795438  41.9261694
   5.0974679  33.7508011  41.2893677   2.5074318  36.8028402  58.0163479
   2.4848503  37.7304697  57.7813435   2.5724208  36.3449621  57.1782827
  72.5392818  98.0813694  17.1019757  71.7973709  97.4899101  17.2283518
  72.9725218  98.1078339  17.9551065  31.8597817  37.0382786  49.8963833
  31.4506960  37.8968573  50.0046635  31.9226670  36.6891003  50.7854033
  84.5156765   9.9371862  54.8824501  84.3786716  10.5725789  54.1797876
  84.0490341  10.3054309  55.6326962  21.7999911  35.8380246  49.9488115
  22.6842093  35.7216144  49.6011925  21.6070294  36.7648077  49.8071432
  27.2523737  32.2243762  18.5868549  27.3427701  32.5859261  17.7051842
  28.0409718  31.6962767  18.7111795 114.7318268  19.3108928  41.9042778
 115.6860733  19.3191934  41.9789505 114.4651604  18.4972417  42.3321772
  27.1365833  35.4329205  37.0404458  26.7513323  35.4173493  37.9165578
  27.8479910  34.7937417  37.0802331   7.1953583  60.7594728  24.6525407
   6.5911800  60.6242943  25.3825569   8.0481434  60.8875179  25.0679851
   9.0151531  37.3865867  65.3981543   8.8288927  37.6495337  64.4968224
   9.7709179  37.9167914  65.6510067  14.2904043  57.3531866  52.3383284
  14.1227686  58.2931232  52.2701263  13.8994646  56.9821548  51.5472937
  29.0987873  47.9577208  45.7122469  29.6450782  47.8321505  44.9363422
  29.1966081  47.1448565  46.2081432  57.5446033  33.0256510  68.5858297
  57.4697351  33.6432910  69.3132544  57.1875000  33.4973764  67.8333807
  21.2737536  52.3590851  -0.2387907  20.8224440  52.8560543   0.4435402
  20.9555244  51.4626312  -0.1323509   5.7233596  54.6742916  37.8062201
   4.9021396  55.1638460  37.8527713   6.0732442  54.7082520  38.6965346
   5.3383172  36.1063814  25.8418703   6.0150748  35.4405785  25.9640813
   4.5717689  35.7546496  26.2945509  45.4688787  12.9040337  25.9474826
  44.6928930  13.4258354  26.1519408  45.8587742  13.3411384  25.1904130
 101.0591698  45.4984140  51.9739008 101.6808605  44.8087215  51.7413807
 100.5469894  45.1269770  52.6921892 108.0121422  18.8448322  23.8146377
 108.0305386  17.9730761  23.4197545 107.6485538  19.4092083  23.1323481
 109.5716858  22.5314784  47.4661064 109.7665215  23.3261776  46.9693899
 110.0601578  21.8420744  47.0162725  13.6952484  47.3466444  25.7680726
  13.4781837  48.1657600  26.2132239  14.1806149  47.6186609  24.9891901
   5.5261558  20.7805634  33.5835910   4.9617603  20.0175881  33.4588718
   6.0566312  20.8187318  32.7877450  20.6284976  30.7846522  20.4777861
  19.8149836  31.2474227  20.6784630  20.5276680  30.5067849  19.5673716
 106.2082100  21.1925960  34.1272831 105.6066704  20.9384298  33.4274364
 105.6872845  21.7584014  34.6971345 100.7624149  39.4633293  43.6391258
 101.6155052  39.8579216  43.4581137 100.9155464  38.5207939  43.5726929
  10.3987849  67.7877378  17.7771711   9.9561018  67.1524239  17.2144628
   9.7540134  68.4832621  17.9065681  36.7334819  16.0360038  52.4619007
  35.9812450  15.4453480  52.5005722  36.4315271  16.7740440  51.9324207
  30.7619286  29.1783571  42.3496819  31.4251351  29.2226124  41.6608906
  31.2167382  29.4714785  43.1392765  30.3144574  59.4676065  33.3848763
  30.4854608  60.1326084  34.0517783  30.4218388  58.6346722  33.8441372
  12.4438310  25.3265762  77.0538187  13.3845019  25.2395630  77.2080851
  12.0409608  25.0843787  77.8876448  98.9616299  16.0157049   7.3201525
  98.2822418  16.1025071   7.9888302  98.5374832  16.2977755   6.5097404
 102.6328564  56.7666626  54.0879488 101.9731140  56.7958975  54.7808552
 103.2900620  57.4090147  54.3557215  20.6525540  12.4247706  55.3927040
  20.7489491  13.0629110  56.0996103  20.5650210  12.9556811  54.6010590
   5.6458926  16.9094098  14.7680986   4.7606364  16.8442845  15.1263058
   6.0739940  16.0970604  15.0383735  25.7229066  42.0750189  69.8458385
  25.1701808  42.3218346  70.5873299  25.3987360  41.2140179  69.5816040
 102.6587772  29.3096900  32.5965309 103.3123016  29.0976763  31.9300485
 101.8931389  29.5962429  32.0986176  99.4028854  37.8098464  25.5806470
  99.1950703  37.3629999  26.4012432  98.7312698  38.4870958  25.4999733
 103.2506371  34.8660517  82.9081821 103.4800434  34.1353607  83.4823704
 103.5337734  35.6449986  83.3870411  43.1801748  15.1537883  37.9883409
  43.3566046  15.5431509  38.8447905  43.4904957  14.2516959  38.0668426
  39.4048190  44.4148970  20.9578657  39.2258573  43.5078096  20.7100797
  38.7367916  44.6208191  21.6117501  20.0779486  72.4067259  36.1567497
  19.9590445  72.6341105  35.2345824  19.6065784  71.5803576  36.2623763
   4.3895233  50.3041077  65.0258303   5.0432116  49.6068048  64.9739695
   4.5917389  50.7617664  65.8418512  22.9002500  20.4923534  17.8243816
  23.2844305  20.9410167  17.0711637  22.8529882  19.5742488  17.5577724
  57.3270082  14.5525599  38.0013037  57.3954058  13.7893820  38.5749888
  57.0128822  14.1991854  37.1690273 112.1065807  30.8352828  52.8071260
 111.3473320  30.4663801  53.2584476 112.2365952  30.2635384  52.0505333
  98.8492966  22.4540734  51.0530996  98.8309097  21.7111611  51.6563988
  98.4883690  22.1085787  50.2366447  26.8293619   4.8444763  32.8949833
  27.0526314   4.0296701  33.3449531  25.8726239   4.8710543  32.9083300
   2.8567180   6.2649888  46.9687653   2.3698322   6.4027780  47.7812815
   2.6591489   7.0362675  46.4374161  31.5419722  39.5626569  80.3100395
  31.9603276  39.6112180  81.1696053  30.8365154  40.2083731  80.3501987
  39.6526289  33.7142658  88.4659767  38.8474655  33.7374568  88.9830875
  40.3543615  33.6877704  89.1164398  14.7967815  42.4779177  84.7264290
  15.6956220  42.7745438  84.5838451  14.8591197  41.8704128  85.4635048
  16.5420091  59.2890549  29.2055798  16.2999988  59.8104954  28.4402275
  17.3083556  58.7900591  28.9228344  14.6669018  37.3392773  28.3880115
  14.4055867  36.5842581  28.9151645  15.3882551  37.7348709  28.8772821
 102.7592278  10.4285979  57.6488209 103.3726883  10.6332660  56.9431305
 102.2198391   9.7193712  57.2991133  49.6300173  -0.1663690  42.8483868
  48.8793039   0.3902501  43.0553579  50.3668118   0.2487547  43.2967567
   9.8421687  17.7507365  27.9631948  10.5556321  18.1101775  27.4359322
  10.2771533  17.1840703  28.6003041  98.6488247  10.8413661  29.2862391
  98.0043697  10.8879447  29.9924517  99.2741966  10.1771939  29.5760989
  32.3035288  21.0739875  69.4211864  31.8082356  21.6358113  70.0172329
  33.1172776  20.8868146  69.8891783  21.1697912  40.7655621  16.9310844
  20.5464721  40.0459528  17.0304358  21.3207030  41.0766649  17.8236496
 110.7222271  20.3436589  54.0645266 110.7788658  19.5766783  53.4946489
 111.3737106  20.9510922  53.7140512 110.8385944  48.6484718  57.6335669
 110.0732708  48.9654398  57.1539497 111.2522888  48.0233526  57.0383215
 107.3981285  30.1130629  82.1638680 107.7578259  30.3709531  83.0125999
 108.1011581  30.2954316  81.5403843  95.3330421 105.0770378  59.5384026
  95.7017708 104.2744255  59.9072933  95.3660870 104.9425507  58.5912752
   7.6003504  59.0170717  44.6907711   6.9979519  59.6577263  45.0688076
   7.3175198  58.9304590  43.7804222 111.8165016  12.4141145  26.2556338
 111.8108749  11.7829490  25.5360293 111.6429424  11.8885291  27.0365739
 109.6572208  33.4361267  25.5522180 110.1202774  34.2517400  25.7434821
 109.7857475  32.8987694  26.3338566  51.8907118  45.0028372  94.3033981
  51.7418051  44.0638971  94.4149971  52.0600176  45.1088905  93.3672810
  45.0854254  29.2669058  32.2116804  45.8784819  28.8210750  32.5092244
  44.8522902  28.8224602  31.3966060  38.2709885   2.9260415  18.1006646
  37.5620723   3.1140435  17.4855816  38.2537317   1.9744214  18.2024169
  65.3624105  20.5030966  51.4738274  66.2215185  20.4604268  51.8937683
  65.2102613  21.4377427  51.3341284   5.5591881  70.5215883  42.4333477
   5.5827767  70.9304380  41.5681791   4.6693262  70.6794930  42.7486944
   7.9716980  56.8631649  18.2826793   8.8056403  56.7139673  18.7282252
   7.3502684  57.0373297  18.9895916  17.1595299  54.7720337  43.8593721
  16.8256235  54.0013599  44.3185091  16.4546990  55.4159927  43.9283609
 106.9233418  53.4517288  34.9105620 106.2641430  53.3252335  35.5929732
 107.7457047  53.1810665  35.3188300  20.0971150  32.1179342  28.5497785
  20.2092052  31.8235254  27.6459026  19.3445182  31.6217566  28.8717055
  22.6313949  20.8700085  65.6147385  22.6506424  21.3065052  64.7630739
  22.0560026  20.1162052  65.4845810  61.0821915  98.5270119  34.0360808
  61.0359001  99.4830227  34.0477824  60.2661514  98.2426548  34.4477224
  67.4273777  83.8204288  79.4185495  67.4070454  82.8751087  79.5675230
  67.8770399  83.9210606  78.5795546  13.8586187  57.4888945  28.5994744
  14.6645260  57.8260946  28.2082701  13.3967078  58.2690573  28.9064193
   3.6542279  15.4972565  39.5334578   3.9805406  16.0539794  38.8264847
   4.4432682  15.1883686  39.9786949  77.4457932 106.1694622  38.3178782
  77.5091124 105.8956146  39.2328787  76.6279936 106.6647911  38.2721615
   9.6696323  22.3208475  51.6035080   9.6163917  22.9510331  52.3220253
   9.7337747  21.4693427  52.0360136  20.0412941  58.1566858  49.9456835
  20.2091956  57.9567862  49.0247726  19.5419610  58.9730930  49.9263763
 112.2315502  59.2030907  22.9823303 112.2226524  60.0792885  22.5970745
 112.0526886  59.3481302  23.9114189  45.5100012  49.1924143  31.4385867
  44.8894072  48.7400866  30.8671927  45.1787806  49.0364742  32.3230100
  91.7237473  83.6501122  38.3188367  90.8928108  83.1789303  38.2574534
  92.0691299  83.4153843  39.1801405  23.7134981  24.4249082  22.7322221
  23.8673019  24.7156334  21.8333030  24.4380188  24.8002696  23.2326269
  10.0415778  25.9829307  46.3271809   9.5071638  26.2206721  47.0848799
   9.4064534  25.7741570  45.6421518  40.8241653  40.2962399  25.5104518
  40.4472160  39.4187856  25.4455543  41.6516447  40.2373600  25.0329137
  35.6810641  65.2520800  89.4458199  35.8297586  65.1892853  88.5023308
  36.5505147  65.1490355  89.8326969  10.0347054  26.3247514  56.6029072
  10.4863012  25.8682251  57.3127460   9.1160065  26.3356805  56.8714285
  53.4549570  33.4152055  51.7981291  53.1083441  33.0380607  50.9895134
  52.7223396  33.9102411  52.1647930   8.0253959  24.6057653  19.1781354
   8.4817833  24.3342471  18.3817565   7.4150878  25.2826118  18.8854969
  27.6384044  18.9013243  13.1818402  28.4593129  19.2312300  12.8164601
  27.8111506  17.9774880  13.3632720  13.6264896  13.0889177  52.1885204
  13.7151754  13.9672935  51.8186235  13.0358946  12.6345360  51.5877151
   9.4090563  55.4280758  42.8394318   8.5572147  55.8335686  42.6776505
   9.8438525  55.4358864  41.9867134  74.5080805 100.1201534   0.6529298
  73.6750603 100.1887131   0.1864444  74.2767859  99.7438526   1.5021227
  24.8894167  42.3605347  43.0878925  24.2967129  42.5784492  42.3685551
  24.4158411  41.7032146  43.5976839  13.8577974  52.7853298  31.2212849
  13.5624301  53.4626722  30.6128454  13.2640266  52.0503426  31.0681129
   5.1337105  45.7567644  25.3730321   5.1539391  45.0347376  24.7449398
   4.2911127  46.1842012  25.2195430  14.5523858  24.3660665  47.1232843
  14.4671726  24.2730761  48.0721378  15.0487030  23.5943508  46.8506098
  14.1654754  50.7730627  58.8626528  13.8122237  49.8853827  58.9215755
  13.4256399  51.3064718  58.5722208   6.3798255  56.6406536  32.3493242
   6.9246787  55.8769941  32.5395632   5.5083573  56.3968086  32.6612759
  43.4602737  32.2839904  24.4667864  44.3974400  32.4463367  24.5744753
  43.3252764  32.2796917  23.5191631  51.1673069  37.7438140  56.5921211
  51.3624239  37.5066304  57.4987078  50.4364824  38.3585238  56.6573477
  48.2305288  48.8145304  34.7376966  47.4267101  49.2964649  34.5431709
  48.6017895  49.2643833  35.4966617  22.8076625  43.7735987  18.1681609
  22.4982381  43.0860233  18.7578416  23.5905695  43.4043217  17.7596009
  18.6410069  74.4949389  41.2145662  18.7441385  75.4366112  41.3518429
  17.8432536  74.4150782  40.6916475 114.8563385  57.9057789  10.1709235
 114.9474621  57.6498032   9.2530972 114.2880726  57.2358942  10.5511212
  22.6641107  77.4851274  44.7749281  23.1961679  78.2595873  44.9575520
  21.8531418  77.8335667  44.4045925  48.0398703  58.8591623  39.1429186
  47.4288702  58.9691162  39.8714924  47.8687286  59.6079445  38.5717201
  18.1485581  54.7465277  41.4869356  18.0733275  54.8769999  42.4322128
  17.4242651  55.2513456  41.1170816  19.4766176  78.2031441  22.3278975
  19.8882055  78.1289387  23.1888962  19.1781855  77.3159361  22.1278214
   7.6609790  43.7669277  60.4761839   7.2244841  43.8579035  61.3231945
   7.0136583  43.3357620  59.9182367  16.9994998  30.6923246  78.8768196
  16.9152033  31.6201329  78.6570597  17.7560282  30.3943300  78.3717489
  18.4639728  68.8796186  47.2598267  17.6121688  69.2970228  47.1316338
  18.7980664  69.2614460  48.0715084  35.9840178  44.1023827  53.3635521
  35.1489496  44.3638992  53.7515020  36.1725640  44.7842693  52.7187920
  43.0066919  73.5411692  58.6355019  42.1960735  73.9519644  58.9361238
  43.4241390  74.2068624  58.0888557  45.5293465  40.9724140  28.0618811
  44.6313858  41.0460567  27.7386451  45.6003761  40.0682020  28.3678055
  36.5830278  54.2678595  31.3402104  35.8037472  54.8060226  31.2011504
  37.3159504  54.8566866  31.1603737  56.0929060  10.1782334  63.6172533
  55.5293846  10.2080309  62.8440857  55.7720518  10.8869398  64.1749430
  21.8659616  65.4048920  47.3169947  21.9033694  65.7090282  46.4101696
  21.1490250  65.9044170  47.7077723   5.2840340  45.4625750  41.8289375
   5.4801500  46.1646795  42.4492741   4.3371543  45.5152941  41.6990471
  14.8334634  64.9974012  19.3580544  14.3283522  65.5866003  19.9183595
  15.1442218  65.5538511  18.6438918 110.4598522  68.0005169  16.1323619
 109.8470879  67.5001955  15.5934441 110.4564762  67.5520229  16.9779825
  17.4879289  74.9098921  50.1315403  17.9584289  74.6431637  50.9212971
  16.7043424  75.3525305  50.4575634  20.8572817  81.4863491  59.3474197
  20.3898191  81.8592739  60.0948429  20.1690531  81.2691307  58.7186193
  41.6927195  60.3122950  66.8560266  41.5176153  59.3731260  66.7965746
  42.5008631  60.4372263  66.3585043  27.5723076  58.0906868  53.6409616
  28.1977510  57.3991346  53.8573217  27.2270060  57.8416824  52.7836418
  31.1734772  56.3038492  42.2155094  31.2796521  56.6093302  43.1164217
  31.7358756  56.8810749  41.6990280  30.4458356  76.6319704  62.3479509
  29.7380233  77.1505547  62.7304506  31.2028861  77.2176743  62.3554087
  54.9970818  29.4249582  48.2325220  54.4238901  29.3147635  48.9911652
  54.7254610  28.7368107  47.6251411 108.7750626  35.6130648  40.8364058
 108.1719017  35.4798365  40.1051855 108.3747482  35.1404977  41.5662432
  48.0075502  98.2702732  88.3811665  48.4706211  98.3936501  89.2097569
  47.4142361  97.5372601  88.5452080  46.4775848  50.6331873  47.0721769
  45.9448719  49.9078655  46.7460585  47.3337793  50.5038643  46.6642094
   9.5458311  38.3177257  75.1481199   8.9867371  38.0530787  75.8786011
  10.4010248  37.9389429  75.3515816  26.0939026  17.6946938  45.4397583
  25.7224822  18.2738638  44.7742987  26.6403246  17.0827138  44.9466705
  23.7301826  32.5267148  25.4836345  23.9013386  31.6600919  25.1149845
  24.5776868  32.8141761  25.8232450   7.6580447  12.9185629  50.0749540
   7.9833251  13.3117163  49.2651033   8.1755930  12.1199977  50.1782465
 108.8250637  76.6640425  54.0478182 108.9520741  77.5666761  54.3399858
 108.0745506  76.3520145  54.5533705 103.1452656  71.2608337  37.2343993
 103.0733490  72.1626902  36.9218159 102.3073387  70.8597946  37.0035553
  78.7591887  74.8211575  85.7865429  79.2426109  74.5368147  86.5622234
  78.3164310  74.0308905  85.4772282  72.5085831 105.3176403  85.7245922
  72.6809645 104.5653152  86.2907410  72.9917288 105.1278782  84.9203587
  30.7948518  60.0797749  17.7264023  30.0781202  59.4507837  17.8094506
  31.2128925  59.8580503  16.8943489  52.0472860  28.2999635  54.9935627
  52.2703791  28.5989404  54.1120434  51.8703079  27.3648000  54.8916769
   8.4743756  37.5878739  72.5935078   8.8806903  37.8318715  73.4251356
   8.6561555  38.3264041  72.0123339  19.1302741  63.8335657  55.0877476
  18.5431588  64.2872953  54.4830513  18.8396156  64.1103125  55.9567451
  23.5840297  54.8014641  42.2395802  24.2885828  55.3404188  42.5992537
  23.0412173  54.5806026  42.9964209 115.1968384  19.3256485  53.9024496
 115.2225876  20.2692771  54.0609837 116.1032772  19.0914595  53.7030649
  16.9552696  27.2672796  71.7334366  16.2849069  26.7500544  71.2869787
  17.1335590  27.9943466  71.1369276 108.4815407  34.5279002  81.6528893
 108.5244942  35.1433158  80.9210110 109.1066456  33.8399625  81.4243603
  22.4640131  29.3038321  52.3833561  22.2442937  29.2788196  53.3146620
  23.2675743  29.8221970  52.3406887  18.1417441  20.2529812  41.0164642
  18.2084227  20.8490920  41.7624140  18.6205733  19.4710171  41.2912130
  51.6986418  43.5520458  35.2977943  51.6172981  43.9538622  34.4328332
  51.0128355  42.8845644  35.3172612 106.0087204   2.5333762  47.0412111
 105.6985474   2.0644261  46.2665415 106.0682869   3.4465519  46.7605066
   7.0471394   7.1586114  82.0928478   7.4790704   7.8969866  82.5223446
   7.5965524   6.4038098  82.3041534  37.1304989  63.8141489  11.6019344
  37.6565671  63.0323076  11.4339936  37.7449465  64.4376421  11.9891632
  41.8810081  32.0266128  37.9195523  42.0382023  31.9053578  36.9831657
  42.7003908  31.7600870  38.3364534  49.9570608  55.7608747  20.6931353
  49.5843077  54.9931335  21.1265612  49.4561529  55.8446407  19.8817766
  24.9207950  21.9736695  25.1521611  24.8254800  22.3260880  24.2673182
  24.1780114  21.3786244  25.2542758  63.2202101  73.5238504  87.9225159
  62.5865650  73.8175678  87.2679520  63.3831787  72.6064396  87.7033424
  33.5386276  63.4607983  23.3930922  33.5927510  63.5956144  22.4469805
  33.0463123  62.6457834  23.4911132  33.9449310  71.8121433  16.0955179
  34.6725321  71.9735622  15.4948771  34.1152072  72.3905754  16.8389273
  24.4566679  10.6728446  56.5247536  24.2105794  10.6522274  57.4495459
  25.2863741  10.1970351  56.4870262  27.7891564  57.5545502  58.1192017
  27.5256181  57.3275185  59.0109634  28.1097984  58.4539843  58.1858635
  15.9788775  76.1863327  30.8846259  15.1736617  76.3957500  31.3579154
  16.6440237  76.7471933  31.2836885  48.8170338  42.6544571  54.1183949
  47.9841280  42.6342154  54.5896578  49.4731760  42.8081274  54.7981644
   2.8397650  89.4744778  70.2896070   2.4878140  88.6184406  70.5336714
   3.6324096  89.5671082  70.8181572  31.0533762  42.4595118  32.4526525
  30.6824207  42.4577522  33.3350468  30.3897238  42.0299196  31.9129801
  15.2929032  39.3830752  36.4337468  14.3838704  39.0850139  36.4013410
  15.3200567  39.9889135  37.1743250  16.0358942  78.9694405  48.4474516
  16.6698229  78.7028265  47.7816582  15.2427244  78.4782791  48.2332659
  57.2902298   1.4401600  41.4884663  57.6233625   0.6101922  41.8296528
  57.6991749   2.1072045  42.0398664  20.1104307  28.8846874  22.3886538
  19.3752980  29.2761230  22.8604484  20.2948976  29.5003700  21.6793323
   8.0126083  60.2704716  29.8063612   8.1594175  59.6025944  29.1365695
   8.5412723  61.0157919  29.5213318  40.3378153  26.0486817  65.0945187
  41.0581303  25.6026435  65.5399752  40.1955843  25.5374050  64.2979050
 115.9767056  25.6274438  41.0354042 115.5655861  25.8752036  41.8635511
 115.3823090  25.9614563  40.3635693  12.9774678  43.5479593  47.8504896
  13.3963573  42.6952410  47.7337170  12.4898779  43.4650660  48.6700106
  41.1601925  37.6706314  62.5429630  40.6927776  38.3574820  62.0675802
  42.0774031  37.9431987  62.5171995  37.0051885  34.6582603  23.5499597
  36.9974041  35.5790854  23.8112092  37.9215479  34.4760895  23.3418036
  28.6429143  16.1555493  20.5654979  28.0130053  16.3866246  21.2481785
  28.9653349  15.2909160  20.8198333 111.4925575  54.9212217  36.4976621
 112.3078728  54.4704056  36.2779713 111.2419415  55.3700209  35.6901932
 114.6103573  17.5652146  58.2636213 114.4844246  17.9788899  57.4096632
 113.9525032  17.9731262  58.8267088   0.0603618  15.5379808  26.9082785
  -0.3681183  16.3926172  26.9555354   0.7823283  15.6657171  26.2929106
 111.2142372  57.9643679  61.2057924 110.3040409  57.8332424  61.4714670
 111.1682987  58.6181021  60.5081177  22.3935962  17.7737892  41.4804459
  23.2266378  17.4306035  41.1571884  21.8829203  17.9471242  40.6896257
  20.8109212  76.1561537  54.0284920  21.0408258  75.4204750  53.4609127
  20.3761172  75.7524157  54.7796059  60.7466030  40.0392962  43.4456062
  60.9094143  40.3885031  42.5693750  59.9157143  40.4340696  43.7101936
  29.3672347  15.4094636  35.1403713  29.5379448  15.0185919  35.9972906
  28.9996624  16.2706912  35.3388929   3.8210422  63.7127018  47.3218679
   4.7660929  63.5739374  47.3839521   3.6786708  63.9903736  46.4169598
  13.7409580  58.6231995  61.7974710  13.0723417  57.9397345  61.8427944
  13.2476342  59.4322824  61.6623783 114.2283440  57.6678991  49.1675901
 113.7810516  58.4602642  49.4647741 113.5257912  57.0311546  49.0364313
  16.3731229  66.3019276  41.7114973  15.5541706  65.8531427  41.5013981
  16.8240595  66.3833332  40.8711052  16.6323090  77.9218626  38.2756495
  16.6205502  77.9897594  37.3209333  15.7175744  77.7755260  38.5166454
  25.7666969  29.5830512  12.4149597  26.5322924  29.3539834  11.8880606
  26.0287499  30.3732800  12.8872907   3.5318333  70.0072384  33.4072137
   4.4403264  70.2194929  33.6212683   3.5851517  69.5392942  32.5738955
  25.1631546  37.7850294  33.8385320  25.1777220  37.9977131  32.9053736
  25.8433151  37.1197009  33.9431930  22.8658056  52.1414280  48.2993364
  23.7004614  52.5171137  48.5794115  22.3784804  52.8823805  47.9391527
  27.1118140  59.9093628  42.8755951  27.9087853  59.3942499  43.0010128
  27.3731351  60.6145716  42.2834587   6.2849033  34.6308804  53.7198019
   7.0559335  34.3147659  53.2488298   5.8894032  33.8412929  54.0890741
  10.2324963  42.1779394  33.1875253  10.5088282  41.7253923  32.3906088
  10.9352720  42.0087337  33.8149858  35.0287199  37.6792789  44.3149567
  35.5146742  37.4621034  45.1105165  35.6671429  38.1255460  43.7586355
   8.8951403  86.1750698  72.6719570   9.7587413  86.4294815  72.3468494
   8.6299646  86.8989944  73.2392645   8.9431173  56.8665934  23.1322360
   8.7646133  57.7247858  22.7476931   9.8359096  56.9366074  23.4702468
  92.8639698   6.3793802  91.4905739  92.5609875   5.4715538  91.5075207
  93.8137054   6.3168490  91.5921593  55.4965258  20.7045674  55.7106686
  55.1519775  21.4348078  56.2247419  56.2879992  20.4357243  56.1770630
  14.4618464  68.9802361  28.2298636  15.1294637  69.3681097  28.7956095
  13.6352932  69.1561222  28.6794233  20.1143694  57.8712463  44.0830183
  19.7440374  58.7402964  44.2374086  20.9928918  58.0421162  43.7435532
  43.9080906  43.4845352  63.3909607  43.9837122  44.4008636  63.6571503
  43.7866068  43.0061245  64.2110777  49.0670156  82.6710701  91.4571667
  48.7581301  83.4749413  91.8750286  49.2687225  82.0844460  92.1861553
   4.3938202  74.8657656  39.1772151   3.6338794  74.3070030  39.3400216
   4.0567330  75.5750608  38.6299419  26.7252040  28.5345840  42.1854496
  26.4378405  27.6216698  42.1699429  26.8199825  28.7400794  43.1155157
   5.4335064  64.2429447  65.5332899   4.5187959  64.0134239  65.6971741
   5.5424833  64.1330481  64.5886898   2.2525924  63.1029463  51.3250685
   3.0195245  63.2652473  50.7757902   2.1559139  63.9017630  51.8435049
  42.9273033  49.5845413  49.4564676  43.0067015  50.5361128  49.5230913
  43.7727499  49.2519617  49.7578621  41.5187979  62.6869488  58.5948420
  40.6469822  63.0359602  58.4094858  41.3736963  62.0283985  59.2741728
   3.1890750  31.1899376  23.1689286   2.9600936  30.6628346  23.9344120
   2.7612749  30.7467294  22.4362731  31.8402839  58.0816650  74.3324375
  31.1024332  57.5757027  73.9921284  31.9298315  57.7932596  75.2407551
   8.5995317  34.8801279  58.6962414   8.6124152  35.4958272  59.4290304
   7.6889831  34.5897126  58.6434031  16.9465411  61.4980364  42.3774147
  16.8811882  61.4461708  41.4238548  16.1771142  62.0016050  42.6431847
  10.0007594  36.7004323  30.5178571  10.3545117  36.9879675  31.3595295
  10.3876805  35.8361435  30.3781104  31.4116192  20.8611178  22.7715611
  31.7810559  20.2265024  23.3855724  31.2290835  20.3520012  21.9818068
  34.3911290  32.0572615  40.7417822  35.0711656  31.8777156  40.0925159
  33.5794783  32.0908141  40.2354956  59.9014997  25.8472896  51.2980986
  60.2116585  25.9610105  50.3997135  59.1332483  26.4149189  51.3599110
  24.9609256  44.4348240  36.0733223  24.0595150  44.7429991  35.9799552
  24.9386072  43.8566399  36.8358445  53.5930300  61.6722441  27.4942279
  54.5394135  61.5969896  27.6163697  53.4926844  62.0161867  26.6066098
   7.1615779  39.0510464  51.2835884   6.2277544  38.8902426  51.4190435
   7.5707334  38.1926060  51.3926840  43.8679886  13.7314129  23.3118653
  43.0334044  13.7499034  23.7802267  43.9738750  14.6214449  22.9759145
  14.3576944   9.4179040  66.5259790  14.6145666   9.2057151  65.6286383
  15.1826799   9.4482702  67.0104456   8.1814986  60.9057140  72.1745396
   8.5163170  61.6477823  71.6710854   7.4281311  60.5957174  71.6719723
  25.5430031  49.4227886  71.0215807  26.2218761  49.5168543  70.3533649
  25.5061436  50.2790833  71.4477682 115.3123569  55.8265352  18.1539178
 115.6685448  56.7077923  18.2668102 115.3784561  55.4284763  19.0219104
  29.6422172  43.4878159  48.9777946  29.7432041  43.0168009  49.8049450
  29.3976116  42.8119707  48.3456278  41.3200808  42.2326660  65.2785206
  41.6601324  41.4620590  65.7332277  41.7904139  42.9687166  65.6699896
  11.9207728  39.4716406  53.1887007  12.3210454  38.9902329  52.4646425
  12.4174035  39.1999078  53.9605522  22.5187731  32.9889750  39.4437194
  22.3273635  33.3648825  38.5844827  22.4856353  32.0426202  39.3039012
   7.3955923  44.4580555  55.5624866   6.9063467  43.8721609  54.9849081
   7.6026177  45.2157593  55.0154400  22.1743369  53.1508780  58.8291693
  22.8571153  52.8378201  59.4224977  21.4067817  53.2695246  59.3886471
  13.0350363  41.3259029  26.2895226  13.1302249  40.4940844  26.7534757
  13.7594831  41.3355112  25.6639695   6.6389781  69.1031313  61.2732649
   7.0824784  69.6785116  61.8965435   5.7451665  69.0309143  61.6081047
  13.0878270  96.9676495  47.4576187  13.8548720  96.5235710  47.0961332
  12.3421776  96.4747810  47.1150970  31.3518310  52.5838280  54.4358587
  31.0734129  51.7085409  54.1664410  30.5737877  53.1290913  54.3193817
  21.2561083  35.8467245  71.7507267  21.7416883  35.6675529  70.9455299
  20.4195523  36.2030578  71.4516687  19.5692062  43.6810970  76.5375328
  20.3169203  43.3027363  76.0749340  18.8218009  43.5109472  75.9642363
   3.7798339  49.1717958  20.9531474   3.1208467  48.4999561  21.1280823
   3.6955336  49.7856903  21.6827059 115.3958225  46.2345314  49.4880724
 115.6930065  46.1181402  48.5856485 114.7047901  45.5814934  49.5987797
  91.3449574  70.1228189  47.8904390  90.7589531  69.3738651  47.9995060
  92.1895695  69.8161125  48.2202864  23.0084181  38.9193344  27.5796628
  22.7160931  39.5636225  26.9349360  22.2446346  38.3605099  27.7231216
 109.7112274  65.9614992  22.6330185 109.6471500  65.0193882  22.7897000
 109.2546558  66.0978365  21.8028450  22.3005486  75.1169348  48.2670784
  22.8708506  74.9719048  47.5121260  21.8389368  74.2862606  48.3816242
  34.8486924  22.5875664  56.8852472  34.3062639  23.0091429  56.2187052
  34.3545604  22.6933002  57.6981974 112.0676804  31.7024803  48.6063766
 111.5904045  31.3090158  47.8758764 112.1172714  31.0071468  49.2623377
  17.3749065  43.4717417  49.8133230  16.6191542  43.0561256  50.2284527
  18.0699754  43.4142828  50.4689217 112.7026558  67.3611307  10.4958487
 113.1627178  66.5262794  10.4086733 113.0539322  67.7454424  11.2990582
   5.1686668  70.4092836  36.3757014   5.4322892  71.1884069  35.8861089
   4.3023664  70.6250858  36.7209315  20.0718307  59.4244099  62.7980709
  19.7706544  60.2866507  62.5115967  19.3884695  59.1178608  63.3941221
  34.1615057  33.5607195  32.6768756  34.0139818  32.8974819  32.0026469
  34.4760489  33.0667305  33.4340215  26.4612484  68.4902716  33.5398507
  26.0510349  68.8596487  32.7578568  26.6225481  69.2456436  34.1052127
  18.2505703  48.8344383  62.5784063  18.2242513  49.6162462  62.0267582
  19.0994787  48.4353304  62.3878717  10.8773661  40.4473543  11.5960658
  10.1378894  40.0999403  12.0947754  10.9649169  41.3519955  11.8963706
  35.3103971  67.6577473  15.8224797  35.6992865  66.7858696  15.7530177
  35.5648065  68.0987549  15.0119114  12.6063621  80.5358982  84.1651535
  13.3696425  80.4771042  84.7397709  12.9716599  80.7199860  83.2997704
  30.8878255  62.8848648  40.3158951  31.3687706  63.6777163  40.0785971
  30.2989125  63.1628990  41.0173988 105.9918499  68.1272173  32.7927709
 105.1522160  68.4230423  33.1445169 106.1419582  67.2798729  33.2119441
  57.7898884  40.1220322  41.2245178  56.8996525  40.3038740  40.9234476
  58.2981253  40.0176382  40.4201365  44.9321413  61.8569040  31.6053462
  44.5283604  61.7022371  30.7513738  45.8403063  61.5751553  31.4954329
 114.5707130  71.0985756  68.4899998 114.4878769  71.6338587  67.7007961
 115.2614403  71.5250206  68.9972258  12.6742232  54.9282217  46.1012793
  12.2874224  54.7789335  45.2385330  13.4749413  55.4213619  45.9226894
  29.1982055  28.3447933  63.3314943  29.4787216  28.9755774  63.9945555
  29.7791958  28.5047317  62.5877857  25.3774500  44.1236687  90.1716805
  26.1330271  43.5716534  90.3732204  24.7523785  43.9393759  90.8727932
  27.2033095   6.9942111  36.4716744  27.5280142   7.8046989  36.0793614
  27.9925346   6.4866054  36.6605973  33.9801669   9.7377032  35.7460880
  33.4292507   9.1092485  36.2127423  34.6197772  10.0254941  36.3974786
  97.1534538  79.0558100  35.9891272  96.9417000  79.9825716  36.1009455
  97.1180534  78.9144897  35.0430799   3.3365875  66.0105658  48.9270353
   3.6651057  66.3786697  48.1067896   4.0752572  66.0769463  49.5321703
  27.1926045  63.4040785  27.3680854  26.7266655  64.1731834  27.0400500
  26.9456577  63.3501530  28.2913089   1.0786764  57.5889015  53.2299232
   0.2057320  57.3123837  52.9511070   1.6533494  56.8705845  52.9653406
  29.0175748  62.7618599  32.3864222  29.5228291  63.3648968  31.8411779
  28.6092448  62.1606064  31.7635298  24.1176367  61.7918348  53.4977484
  23.4650707  62.2703266  52.9864454  24.0661049  60.8935213  53.1712341
  33.2733679  44.8342276  61.0629272  32.6100135  44.6669817  60.3934336
  33.9358521  44.1587639  60.9176970  37.3743510 106.0021019  93.8771534
  37.5143838 105.3844261  93.1594467  37.5654197 105.4977322  94.6679401
 102.0915508  48.4134674  78.7508154 102.9100513  48.3076572  78.2659578
 101.4095211  48.1668377  78.1261158  12.1235061  37.5579548  86.8645763
  12.8947663  37.7597737  87.3943520  11.4684212  37.2639179  87.4975395
  12.5088060  45.1449966  15.4335594  13.2976532  44.9477863  15.9385931
  12.8252900  45.2900696  14.5419192  37.2903180  38.4499860  87.7750015
  36.6131997  37.7734876  87.7652931  36.8393087  39.2444015  87.4891281
  10.5283892  67.9541159  37.3927903  11.1287177  67.6047373  38.0514050
  10.4877114  68.8920832  37.5793386 105.8394718  58.3233833  36.4397860
 106.1306381  58.5450172  35.5552888 104.8906994  58.2235384  36.3616443
  15.8717334  40.8868504  63.6519051  16.1676157  41.6546297  63.1628275
  16.2574005  40.1438999  63.1876659  22.7685547  60.2338934  49.4467926
  23.0148315  59.5841503  48.7884521  23.3154917  60.0263739  50.2044392
  30.2726698  48.2336044  62.5200653  30.8353615  48.9525080  62.8077984
  30.3935719  48.1998730  61.5711308  23.1542253  61.3318300  37.1153998
  22.6949501  60.5769634  37.4834704  23.7765956  60.9539127  36.4940572
  48.5944891  46.1103535  23.8723898  48.8100672  46.3082504  24.7837591
  47.7928495  46.6052389  23.7029934  13.9218378  34.9776292  47.4807310
  14.0738595  35.1487303  46.5512991  13.3438933  34.2146921  47.4924183
  25.0626087  77.7050304  29.2909408  25.2519035  77.3731232  30.1685715
  24.6134663  78.5368538  29.4411755  30.4649448  90.9706974  49.9839592
  30.3748846  91.7206573  50.5718994  29.6965098  91.0185814  49.4152308
  11.1252427  67.9281044   8.1069243  11.6897047  67.5837517   7.4148005
  11.3815534  67.4405670   8.8897663  18.5416722  32.5433874  63.7230396
  18.1495214  31.7607546  63.3358240  19.1751659  32.8417802  63.0704451
   5.6232727  63.6464834  30.1343083   5.0919920  62.8985453  29.8612571
   5.4097265  63.7669039  31.0595798   9.3039179  83.5902023  34.5209098
   8.7876898  84.3483543  34.7946882  10.0957251  83.9659309  34.1360664
   2.5802109  78.4522915  45.0094748   1.7867008  78.1306791  44.5815325
   2.2767237  78.7957668  45.8498049  58.6010790  10.0216150  14.9818599
  57.7830935  10.5059779  15.0937688  59.1732502  10.6243122  14.5068800
  15.8974779  55.6559420  54.5428705  16.6617274  56.2320805  54.5578051
  15.2917182  56.0773659  53.9332056 110.2014637  67.9325867  33.7753272
 109.8149872  67.0971012  33.5129809 111.1369801  67.8288889  33.6012816
  19.8801732  70.4038763  49.4810104  20.2086616  70.2644348  50.3692007
  19.0848017  70.9232903  49.5985937  27.4150372  42.2675228  90.5320644
  27.6394439  41.3652039  90.7594109  27.8914642  42.4352217  89.7189617
  35.8695984  96.4762592   4.3204173  36.5951490  96.0989189   4.8178297
  35.1304150  95.8940220   4.4960326  46.2264967  93.9550972  17.3557961
  46.9318247  94.4615459  16.9529843  46.6420984  93.5119152  18.0954564
  47.3361301  83.8162804  54.8355007  46.9625568  84.3027210  55.5703878
  46.5777397  83.5394192  54.3212795  87.1687889  13.2923174  31.1862993
  87.0625877  14.2361701  31.3050246  86.5143871  12.9028428  31.7662191
  55.6618786  87.8897381  16.6752183  56.4012241  88.1164265  16.1111164
  55.8300400  88.3608055  17.4913383  54.1044950  83.3834362  69.0784550
  53.6453772  83.9687538  69.6808147  53.6500263  83.4946442  68.2433987
  43.0116320  91.9478798  59.1302586  42.3299360  91.2874699  59.0062571
  43.3581877  92.1023083  58.2514620 109.1728497  90.0485992  62.1146250
 108.7980843  90.8056545  61.6644573 108.4139919  89.5387936  62.3982859
  35.9608722  92.4837685  33.6937833  36.7711020  92.1470261  33.3112073
  35.3474426  92.5222874  32.9599881  21.9694257  86.2327576  75.6663418
  22.6232052  86.8693542  75.9553909  21.1293101  86.6623116  75.8273458
  12.3126447  38.5868073  13.8485718  12.3884428  38.5774016  12.8944242
  11.4007807  38.3506298  14.0187395  19.6415448 107.8730774  67.9300642
  19.5745146 107.7966690  68.8818550  20.5339074 108.1836987  67.7769756
  19.8618937  86.9633198  36.8127275  20.3794694  86.4694977  37.4487185
  19.5033300  86.2969017  36.2266016  29.7222853  80.9758568  71.3885927
  29.9316788  81.0707378  70.4594088  28.9668536  80.3882504  71.4050865
  32.5011110  97.7915668  72.7065897  32.9720187  97.4712658  73.4759283
  31.6328955  98.0231571  73.0364418  34.3459320  99.5934010  60.7984734
  35.0259924  99.7900486  60.1542044  34.6913743  99.9349976  61.6232204
  43.5231161  83.2942390  38.7832093  43.3061504  82.4588394  38.3693576
  42.8440380  83.4163666  39.4466615  21.8624353  85.8451748  34.4276190
  22.5988340  86.4337635  34.5934844  21.2885785  85.9601879  35.1850438
  50.4601860 104.8337269  81.6873360  50.4611731 103.9429855  82.0377636
  49.9038553 105.3274918  82.2897625  49.7808313 104.0985870  52.3300791
  50.1973486 104.2788601  53.1728363  49.4001389 103.2263756  52.4327660
  47.2762489  92.9129219  36.8911242  46.8961668  93.3771133  37.6369810
  46.5501261  92.4042034  36.5303254  78.3332348  97.8395367  35.8494973
  78.6533499  97.3199940  36.5869498  78.5654211  97.3258209  35.0759172
  87.3772717  38.8928127   2.2849399  87.7971745  38.1013179   2.6217672
  88.1046581  39.4540215   2.0162635  63.6594057   6.7179543  61.5423536
  64.4432592   6.9183964  61.0308552  62.9345942   6.8482739  60.9308863
  24.6331811 103.3022213  72.0180893  24.8994994 103.1245708  72.9201698
  25.4403591 103.5690022  71.5781784  81.9870567  26.3606358  46.1536026
  81.8422222  26.7832375  45.3070450  82.7944279  26.7552257  46.4832640
  31.9172454  10.4125643  26.1502433  32.5690651   9.8351622  26.5476942
  31.0795712  10.0980115  26.4902306  47.2530794  99.6922016  30.8691764
  47.7321815  99.8321152  30.0524044  47.2009993  98.7403965  30.9562707
  45.6353998  98.1634045  28.7589812  45.9307528  97.4140739  28.2417822
  46.2708473  98.8528347  28.5662794  58.9402866 105.6378937  28.5173297
  59.1578436 105.6014252  29.4487643  59.2318392 104.7948933  28.1700850
  68.1870461  91.8957710  73.5218382  67.3511457  92.2468376  73.8288593
  68.1726313  90.9762383  73.7872982  51.3480234  93.9872742  31.6327953
  51.4566040  94.0963936  30.6880546  51.8304920  93.1865406  31.8384314
  57.1634483 106.9087219  78.9067078  56.6807175 106.6610622  78.1181240
  56.7317295 106.4277458  79.6127605  50.2118158  80.0618649  15.8562517
  49.8360920  80.8755970  15.5202270  49.4615269  79.4766617  15.9603179
  88.6586952  10.8427548  30.4950571  88.0191422  11.5471113  30.3897882
  88.4571075  10.4619706  31.3498068  96.9297218   9.5334423  35.7520604
  96.9515324  10.4385197  36.0628510  96.0332489   9.2436635  35.9211874
  61.0788679  93.7837029  54.6352673  60.7767200  93.1505489  53.9840746
  62.0261621  93.6523533  54.6755028  59.0106535 101.3954926  15.5232179
  58.1068373 101.3919735  15.8383846  59.4742441 100.8066273  16.1186635
  60.2453709 100.7805252  47.5977087  61.1834240 100.6372643  47.4721479
  59.8565722  99.9100399  47.5121546  44.1613913  96.9570446  60.7661486
  44.8336983  96.3452530  60.4662371  44.0640879  97.5785255  60.0446749
  52.0032358  91.9616699  11.1265516  51.3739395  92.5716019  11.5115082
  51.4627028  91.3089848  10.6815112  94.9481297  82.4230671  72.3227692
  94.0510941  82.2286701  72.0511723  95.0784302  83.3398533  72.0803595
  99.6771049   1.0314132  63.0325270  99.0742970   1.7041799  63.3491278
  99.5335674   0.2870195  63.6169147  38.8029432 105.4093838  31.0091496
  39.1750145 106.2356472  31.3174891  39.5626760 104.8495674  30.8490014
  67.1420431  75.7602596  74.4120359  66.4572096  75.2016449  74.7797060
  66.9146252  76.6425610  74.7054005  42.3189116 107.6373291  50.6846809
  42.0655298 108.5319424  50.4572821  42.2228384 107.5957012  51.6361332
  20.3421783  59.4327545   1.3518287  19.7827113  60.0043440   0.8259828
  20.7288790  58.8277960   0.7188042  96.8028641   1.3112377  55.5970955
  96.7366028   0.9337805  54.7199583  96.1874008   0.8017419  56.1242151
  65.8428431  89.7373390  68.3838701  65.3548765  89.2967701  69.0795898
  66.6454840  90.0397396  68.8087940  40.8893490  99.6520901  69.9588394
  40.4168701  98.8866997  70.2862167  41.7901516  99.3480396  69.8477459
  66.6206932   8.9908051  44.1220331  66.3030529   8.5494018  44.9097538
  66.9452763   8.2830584  43.5652876  25.0260019   9.2650288  49.9964476
  24.9149156   8.3255440  49.8506355  24.4860220   9.4537920  50.7639217
  41.0333872  89.5717335  31.5963817  41.2890530  88.6961842  31.3060689
  41.8619013  90.0149632  31.7789817 100.5855656  70.7719564  60.2382040
 100.4489136  69.8613453  60.4996300 100.0132942  71.2757492  60.8169317
  57.9212999  33.3224273  39.2655683  58.3005905  33.9102030  39.9189377
  58.4615326  33.4505129  38.4858394  90.8186913  34.7588539  77.0443726
  91.7631912  34.6501803  77.1554518  90.5654812  34.0560222  76.4459229
  36.3122535  86.8838215  37.8473425  36.0702610  86.1819553  38.4515405
  36.3142300  87.6743698  38.3870316  90.0954628  14.9723399  30.2426696
  90.8050537  14.5742333  30.7468700  89.3103695  14.5002389  30.5201197
  30.9348249  85.1315117  32.3733068  31.3551211  85.3597069  33.2024670
  31.6089177  85.2881145  31.7120147  40.3177834  86.4672756  56.3727379
  39.7099280  86.3306236  57.0994234  40.1732349  85.7176208  55.7953644
  62.7122259  83.7555599  61.2574720  62.9335260  82.9179764  61.6645479
  62.2486019  84.2390823  61.9412041  81.3290882  10.3086650  48.0804110
  80.5709934  10.2440643  48.6612320  81.2918282  11.2011051  47.7363253
 100.3961945  20.3983188  11.7916059 100.7881546  20.5341935  10.9289694
 101.0527992  19.8988712  12.2770464  61.5611362  69.9884224  33.8941860
  61.4241648  70.0653553  32.9499650  62.5124598  69.9626732  33.9968896
  29.3666482 102.6183701  16.1616147  28.5952735 102.1177769  15.8958709
  29.0900064 103.0835056  16.9511414  67.6500177  90.6785583  33.9237833
  67.2991276  91.1490440  34.6799207  66.8756056  90.3759289  33.4495139
  43.1776190  93.3468437  80.9471607  42.8482676  94.1889477  81.2611961
  42.4175882  92.9279518  80.5432892  46.1813736 101.7810535  38.5037303
  45.8410978 101.5389633  37.6424313  46.9875860 101.2730503  38.5941839
  45.6273079  91.4421368  60.3390741  46.1705065  91.1387634  59.6116590
  44.7598457  91.5672874  59.9542713  45.9626579  95.0870705  49.1540575
  46.0611200  95.7194614  48.4422827  45.2962399  95.4702473  49.7244024
 111.4117336  37.8794289   1.6287221 111.0518837  37.0253682   1.3893133
 112.1766281  37.6748061   2.1665891 115.1251221  36.5006089  89.8860168
 115.1460838  35.7439852  90.4719448 115.2706146  37.2524095  90.4603481
  72.0138359  87.6523113  22.2708893  72.2071123  88.4634972  22.7408409
  71.0616302  87.5679970  22.3201966  17.4637616  98.5131741  16.0399497
  16.7049277  98.9173603  16.4607036  17.5270450  97.6466370  16.4416254
  38.6024666  77.5047064  58.8742590  37.6998329  77.8092051  58.9678860
  38.8848376  77.3138094  59.7687197 110.3203964 107.8046989  32.8712249
 110.1731873 108.4360504  33.5754681 109.8518562 107.0187664  33.1523299
  14.6567619  97.0263481  41.6557169  14.5384550  97.5429726  40.8586407
  15.5947638  96.8373680  41.6816330 102.4815369  27.8458834  53.6941099
 103.3854961  27.5344849  53.6479902 101.9735146  27.0715356  53.9360332
  89.7791100   9.9663436  54.4847584  89.9689484   9.0335989  54.5856619
  89.3386078  10.0308156  53.6373901  19.6317947  88.5784626  44.7376823
  19.9957538  88.7966919  43.8796949  19.7600687  87.6333809  44.8189211
  51.2008286   6.6221464  25.0373244  50.5400038   6.7006570  25.7253480
  52.0317507   6.7855448  25.4835391  54.0864229  86.8942642  89.0166950
  54.4900990  87.6072979  89.5115376  54.6138382  86.1249447  89.2316723
  58.8709497  99.6325970  50.3145838  59.3127775 100.1428604  50.9932995
  59.5299578  99.0037060  50.0205994  40.7115459  97.8934765  59.9488974
  41.0834932  98.7736893  59.8932028  39.9590588  97.9879379  60.5329132
  46.0514069  84.3252659  60.9072638  45.6565523  83.5849380  61.3679504
  46.5528584  83.9253521  60.1967382  99.3172836  14.0177929  94.4248390
 100.0629616  13.5710359  94.0240955  98.5586071  13.7088478  93.9296627
  30.2133298  82.7769852  61.4907169  30.0606155  83.3931160  60.7742691
  29.4619083  82.8944778  62.0719194 108.7557507  85.9874344  43.0163956
 108.8178921  86.9419575  42.9810667 108.0661774  85.7689381  42.3895121
  64.6150351  95.4949760  72.1738338  64.2495489  95.6131935  71.2970924
  64.5345879  96.3556671  72.5849104  44.3651676 100.2140808  41.7012548
  44.7467709 101.0475159  41.9769287  43.4223413 100.3325844  41.8164730
  13.7012565   0.9128518  31.5911174  14.0627789   0.0989801  31.9420409
  13.6210155   0.7534172  30.6507063  82.8916836   8.3771336  32.1704364
  82.8511047   8.3314764  31.2151885  83.6269665   8.9627224  32.3512101
  81.7298222 105.4060555  34.4493103  81.6233921 106.2515354  34.0133405
  81.0409737 104.8558998  34.0764117  42.8471708  91.1853695  68.1559134
  43.5123444  90.6263065  67.7543926  42.4278927  91.6269970  67.4173975
  69.9164343 100.1417255  44.4943666  70.6862116 100.0197124  45.0500536
  70.2161217 100.7211494  43.7938786  45.8810663 105.8127117  49.8330021
  46.1101151 106.7021751  49.5635176  46.3406658 105.6881809  50.6633568
  24.8322558  90.3036880  76.2568140  25.3516912  89.5337868  76.0251713
  24.7998524  90.2917957  77.2133923  51.8324804 101.7830086  52.7627611
  52.3264599 101.2634563  52.1285057  51.2377644 102.3101616  52.2292280
  37.9837322  78.6253595  78.0557680  37.9055786  77.8064394  78.5451508
  37.0986009  78.9897346  78.0556870  43.6298943  51.1023569  87.4939728
  44.0424299  51.4886189  88.2665348  43.7815714  50.1617908  87.5864887
  31.0768104 102.6476765  33.9601469  31.9735765 102.8701401  34.2102504
  30.5297565 103.1018639  34.6009851  24.5705509  95.2983570  11.4968646
  24.3889451  95.8403778  10.7290995  24.2613196  95.8204079  12.2371769
  39.8672748 109.0456581  61.7762709  39.4357109 109.7927856  62.1907425
  39.2216158 108.7111664  61.1538029 106.7984772  54.9299383  84.8848057
 105.8509541  54.8678684  85.0055790 106.9421291  54.6637201  83.9766693
  66.0727644   5.6275672  50.2603102  65.3854513   6.2065518  49.9307489
  66.1075115   4.9117011  49.6258354  72.7248955  90.7460403  61.4624119
  72.8507853  90.6465054  60.5187607  72.8429794  91.6823578  61.6223574
  20.7678843 102.0409966  36.4609694  20.2539396 101.5130138  37.0719743
  21.1601329 101.4032555  35.8646011  63.7744761 102.2312927  42.9932594
  63.5779047 102.9771519  42.4264383  62.9402733 102.0241833  43.4144926
  60.8015680   1.9399571  34.2910147  61.3979816   1.6653341  33.5945177
  59.9947214   2.1791822  33.8349485  49.0966463   5.9113306   7.8210974
  49.3804216   6.5842658   7.2023410  49.8793745   5.7133299   8.3352590
  74.4487286 105.3424263  22.2463870  74.5516109 104.6325302  21.6125894
  74.2521143 106.1127758  21.7133522  36.8479276  88.3930397  52.5685740
  37.2131348  88.3522701  51.6847181  37.3865724  87.7879524  53.0784321
  85.5496407   4.8317388  39.3417835  85.2502728   3.9309239  39.2187405
  84.8252106   5.2653998  39.7927451  34.8170519  62.8959703  65.4692793
  34.8648739  61.9508743  65.6132936  34.5983028  62.9861450  64.5417833
  35.5313444  82.5490761  28.8966537  36.2947822  82.1085644  28.5233593
  35.8746719  83.0222607  29.6545792  29.0860295  91.7673492   6.6627699
  28.6316204  92.4109650   6.1191714  29.0954018  90.9702396   6.1329043
  45.9127998  93.9273167  30.0411725  46.6653824  94.4317913  30.3499866
  46.2545347  93.0427265  29.9110055 103.4318733  15.5662513  28.4276032
 103.9340973  14.9218082  28.9262962 102.5698853  15.5722690  28.8437438
 103.5737801  29.7396326  74.2538738 104.2171288  29.0319180  74.2923403
 102.7886868  29.3719411  74.6596479  48.3474493  85.7028866  63.9215231
  48.0918694  84.8249435  63.6384535  47.5767374  86.2438488  63.7495089
  67.2380400  80.3115845  28.9142728  67.1893263  80.3918457  29.8668551
  67.0026827  81.1802769  28.5883665  53.4978390 103.9901924  54.1572666
  53.7814569 104.8621273  53.8824415  53.1624222 104.1161346  55.0448847
  63.5617542 107.6573563   3.4413528  63.9826775 107.6908016   2.5823200
  63.7429142 106.7740726   3.7626198  91.1250496   7.6285058  30.1675487
  90.4370880   7.9334611  29.5759869  90.7811356   7.8010410  31.0440087
  73.1958866   3.3858630  47.4823141  73.8375950   4.0429008  47.2126055
  73.3125353   3.3118147  48.4294939  38.8835526  96.7788315  26.1159158
  39.3464327  97.0770073  26.8988991  39.3374252  97.2087479  25.3910708
  43.1777668 105.2535725  49.8087692  42.8850937 106.1599922  49.9035740
  44.1238546 105.3196716  49.6792316  40.2978230  73.6763668  67.0279503
  40.2871370  73.1160259  66.2519741  40.1286030  73.0794001  67.7568054
  57.0342827  93.6244011  62.2849655  57.7490568  93.8290787  62.8878212
  57.0098829  92.6678753  62.2583628  10.0112212  92.8692341  39.2887115
  10.7873023  92.3132229  39.3578148   9.3509817  92.3092651  38.8803720
  90.0023842 104.9892044  39.7301316  89.3357849 104.3171883  39.5877504
  89.7194958 105.7257843  39.1882324  94.7253513  88.9236069  39.7414088
  94.7482014  87.9688358  39.8057032  95.0445366  89.1119385  38.8588619
  28.3338428 102.5388336  54.9383450  28.1490993 103.2143879  55.5908203
  27.9117727 101.7516518  55.2824974  99.9436378 101.3706493  39.8642802
  99.0472126 101.7045498  39.8301387  99.9663544 100.8254433  40.6507063
  48.9956617  41.2565565  49.5977974  49.5301056  41.1220264  50.3804255
  49.1011477  42.1855116  49.3925095  58.7151384 108.1584930   7.1541119
  58.6195660 107.3439312   7.6476532  59.5760441 108.0889416   6.7415136
  30.9135342  93.6513615  27.1022582  29.9865580  93.6745548  26.8647599
  31.1898112  94.5675278  27.0787120  76.0275841  80.3697300  93.0380344
  75.7964706  81.1799335  93.4923363  76.8692923  80.5592918  92.6235104
 104.9357128   1.3590999  61.8371010 104.0215969   1.0801058  61.8898773
 105.2711296   1.2501957  62.7269745  99.6123314  12.4300551  66.9619989
  99.1430569  12.4198210  66.1277866 100.0737286  13.2686937  66.9669771
  20.4226327  36.1034703  81.6128731  21.0866809  36.1545467  82.3003769
  20.1164341  35.1970506  81.6424942  65.3995800 109.0890026  50.7129622
  65.0872803 108.4391594  51.3425636  64.6650076 109.2123604  50.1117802
  54.5499277  89.5379734  55.1490021  53.6045170  89.6574402  55.2393007
  54.9142551  90.4157257  55.2632570  64.6741581  86.0329723  63.6561108
  65.1569939  85.5185223  63.0092382  63.8636351  85.5431080  63.7951136
  48.4520340  59.4100237  77.4118614  48.2586288  58.9997768  78.2547903
  49.3037653  59.8279858  77.5387239  29.0225339   6.7737073  33.9393687
  29.7182465   6.3168663  34.4121408  28.3549595   6.1042094  33.7898803
  77.6061821  80.9403706  39.3438315  77.4401855  80.9685040  40.2861071
  78.4195948  80.4430389  39.2586756  90.1049614   8.9260489  72.2442007
  89.1582966   9.0256077  72.3449087  90.4378128   9.8228598  72.2099829
  80.9356213  68.2366562  44.6236134  80.9737015  68.8412189  43.8824749
  81.2741947  68.7420797  45.3626299  39.5210743  98.2641029  47.6329851
  38.6713552  98.4704494  48.0223846  39.3911481  97.4149895  47.2106695
  99.5535088  79.7571945  59.4356012  98.9441586  79.0644693  59.6906662
 100.4183674  79.3528795  59.5048380  93.7426662  93.6953831  29.0452290
  93.2871151  94.5295811  28.9320254  94.5770168  93.9312267  29.4507718
  53.5357332  92.0624065  62.8790903  53.7132931  91.9697285  63.8151026
  53.0489016  92.8834724  62.8078079  80.8714581  88.3633137  52.5549412
  81.0827732  87.6078701  52.0064116  79.9591541  88.5635853  52.3456192
   9.9986261  18.9143550  51.1640739   9.8116690  19.2800319  52.0286894
  10.0913441  17.9739594  51.3166904  94.6529007  47.6119995  51.0772181
  94.6509171  48.1153250  51.8913984  93.8681602  47.0665407  51.1309290
  62.6151133  76.8620300  71.6480494  62.7959967  75.9220791  71.6464806
  62.1016932  77.0084620  70.8535719  69.3186665   0.5023419  77.7043104
  68.3782434   0.6549561  77.6118803  69.7190189   1.0663946  77.0426512
  13.2045209  91.1998653  54.8598051  13.0181229  90.3601360  55.2797413
  13.5639143  91.7436600  55.5607796  44.2616653  79.3997049  85.6271267
  45.0865746  79.0964079  86.0062981  44.0084934  78.7058544  85.0182724
  50.0711727  90.7975197  21.2330961  49.7951221  91.2495136  22.0304227
  49.7730160  91.3638210  20.5213070  54.5632935  80.9012985  62.9956627
  55.4299736  80.9413052  62.5913095  54.2398643  81.8014336  62.9584694
  16.1910629 100.6261539  34.9215961  16.5035462  99.7406960  34.7357011
  15.4155099 100.7272243  34.3697524  98.7279034  20.9539676  32.1845055
  97.8242111  20.6434727  32.1283174  99.2195034  20.3651452  31.6119242
 109.8979282  17.3088026  37.7713871 109.7704411  16.8875992  38.6214256
 110.5892849  16.7968416  37.3516893  18.7531173  86.7730999  23.8049960
  19.1345572  87.2406578  24.5480490  18.4258211  85.9551144  24.1791725
  67.4935246  83.5245609  34.7521639  67.6424694  83.2756710  35.6643605
  66.8669796  82.8781891  34.4267821  42.6958513 108.5037041  59.6946716
  43.4916306 108.9260197  60.0181293  42.6399231 107.6866722  60.1902151
  32.2793365 102.3680210  70.6640291  31.7695904 103.1695271  70.7822371
  33.1772971 102.6724339  70.5327559  29.7187161  41.9704723   3.9263052
  29.6379924  41.1446047   3.4491694  29.4791389  41.7512703   4.8267415
   3.0433166  25.8495545  22.7563930   2.9142278  25.7801223  23.7023044
   3.6440307  25.1353550  22.5435758  75.9097242  15.7427478  28.2866526
  76.7282915  15.2580488  28.1806087  75.4946804  15.7033229  27.4250174
  35.5441880  83.9309120  11.9852364  35.9925318  83.0870247  12.0407462
  36.2229013  84.5447063  11.7044663  28.2924652  99.7376919  49.4125891
  28.7890196 100.1597500  48.7114906  27.7660251 100.4420376  49.7907400
  38.7527418  90.4415035  53.5043526  38.8861012  90.2950573  52.5678682
  38.8206744  89.5703220  53.8950682  70.0338840  16.5026712  56.5371656
  70.8050108  16.8401766  56.0814381  69.4063473  17.2250748  56.5134001
  82.4025536   3.6410078  41.4835930  82.7973461   2.9458421  40.9571791
  82.2925091   3.2514668  42.3509932  43.3877325  63.3564949  67.4562550
  43.6688280  63.5141754  68.3575630  42.4940157  63.0238008  67.5388241
  97.1282101  88.5025978  24.0377235  97.0140076  89.2310810  24.6480584
  96.6312313  87.7833748  24.4275498  69.4333887 107.8509903  33.7098861
  68.5093403 107.7202415  33.9226508  69.4578123 108.6934566  33.2561445
  56.8777943 102.6747608  48.0324554  56.2238073 103.0779171  48.6034250
  56.4952898 102.7261543  47.1565104  91.5425682 107.3188114  30.8189154
  90.9825993 107.5075531  30.0658894  91.4997005 106.3675976  30.9168315
  16.2618423  74.7058535  39.7941732  15.3490579  74.6723413  40.0804138
  16.2249768  75.0974751  38.9215326  63.7948704  37.4440694  35.7043529
  63.9743948  37.2251964  36.6187358  64.0243721  36.6516733  35.2188945
  94.4215107   4.5292389  26.5282440  94.5832539   5.4381937  26.2755108
  93.9734554   4.5912957  27.3718214  99.1354465  11.8099165  25.3277826
  99.8952389  12.3864126  25.2466011  99.5003891  10.9708178  25.6087780
   2.1037839  29.6425033  26.2707305   2.4275333  29.4072604  27.1402597
   2.2735471  30.5817127  26.1979556  78.6482048  74.6189022  66.3418961
  78.2848120  75.0478125  65.5671597  78.0571985  73.8846159  66.5085220
  73.1761694 101.4040947  58.3970165  72.6055431 102.0223236  57.9404831
  72.9305458 100.5478382  58.0466843  36.8685579  89.4596100  62.2161818
  36.1103463  89.8704815  61.8008137  37.3828864  89.1134644  61.4868784
 100.6707382  12.6743150  80.6222248 100.5017853  12.8388011  81.5499210
  99.9007988  12.1923423  80.3203297  79.5343733  12.7580893  18.9162350
  79.3222237  12.3286486  19.7449708  80.0022984  13.5531855  19.1713893
  49.9560165 108.3416367  73.2764769  50.8144045 107.9186726  73.2990694
  49.7059155 108.3267498  72.3526525  87.4283218   2.2395833  36.7414451
  87.4328995   1.6326481  37.4816084  86.6230583   2.0327629  36.2670922
  47.8138638  83.9743233  58.7854624  47.4482727  84.7629929  58.3847475
  47.4816704  83.2560444  58.2469797 104.4310951  15.9511077  75.9622049
 103.8840961  16.3775969  75.3025532 105.2067661  15.6635821  75.4806519
  88.1980324   3.6244622  56.7476463  88.6088848   3.1094718  56.0532236
  88.0890656   4.4959444  56.3670206  95.0359344   6.8597919  86.3807011
  95.7935143   7.2757918  85.9693146  94.8406982   6.1093032  85.8195591
  93.7559128  13.3064115  83.6664295  94.4319344  13.8990211  83.3377361
  94.1687584  12.4428821  83.6561489  64.6301508  10.0535083  61.3298035
  65.5348921  10.0670946  61.0175657  64.1278696   9.7045863  60.5934620
  93.2760906  11.2063324  93.6175632  94.0919209  11.0482132  94.0925884
  93.4350586  10.8502817  92.7433872  76.0442305  24.5214868  48.9584064
  75.2851343  24.7183514  48.4095430  76.1518145  25.2990317  49.5062065
  70.4981470  92.5459385   5.5357677  70.7790089  93.2378292   4.9369064
  69.8172426  92.9539680   6.0706663  94.9962044  15.7502496  57.8302526
  94.8699474  15.9765136  58.7517166  94.5613384  14.9034691  57.7297974
  70.3098583  98.9849854  66.1456299  69.6817207  99.7066784  66.1743164
  71.0347080  99.3192005  65.6173038  83.8339901  12.0171797  53.1907940
  83.8415051  11.5712738  52.3438358  83.1884193  12.7163398  53.0876589
  84.7331810  12.7955198  28.4509277  84.9342728  13.4663343  29.1034627
  84.8292065  13.2428420  27.6101470 102.3984528   0.8683655  70.1017189
 101.6556263   1.1612910  69.5738506 103.1686592   1.1252761  69.5947552
  86.8056107 107.4600792  73.0160522  85.8976650 107.3396111  73.2941771
  87.0111179 108.3641148  73.2542038  84.8570347   5.7656240  58.2784414
  83.9867687   6.0357547  58.5715342  85.0202179   6.2918866  57.4957228
  50.6236839 101.4867687  49.6163797  49.8588467 102.0453835  49.4777870
  51.2877417 101.8384552  49.0234423  91.0828590  10.3707719  27.4953008
  90.4180145   9.6861804  27.5697875  91.5700817  10.3219748  28.3177757
  52.7648020 102.1012688  47.9142618  53.5094738 102.0998001  48.5156631
  53.1398630 102.3492813  47.0692444  86.0658932  90.9902191  21.4741206
  85.2606201  90.5159664  21.6811085  86.6308022  90.3353691  21.0638928
  82.0541000   0.0062715  25.0013828  81.5731907   0.6179589  25.5588770
  82.9419518   0.0035085  25.3590655  29.7476244  81.4857101  76.4793491
  30.6340671  81.4246559  76.8353319  29.7663021  80.9376335  75.6948185
  48.6554623 103.2133389  49.2131901  47.8859568 102.6467323  49.2683744
  48.3922338 104.0188026  49.6583462  18.2436299 107.2269058  22.8178453
  18.0401814 108.1453514  22.9947734  17.6844788 106.9963551  22.0759392
   1.0007112  19.9620247  23.8086390   1.1981364  19.1065753  23.4272456
   0.1120619  19.8715591  24.1526580 111.3809204  26.7545509  29.8167944
 110.6889343  26.2123466  30.1954722 111.6609764  27.3217177  30.5352139
  78.7963152   4.1571334  53.5302544  78.6429834   3.2549110  53.2496881
  77.9349232   4.5719883  53.4840965  98.1627560   5.2201241  37.1766591
  97.6553917   5.4465592  37.9561114  97.5561237   4.7163904  36.6339993
  77.3215342 104.4342232  48.8911533  77.1221113 104.2161655  49.8015976
  78.1029987 103.9203644  48.6874390  47.0510578 108.5642529  63.3627748
  47.4088144 109.3839169  63.0216217  46.1926842 108.8044262  63.7116909
   8.0499905  23.9801478  55.9724140   7.2474927  23.9112234  55.4552317
   8.0636817  24.8887014  56.2733793  81.5593147   7.6258069  34.6261716
  81.8008041   8.0467725  33.8011217  82.2954559   7.0468885  34.8241234
  22.3705864  91.5720558  42.0444632  22.4130177  91.6098118  42.9999781
  23.1797004  91.9916344  41.7520189  36.4278960 107.1273041  35.9302044
  36.9912696 107.7295113  36.4161944  36.4902043 107.4216366  35.0215149
  65.2783346  20.6582308  64.8587036  64.4693422  21.0068727  65.2331591
  65.7058907  20.2093935  65.5880690 102.5892639  34.1749263  48.8240051
 102.1905422  33.3864498  48.4558296 101.9392681  34.8623466  48.6784744
  86.1333275   0.4331906  38.4950447  86.6189480   0.5452468  39.3122673
  85.4275703  -0.1740968  38.7171602  68.4459496   5.6400847  61.9690657
  68.2483387   6.3350081  62.5969696  69.3363333   5.3654116  62.1881533
  62.6940393  10.1443958  65.9572220  63.6094332  10.2915764  66.1951733
  62.7261209   9.4484788  65.3007889  48.4496403  85.3740215  68.0614662
  48.7372351  86.2146282  67.7052402  48.0275106  84.9332237  67.3240805
  85.9013367  10.2779591  27.6635814  86.8558216  10.2064812  27.6555157
  85.7303524  11.1670911  27.9741311  65.9807730  89.1324520  74.4057322
  65.2923918  89.7661114  74.2036676  65.9979200  89.0942192  75.3620148
  98.7344265   1.7227279  76.8993187  98.1491852   1.7074676  76.1420250
  98.1923676   2.0563102  77.6142454 100.9359455  22.1219301  40.6900978
 100.2950573  21.6049719  41.1782026 101.1106777  21.6057634  39.9031591
  46.0664272  99.8095226  21.4737844  45.5818415 100.3832531  20.8802867
  45.3945255  99.4242477  22.0362258   5.2562243   4.2983389  28.0641222
   4.3121964   4.4492048  28.0163479   5.4136705   3.5726482  27.4601221
  57.0054722 108.8300991  53.6075401  56.0669613 108.9947319  53.5163355
  57.0581722 108.0083656  54.0956068  33.4259200 109.3282509  29.4846988
  32.9904795 108.7159252  28.8916707  33.8586855 108.7696075  30.1303482
  76.3700247  72.2355890  45.0909519  76.3240862  72.7354097  45.9059954
  76.2931013  72.8947210  44.4011211  39.1091824  95.9778404  44.3393326
  39.2894959  95.7464409  45.2504683  39.7277927  95.4524612  43.8318586
  56.9908953  97.6356506  11.3205910  57.2730875  96.9713497  11.9493282
  56.4681339  97.1527958  10.6804264  30.0535393  87.2863674  26.3665295
  29.7180247  87.7319622  25.5886388  30.4563546  87.9821205  26.8860507
  87.8485394  87.4099731  88.0657196  87.9985142  86.7416286  88.7343407
  88.6465549  87.9385185  88.0721569  64.6071959 108.0096054  83.8005257
  64.9545479 108.6306095  83.1602669  63.7212324 107.8185463  83.4926319
  74.9594879  98.2016373  56.8521976  75.6479168  97.8973293  57.4435568
  74.9445868  97.5532436  56.1482096   4.3764129   2.5216198  37.5512457
   4.4220084   3.4320837  37.2593403   4.6146047   2.0100069  36.7781019
  79.1358137 104.3831062  26.5484810  79.0130806 103.8783741  27.3524761
  78.7474489 105.2367687  26.7399645  77.0184135  93.0977726  24.1590333
  76.2575626  92.5287342  24.0427041  76.9042206  93.7870979  23.5048056
 100.6774712  23.6979961  82.0499992  99.8986530  23.9362288  81.5470982
 101.0274029  22.9291916  81.5997601 101.9219208   8.7067252  39.1253829
 101.1227131   8.3869922  38.7067294 102.5814438   8.6830473  38.4320569
  33.5164785  94.5114040  43.7312508  32.6181126  94.3192863  43.4624386
  33.6729479  95.4040718  43.4232092  28.0526400  71.9684029  64.3456364
  28.0298829  71.2626791  64.9919081  28.6078739  72.6392555  64.7430134
  97.4978733   5.2097768  43.1131601  97.7309132   5.5050111  43.9933681
  97.9720020   4.3854976  43.0036449  84.4329166   0.1445911  53.6615038
  84.7789478   0.7848608  54.2832375  84.6936321   0.4789570  52.8033304
  87.6978874  89.6608257  26.2203670  88.1335735  88.8496113  26.4818025
  88.3066273  90.3532791  26.4776087  14.6427238  19.2565632  45.1901913
  13.7019479  19.2143166  45.0187635  14.7325599  18.9809966  46.1024570
  92.7844524  76.2399340  53.3394861  92.3138714  77.0330763  53.5958242
  93.3828926  76.0707664  54.0671396  45.4558134  80.0025654  71.7800045
  45.2930546  80.0991821  72.7183008  46.1118221  80.6705093  71.5806770
 108.4020138  60.0524282  32.8859377 108.5891819  60.5926943  32.1182704
 108.8851166  60.4721451  33.5977530   3.4978080   4.8514441  66.1997604
   2.7317789   4.7884983  66.7702627   3.2572004   5.5093068  65.5474138
  57.6435995 108.3338928  49.8224878  57.4140263 107.5824642  49.2757893
  57.1949482 108.1722355  50.6524372  98.2433319  26.2204313  22.5140572
  98.6316872  26.2816906  21.6413260  98.9834785  26.3187242  23.1130099
  71.5064383   5.1800531  31.0900259  71.2767935   4.4214156  30.5534029
  71.2743664   5.9350079  30.5492711  81.0044861  13.9566612  57.7445459
  80.1595783  14.3168330  58.0140638  80.7821751  13.2649672  57.1213531
   7.2656786  33.4888864  38.4949613   7.2422278  34.4339919  38.6448216
   8.0547518  33.3488894  37.9715157  41.3500929  93.7819195  52.9471970
  42.2054243  93.6574268  52.5359249  41.2747765  94.7293091  53.0612230
  10.8776450   0.5781800  46.0723019  10.3462100  -0.2049148  45.9288740
  11.6278315   0.2688510  46.5800095  27.3353839  96.6021824  36.3458586
  27.8815246  96.7895222  37.1093130  27.8682375  96.8725109  35.5980492
  90.5928135  10.7685566  66.2435341  90.5385017  10.9756851  65.3105927
  91.5124607  10.9112287  66.4674091  84.6505547  46.3364935  31.5589666
  85.5522823  46.0848904  31.3593888  84.6973419  47.2763491  31.7342305
  73.0072880  14.2509103  62.9388666  72.7481651  15.0482297  62.4769497
  72.1802282  13.8453639  63.1991339  38.3069849 102.3100853  51.3429546
  39.0636015 102.8961658  51.3265324  38.6625457 101.4532757  51.1069775
  92.5633335   4.3370545   7.6097775  92.1754074   5.1575482   7.9139781
  91.8157673   3.7554327   7.4715805  42.4884033 107.8794003  10.1561058
  41.6185045 107.4811268  10.1263034  43.0326223 107.2327423  10.6054211
  85.0723362  90.3977776  44.5324516  85.6207848  89.6947956  44.1842365
  85.5251408  91.2023449  44.2797375  67.5940657 105.8953667  39.3435931
  66.9491959 105.3102684  39.7411203  67.5451469 105.7046890  38.4068537
  90.5283165   9.6977109   2.2514364  91.2425137   9.8760664   2.8632671
  90.9527588   9.2763430   1.5040910  78.0001116 105.3313446  41.7310238
  77.9188442 106.2121296  42.0968628  78.9000225 105.2883816  41.4076805
  90.3126335 102.8171921  51.7401743  90.0668240 102.4613476  50.8862543
  89.9174309 102.2170448  52.3725176  55.3164625  16.7276287  39.8253441
  55.4225302  17.2070217  39.0036607  54.3993902  16.4533818  39.8259783
  91.2224197  10.8253515  63.3430576  90.3549480  11.1855674  63.1587505
  91.7818451  11.1834610  62.6538324 100.6457043   3.3410668  64.7336960
 100.0914669   3.3584169  63.9534712 100.0779057   3.6541322  65.4378414
  91.6708469  88.3958626  27.3352408  91.8874836  88.0355358  28.1951642
  91.6174793  89.3408394  27.4780464 106.0341740  13.1338763  40.4916573
 105.4386997  12.6952720  39.8839879 106.7794800  12.5381851  40.5685472
  74.0216923 103.3251381  46.3900375  74.7853565 103.9019203  46.4093447
  74.3804169 102.4591923  46.1959219  86.7790508  50.3510618  53.0256701
  86.9660282  49.6427679  52.4095631  87.2200966  51.1147976  52.6536274
  54.0000534 106.2412548  66.4623547  54.7241783 106.7798233  66.1432505
  54.3579817 105.3541279  66.4957905 101.0504246  96.9028378  30.3003287
 101.7784882  96.5179253  29.8124766 101.4469433  97.2200584  31.1117339
  85.5030346  84.4212437  92.4982071  85.0364304  85.2359867  92.3118973
  85.0603485  83.7636471  91.9616985  57.1740532   6.1398989  33.7231088
  57.9131222   6.0322595  34.3217945  57.5779104   6.3136834  32.8728557
  91.4485168   8.0671650  52.3860312  91.1814117   8.9731681  52.2309637
  90.6348896   7.5655234  52.3350525  76.7046547  52.4308872  48.7928104
  77.6603270  52.4516249  48.8427639  76.5175056  51.9697857  47.9751396
  47.6588869   4.1738871  24.4902253  48.6070681   4.1104221  24.3755174
  47.4258232   5.0149131  24.0970469  46.8909216  90.6586742  58.1874132
  46.3766766  90.2016926  57.5218630  47.6987314  90.9063911  57.7376270
  90.4684734   7.0808077  33.0815458  90.8858871   6.5229952  33.7379313
  90.0142670   7.7517146  33.5912657   9.0559649  13.7713635  53.7108183
   8.1715870  13.9413357  53.3864450   9.2773890  12.9081035  53.3615541
  41.2865019 100.5641365  21.2756133  40.5779886 100.2282143  21.8246126
  42.0854902 100.3446198  21.7548442  42.5884247 107.8106213  56.6458750
  42.0468664 108.2061672  57.3288774  42.7928638 108.5340500  56.0533524
  16.6195381  21.6927195  58.4592581  16.1073780  21.3051486  59.1689825
  16.9820225  20.9424782  57.9881144  65.0535440  12.3777556  70.4591608
  65.6109142  12.9000092  71.0360670  64.5762396  11.7953634  71.0501146
  73.7105179  28.4423923  59.2558098  72.7570343  28.3677506  59.2949295
  73.9259672  28.2803702  58.3373547  40.4341125 102.8981018  60.5750036
  41.1701679 103.4965515  60.7027245  40.3163433 102.8624439  59.6257496
  82.9013252  92.7383518  34.8351765  83.0982399  93.1770039  35.6628513
  83.7376308  92.3647976  34.5571876  42.0039320  91.2864494  39.0739059
  42.4989986  90.8246803  38.3972192  41.0884190  91.0847187  38.8805747
  12.6664019  50.5023813   9.2234492  13.2864714  50.8782959   8.5986024
  11.8284500  50.5056620   8.7607837  78.8460636   4.6206570  24.0752101
  78.5249567   4.4676289  24.9638629  78.8158560   5.5715841  23.9700580
  89.5836353   4.0032211  48.1780529  89.3997383   3.7592801  47.2709084
  90.4691696   4.3658152  48.1537580   8.7739950  20.6804943  43.9784193
   7.9015326  20.3538656  44.1983128   9.2722368  20.5990243  44.7916508
  81.4454746  40.9838438  34.4538331  81.8015480  41.8214464  34.7502518
  80.8081532  41.2196350  33.7796974   7.5174606  92.2022152  41.6682053
   7.9572046  92.1168613  42.5141191   7.7747607  91.4174843  41.1842489
  40.1960421  71.4804029  84.9231815  41.1398172  71.3772202  85.0451279
  39.8680186  70.5864906  84.8254299  46.9264936  96.4589977  53.9403200
  46.4390469  97.1731281  53.5296583  46.6801548  95.6816006  53.4391165
  10.3573322  10.3577352  30.2817273  10.2714682  10.9628749  31.0183859
  10.1239204   9.5034808  30.6450462  34.2520404  91.9880772  82.1525097
  34.4488740  92.5804329  82.8781891  34.8998594  92.2065258  81.4825535
 106.3499165  10.1169920  26.1822915 105.9735203  10.8148777  26.7184925
 106.0568237   9.3080831  26.6018081  64.8424149 107.1611500  17.2172141
  63.8996220 107.3250484  17.1945918  65.1293802 107.2882271  16.3129282
  93.9205360 105.0403690  17.0708430  93.9165497 104.6245098  17.9329813
  94.3182182 105.8980846  17.2204864  45.5069685 100.0501919  71.9293499
  45.7599211 100.2904320  71.0379839  45.5599594 100.8690071  72.4222708
  74.2042160  81.5824604  42.0595407  73.8994789  81.3520908  41.1818790
  74.1191196  82.5350094  42.1002722  54.0123940  88.8617325  59.7618103
  53.1569195  89.0883541  60.1265574  54.4290495  88.3306313  60.4404545
  45.4525948   2.2986241   8.3096141  45.1017618   2.4742682   7.4365181
  45.1306677   1.4234149   8.5254884 107.2948837   1.1688323  39.4793940
 106.9498253   0.5586318  40.1311779 107.6274681   0.6079698  38.7786412
  25.0073457  12.7249753  23.3938694  25.7722116  12.1994638  23.6284947
  25.1875877  13.5889769  23.7643361  88.5934830  93.9177799  52.2960854
  88.3393478  94.7628593  51.9253016  89.4661713  94.0683079  52.6593685
  81.0233307   6.4618850  66.9969225  81.7624092   6.7900187  67.5090981
  80.2757263   6.5181899  67.5920248 100.6480217   4.5810354  46.0039473
 101.5990448   4.5207426  46.0942268 100.5047226   5.3915834  45.5153704
 100.2141285   1.8692321  68.9005709  99.2659760   1.7990954  69.0115213
 100.3253555   2.4741113  68.1670952  31.7193651  91.6662216  54.3034506
  32.1637273  92.4707127  54.0359116  31.4441657  91.2599373  53.4816027
  41.6838741  79.0580130  60.5530262  41.7789125  79.4361019  59.6788168
  42.3776197  78.4006691  60.6064034  74.7089005   7.4381924  45.1309967
  74.2063904   7.8435874  44.4243336  74.5005322   7.9623955  45.9043169
 100.7505608  11.7369497  76.6907930 101.1836529  10.9422374  77.0023966
 100.5625057  12.2348845  77.4863625  91.0768986   3.4002936  62.1551371
  91.6210651   3.6731565  61.4164495  90.2645302   3.8955072  62.0499754
  20.1718879 101.1332417  42.1416378  20.3284550 101.8629265  41.5422392
  19.9406135 101.5503979  42.9715347  16.0514498  16.8893814  44.3093920
  16.1958230  17.6677334  44.8474932  15.7689786  16.2179327  44.9303579
  92.2394848   3.1868121  56.0388565  92.8682899   2.9471064  56.7195749
  91.7744064   3.9425236  56.3977909  68.6840868  12.3759365  53.3927822
  69.4010496  12.6642025  52.8278971  68.6181021  13.0567992  54.0623379
  13.6946225   0.2350697  38.8700390  14.0254283   0.9901721  39.3564749
  12.7450693   0.3552102  38.8579893  71.5914202 106.5524387  44.4437790
  72.3911762 106.7277813  44.9396372  71.0592794 106.0144234  45.0299549
  74.3855810   3.1607479  59.9011707  74.9825144   2.7165562  59.2990065
  74.9194336   3.8434938  60.3074837 115.1196766  21.8429351  10.6400681
 114.9744225  20.9556174  10.9684014 114.5764732  22.3974633  11.2001240
  22.4822092  91.0840511  50.4681540  22.7286935  90.9687424  51.3858604
  21.7573714  91.7087936  50.4915190  62.3885441 104.6380138  64.6400356
  62.6175117 105.3267670  64.0159941  61.4857912 104.4069767  64.4211912
 105.3833866  18.7634015  17.3989189 104.8212433  19.5372260  17.4366438
 105.6490135  18.6158466  18.3066094 111.7874050   1.9919930  75.5543327
 112.5442886   1.9968326  74.9683857 112.0703697   1.4724451  76.3068151
   0.4495329   3.7901646  14.9699759  -0.1606252   3.2532293  14.4643676
   0.9783857   3.1579241  15.4566157  73.2007504  17.5284457  41.6451120
  72.6923800  17.7188599  42.4334860  72.9861546  16.6194713  41.4354801
 100.6832027  21.4502668  33.9325285  99.8071003  21.2238097  33.6204362
 100.8047009  22.3612571  33.6650109  98.8615704  35.0258398  51.4551306
  98.5714245  34.6605039  52.2909355  99.2920208  34.2953277  51.0109472
 111.2418938  10.8231843  37.0575619 111.2734413  11.3240135  36.2424493
 111.9838715  11.1484253  37.5673819 107.3284435  78.3960581  28.1301904
 107.2281742  79.3137550  28.3831978 108.2479477  78.3166790  27.8763580
  94.0838623  64.4789648  57.3271751  94.1306591  64.4978666  56.3713026
  94.0413761  63.5482121  57.5465393   2.0815709   5.6581962  19.8667097
   2.2009383   6.5890932  20.0548983   1.1359085   5.5545920  19.7607827
  83.8788509 104.8481655  50.3283405  84.1474342 105.7585335  50.2045536
  84.2733955 104.5933342  51.1623812  26.2169909  84.1768742  57.0541191
  25.9849477  83.2815552  57.3006678  26.1255407  84.1943073  56.1014605
 105.9212875  15.1926672  45.4771662 106.0178280  16.0139918  45.9591818
 105.6781006  15.4619479  44.5914030  50.4685402 106.0788441  55.0180674
  51.2582779 106.2798786  55.5201912  50.5674219 106.5767956  54.2065907
  93.6506653  16.6742969  85.4106808  93.1617451  15.9611225  85.8212566
  93.4433270  17.4434388  85.9414101  23.3696508  86.0675430  52.3105717
  23.3142614  86.4632702  51.4407682  22.8655744  86.6550636  52.8735542
  41.9285583  95.1246929  91.6233540  42.3945332  94.8980713  92.4281788
  41.0047579  95.1269341  91.8739891  77.6920938  14.5617259  78.6327839
  78.4593201  15.1244307  78.7374783  77.0487356  14.9174404  79.2458010
  35.5766296  85.5192661  33.5264921  35.8591890  86.2547588  34.0700436
  34.8599434  85.1190281  34.0188384   6.2581027  24.8234010  34.2915201
   6.7441511  25.6199813  34.5047116   5.6119472  25.1033735  33.6431909
  80.2125549  70.8125782  75.8121967  80.5822659  71.2064934  75.0220251
  79.3120718  71.1357880  75.8421326 112.3880386  11.7432535  47.0221138
 112.2954559  12.5121653  47.5846386 113.1749439  11.9175923  46.5057564
  75.0914812  13.3568799  50.8681822  75.6808472  13.5083032  51.6070604
  74.2311907  13.2336438  51.2693644  41.8865776 107.0855999  23.9237046
  42.6454544 106.5049744  23.9802790  42.1756172 107.8985977  24.3380952
  87.2715569  43.8920546  56.7388248  87.2834396  42.9349279  56.7402792
  86.4120674  44.1203785  56.3847303  68.0058622  10.3678417  13.8998449
  68.3644581  11.1479032  14.3230999  68.7735558   9.8970306  13.5754764
 100.2178383   0.8616980  23.0819035 101.1748314   0.8814967  23.0786109
  99.9673176   1.5019852  23.7478638  89.9632549  11.1356378  45.3068924
  89.5759964  11.7375255  45.9424973  89.4385624  11.2533796  44.5150185
  82.8749466 103.6127853  48.0187178  82.9759026 102.6647091  48.1034279
  83.2240105 103.9649296  48.8374901 110.3236866  46.8541336  93.1554985
 110.9401321  46.1259556  93.2328129 110.7214642  47.4370480  92.5087929
   3.6745280  10.7800210   9.5249993   4.2780381  10.0936663   9.2405277
   3.2920668  11.1140513   8.7135941 112.2533321   7.9526156  61.1630106
 112.1665001   8.9001787  61.2670135 112.8270245   7.8465289  60.4041576
  79.6830034  88.7410259  15.2297080  79.6742487  89.6492672  15.5317855
  80.5240154  88.6453724  14.7827470  59.0014982 104.9160480  33.6542153
  58.9087248 103.9660740  33.5823345  59.3895864 105.1825428  32.8207874
  53.5323811 102.6249027  36.9121432  53.8188219 103.4790993  36.5888238
  52.8004837 102.8230667  37.4963450  37.9462767  89.5819664  32.2661686
  37.9544640  89.8738003  33.1777596  38.7556219  89.0804195  32.1679688
  32.1120238  53.9814281  32.7694607  31.9059992  54.9133587  32.8422117
  31.4886951  53.5518885  33.3552837  53.1775522  98.7536430  44.8253298
  53.0360413  98.9999580  43.9112520  52.4866629  99.2095947  45.3059673
  48.3411789 102.5706863  72.2666502  48.3864021 102.3737812  71.3310146
  48.2788229 103.5249615  72.3078489  36.3608241 108.5966396  50.9050894
  35.8615088 108.3110905  51.6701889  37.2591758 108.6831474  51.2240076
  89.5670605  72.3202753   7.1704561  89.8182583  71.5082407   6.7303097
  90.3145695  72.9039860   7.0410562  67.5766897  94.2005348  58.9886618
  66.9245958  93.5544205  59.2598391  67.5934744  94.1376114  58.0336761
  66.4887762  92.3202515  53.0917501  67.3321438  92.3652935  52.6412582
  66.5299129  91.5079689  53.5964632  18.0342567   2.1290566  48.7938499
  18.2725358   2.9306233  49.2596245  17.1486473   2.2942670  48.4703779
  88.5869884 106.1742401  47.3078823  88.7357807 105.5110073  46.6339302
  87.8912735 106.7264175  46.9510698  69.5847654  93.9297771  51.7789841
  70.1990747  94.6562386  51.6735649  69.9835873  93.2066917  51.2949085
  45.0451469   4.4249833  69.4458246  45.4703760   4.7134101  68.6382198
  44.4760561   5.1546568  69.6906519  13.1951106  30.6144190  60.3259563
  12.8675056  30.9551978  59.4936275  13.5065818  31.3881516  60.7955933
  30.8077455 100.6570053  60.3054428  31.5844703 101.0517216  59.9090385
  30.0739098 101.0286522  59.8159552 110.3147793  19.2693961  73.0888748
 110.2216244  20.1827145  73.3598042 110.7491875  19.3153369  72.2371674
  12.6975131  22.1925068  74.4649649  13.5058272  22.3758268  73.9861631
  12.2956729  23.0515885  74.5943213  74.5770359  87.1779442  70.4979277
  73.6598921  86.9066238  70.4596043  74.6723127  87.8024387  69.7787809
  82.9267025 106.6716480  19.0460110  82.7590847 105.9583473  18.4301066
  83.6494732 106.3552475  19.5879757  41.0435629  90.0450706  48.3805847
  40.7750416  89.3653011  47.7624893  41.8855095  89.7412968  48.7198162
  -0.0511819  35.1311445  33.1698918  -0.0146719  34.6128249  32.3659968
   0.8194862  35.5221629  33.2425094  47.2312450  52.6042032   6.4657646
  48.1750822  52.4797344   6.3662255  47.0634842  52.4329138   7.3924512
  96.6453266  10.2646661  66.7850304  96.9402218   9.3879962  67.0314455
  97.0609856  10.8451962  67.4225569  63.1482697  23.2128501  58.0314589
  63.4536982  23.5246348  58.8833570  62.3489380  22.7242160  58.2277584
  93.4908485  33.8849497  46.9232082  94.1914463  34.5002055  46.7067385
  92.7959156  34.4323015  47.2888660  95.0737476  70.3903723  31.5534902
  95.6172085  69.8069143  31.0239029  95.6968212  70.9864283  31.9690967
  70.3630590  15.3072023  25.2261090  70.3201246  15.1950252  24.2764759
  69.4528866  15.2455211  25.5159664  91.6998482 103.7600327  12.2552395
  92.5678635 103.8490009  12.6487529  91.1086273 103.6545563  13.0006063
   5.9583062  62.2150230  26.8362594   5.8465976  61.9076872  27.7358675
   6.4205086  63.0486727  26.9236112   3.3811435  22.9574561  33.9796615
   2.7752334  23.4734321  33.4478021   4.0119240  22.6061034  33.3512521
  22.6108408   7.6204848  53.3516359  22.7208686   6.9108009  52.7188063
  21.8056870   7.4007618  53.8203335   3.0829296   8.2477754  24.0654969
   2.3714899   7.6313061  23.8921428   3.7797177   7.9845983  23.4642839
  88.9638519  93.3011818  29.2470694  88.4046936  93.4073067  30.0166941
  89.8552799  93.3871746  29.5849752   6.2740403   9.9285972  47.3269081
   6.5547180   9.2574060  46.7048550   6.5188849   9.5786399  48.1835365
   9.1631234   4.6244276  35.6264520   9.5703995   4.2501444  36.4076495
   9.0728104   3.8847420  35.0256681  11.5115941  47.5528526  70.4170847
  12.4612916  47.4579811  70.4899311  11.3343680  48.4385490  70.7338858
 100.9857559  16.2227380  23.2733631 101.1766720  16.7389572  24.0564966
 101.7636871  15.6789768  23.1493974   6.2990886  21.1988735  49.8096704
   5.4086381  21.2332964  50.1591635   6.2591618  20.5395460  49.1169024
  72.7927494  93.0382633  44.9901152  73.6796522  92.9533672  44.6402216
  72.9083967  93.0309010  45.9402752  90.8844757  80.4642010  54.1807747
  90.3020000  80.7457161  53.4752989  91.0329628  79.5337915  54.0118790
 107.7909565  26.7706394  28.3733439 108.5442448  27.3350549  28.1994820
 108.1736183  25.9201527  28.5889339   8.9603227  18.3851790  87.5246906
   9.6231693  19.0751135  87.5539875   8.9691705  18.0829406  86.6165066
  64.2612553 104.1361046  55.4014492  64.6023226 104.2820072  54.5190573
  64.6917725 104.8018837  55.9377575  90.7694340  93.2279968  44.6812534
  90.5227375  93.0635357  43.7711287  91.7228508  93.1434250  44.6900129
 113.6337376  30.5628681  37.3381519 113.9097214  29.8363853  36.7793202
 114.4282246  30.8206224  37.8056812   5.2914381  12.5129616  32.2032166
   5.7695252  11.7083347  32.4038148   4.6729940  12.2595918  31.5179706
  60.6610250  96.9363499  65.1725674  60.2802753  97.0941830  66.0364866
  61.2401104  97.6842403  65.0257778 108.3802986  24.9146438  55.5097914
 107.8952312  24.3369317  56.0990238 109.1196632  24.3854737  55.2105427
  10.4254317   1.3948466  64.1379929   9.8132998   0.7979643  64.5684099
   9.9487001   2.2224948  64.0750885  96.0805035 100.5492783  69.6382999
  96.4619160  99.9953365  70.3194046  95.8799839  99.9456120  68.9230299
  97.6604080  90.6750584  78.1549501  98.5606670  90.9969521  78.1086254
  97.6973629  89.8029327  77.7622032 104.7623730  34.3916345  37.3654890
 104.3886185  33.5520101  37.0979619 105.6931496  34.3174887  37.1547937
  78.9602375   6.5138322  55.2670336  79.5423365   7.2302192  55.0136948
  79.2051315   5.7906646  54.6897221  87.8348732   3.2753628  61.2249899
  87.1938515   3.8896674  60.8672953  88.1291294   2.7685404  60.4681730
  16.5462637  21.0298586  74.7298574  17.3481297  20.9946942  74.2083168
  16.5936470  21.8702507  75.1856327  86.7307186  98.9050674  67.0420551
  86.4737988  98.0714226  67.4360943  87.3962402  98.6694336  66.3956785
  21.0807014  69.6826029  79.6590948  20.7030320  69.8769712  78.8012981
  20.9656858  70.4901409  80.1599789  99.6257877  98.5171890  55.1303720
 100.3692532  98.4847641  54.5283413 100.0027466  98.3182049  55.9874201
 114.4911957   8.1509036  19.0547013 113.8235474   7.5247872  18.7746048
 114.8737335   8.4740907  18.2389510  17.4100423 107.1059895  33.4916592
  18.0065227 107.4129105  32.8088403  16.5454817 107.1264172  33.0813575
  98.0652618  25.5165482  50.7962465  98.0271339  24.5796251  50.9884882
  97.2507858  25.8681464  51.1557484   6.9497108 100.8434963  39.1002560
   6.0425031 100.6137562  39.3013167   7.2223210 100.1959801  38.4501553
  48.8756561 100.9655476  55.9383917  49.2175293 100.2567768  55.3934145
  49.6520329 101.4563656  56.2077665  81.7839336   0.8162248  54.6272993
  81.5605640   1.4511809  53.9467335  82.6673508   0.5245411  54.4020796
 106.7711926   9.6992630  60.5918884 105.8686733   9.7763860  60.2824688
 107.0116997   8.7917882  60.4051256  27.7789855 106.0449219  45.0702810
  27.0549035 106.6349602  44.8610210  28.5104799 106.6270065  45.2760124
  16.4582801  13.2490480  26.2855840  17.0294952  13.7032592  26.9049668
  16.2219489  13.9178920  25.6429124  34.6152377   5.5594367  28.9330101
  35.2994013   5.3696138  29.5749760  35.0903440   5.8612967  28.1588101
   2.3377070   1.4151491  42.1135616   1.6454650   2.0653316  41.9939995
   2.7428094   1.3350461  41.2500191  92.5790787   4.7954279  66.1993933
  92.1286201   5.5000627  66.6650152  92.4214172   4.9809876  65.2736807
  12.2524834  23.7902951   5.0163341  12.2224319  24.3305087   4.2267147
  12.8093576  23.0490208   4.7783458 105.3203487  14.2626798  30.0155926
 106.2707424  14.3726575  29.9858499 105.0919437  14.4004703  30.9348726
  52.2918797  85.9712601  47.1927691  52.2730064  86.6917229  47.8226995
  53.1827307  85.9823895  46.8427801  33.5459208  18.2632065  34.3858576
  33.5321403  19.2086077  34.2366672  33.4519887  18.1689227  35.3337622
  22.0139146   8.1758237  61.4574432  22.2184992   7.4269515  60.8974695
  21.3567924   7.8446835  62.0696259  99.3388367  31.1563301  25.2521873
  99.2966747  31.8901443  25.8653522  99.2554283  31.5607071  24.3886161
  96.5496540  96.1726761  50.4296827  97.3120022  96.6070938  50.8122253
  95.8973122  96.8675613  50.3412819  78.9259958  24.3338919  49.3680429
  78.8692379  24.4087553  50.3206205  78.2265139  24.8997068  49.0412235
  78.7679100 108.7035751  36.7156482  79.2949057 108.5093307  37.4907470
  77.8723383 108.4860897  36.9742703 108.5694885  12.5614572  54.6673250
 109.3462086  12.1344173  54.3059683 108.7199306  13.4954286  54.5213890
  73.9240170 108.3139706  23.3123493  73.4690523 109.1379929  23.4862161
  74.6463156 108.5567760  22.7330685  15.9841263  15.1232612  65.5868292
  16.8088746  14.6709454  65.7641220  15.3236878  14.4305027  65.5986166
 102.0924282  23.1673503  18.5252059 101.5417385  22.6944160  17.9012692
 102.6008320  23.7724900  17.9852378   8.7455207  33.0678511   8.1565326
   8.4946501  32.1479082   8.2402146   9.0201622  33.1591725   7.2441381
 104.7794533   5.6228274   7.1866757 105.5034065   6.2490189   7.1902227
 105.1068783   4.8810542   6.6779512 102.0745277   0.6407730  74.2825651
 102.8921890   0.1455306  74.3314552 101.8908596   0.8898796  75.1883507
  85.6638336  94.2070961  46.7295074  84.8142910  94.0556908  47.1437407
  86.3010025  94.0565777  47.4277878  90.3367233 103.0673790  14.5282125
  90.6468487 102.4765015  15.2144384  89.7134590 103.6429977  14.9714363
  57.2530508 106.4440536  69.8556423  57.0238256 107.2396755  70.3359270
  57.1578169 106.6847515  68.9341068   0.8718737 106.3541222  47.4177694
   1.5407114 105.6907558  47.2479630   0.6429089 106.2329865  48.3392525
  87.7956772  96.5924931  14.8283839  87.4619198  97.4099731  15.1979148
  87.3391724  95.9058762  15.3145885   7.1645904  10.1565266  36.5330291
   6.3220859  10.0540113  36.0904145   7.1338445  11.0377860  36.9054103
   3.8296089  18.3791697  30.7042575   4.2542228  18.9949322  30.1069522
   3.3078977  17.8139615  30.1345301   8.0210662  38.8097692  41.4591789
   8.2027316  37.8703880  41.4872694   7.1920735  38.8793468  40.9857178
 106.1914635  11.5139806   9.7532678 106.1710739  10.5570436   9.7626323
 106.6921520  11.7352045   8.9680314  29.4840550   1.4542796  51.8950319
  28.8774657   1.6384381  51.1778355  30.2777743   1.1393617  51.4625168
 112.0203686  93.5123158  56.4043331 111.2555885  94.0170479  56.1275911
 112.5719738  94.1456509  56.8635273  23.4717298  48.8859987  26.2460089
  22.6728582  48.6622524  26.7234731  23.4658194  49.8422623  26.2040710
  71.4021063 105.6901646  34.7966599  70.7699537 106.4087772  34.8111415
  71.3160658 105.2781200  35.6563401 102.0243645  24.0119410   9.0089542
 102.0590782  23.3353019   8.3327979 101.1011028  24.0545535   9.2579651
  71.5796423 100.6960106  17.0883214  71.9947720 101.1978531  16.3868546
  72.0541668  99.8648167  17.1013296   4.0791264  18.4809017  33.5026312
   4.0959278  18.3750749  32.5514460   3.1790170  18.2705092  33.7511659
  23.3156800  25.4190350  59.1674328  24.0970898  25.0271964  58.7774420
  23.6227250  26.2455153  59.5401049  22.3003411  18.1311369  59.9525452
  23.1949496  18.4695446  59.9152946  21.8171978  18.6611116  59.3185616
 114.0259266  21.2899637  18.1188440 113.0872059  21.1033630  18.1337500
 114.1181660  22.0952225  18.6280417  88.9515495   6.8002957  20.0780296
  89.0806198   5.8541638  20.0116444  89.2488098   7.1423191  19.2348850
   3.8321808  15.5509937  21.6094065   4.5575750  14.9663699  21.3897467
   3.2817161  15.5543578  20.8263302  30.4226780  10.7179832  40.9662437
  31.1013412  10.1029813  41.2444925  30.7856750  11.5811503  41.1647511
 105.6499004   7.8431845  27.6065040 105.5137062   7.1536720  26.9566917
 104.7666931   8.1172824  27.8535771  -0.1393737  22.9308748  25.5500245
   0.8093684  23.0392504  25.4838777  -0.2538543  22.1128631  26.0337400
  47.1225786  45.1354408  36.3928270  47.7231407  44.7730350  35.7415056
  46.8450403  44.3791294  36.9097352  99.5315361 106.8570232  12.4777758
 100.1771545 107.5512791  12.6097560  98.6939812 107.3167515  12.4195731
  98.9264870  10.0361478  75.2110577  99.5514584  10.6247473  75.6343746
  98.0988407  10.5168593  75.2229738  89.6602917 100.8240128  61.0494041
  89.4847488 101.5824223  60.4924202  90.4028702 101.0913658  61.5910006
  89.8058891 101.8751907  18.4471965  89.5134068 101.0401535  18.8124573
  89.0590858 102.4624348  18.5640681  18.6919558  71.1092567  82.9503536
  19.0021861  71.8188810  82.3878479  17.8424823  71.4119530  83.2712936
  88.3917713 102.5165272  32.7581596  88.3185482 102.8184414  31.8527770
  87.8737736 101.7120457  32.7850056  84.6520042 102.8124332   3.8060057
  85.5732536 102.9416561   3.5805500  84.6655941 102.1550083   4.5015928
  22.2350740   1.5384115   2.5230768  22.3146558   2.4639913   2.2924238
  22.1103454   1.0926534   1.6852379 109.4474220  27.6471782  34.6576691
 108.8467789  27.1991467  34.0620804 109.5024014  27.0713568  35.4203224
  96.1782837  95.4588032  72.1025658  97.1252823  95.5568123  72.0034790
  95.9502602  94.7341442  71.5202379 106.6753674  14.2380130  57.1676826
 106.4895058  13.5293448  57.7836990 107.5038910  13.9884579  56.7584038
  11.2082493   3.5352191  16.7795718  11.9242215   3.5558683  17.4145436
  10.6258392   2.8453970  17.0976532  60.3716326  45.8184338  27.4800563
  60.3324747  45.7152224  28.4308720  59.9321556  45.0406170  27.1364093
  27.0400357  17.7903104  50.1810408  26.5577149  17.1699059  50.7275724
  27.5464797  18.3134675  50.8023739  24.2666888   2.5015816  21.0379934
  24.0356016   2.2039752  20.1580715  24.3426323   3.4523237  20.9570360
  22.3384094  29.8503089   6.3041097  22.6379108  30.6754255   5.9223837
  21.3919425  29.8498750   6.1611706  19.7405028  21.1057258  56.3010597
  19.9954093  21.1541343  55.3797007  18.9272571  20.6008935  56.2983704
 104.2871571   9.4383991  34.2292047 105.0683117   9.6656936  34.7335577
 104.6218777   8.9539492  33.4745502   0.4560665  22.5162363  34.7098613
  -0.3662889  22.4175382  34.2300487   1.0136718  21.8132091  34.3766069
  23.0423832  66.9356203  31.5751410  22.5616693  67.0202541  32.3985386
  23.2156682  65.9977150  31.4942789  43.1843758  15.2026999  30.5791402
  43.8362646  14.5034623  30.6274867  42.6064873  15.0434148  31.3254046
  10.1750863   4.9814156  67.4128342   9.3567151   4.4849315  67.4147081
  10.8585608   4.3169174  67.4996471  15.2148211  65.3814888  48.1488895
  15.5923378  64.7280359  47.5600672  15.9704816  65.7791948  48.5813665
  60.0789547  78.7254477  54.9126673  60.7895327  78.1613016  54.6076250
  60.4064322  79.6152639  54.7814608 113.1925297  39.9170470  48.9269400
 113.8129997  40.6364155  49.0442038 113.1010056  39.5350075  49.7998095
   0.8220490  37.1779037  54.3140650   1.4002405  36.6236663  54.8382282
   0.0403921  37.2881222  54.8554468  96.4319420  80.7342625   9.4014949
  96.8579769  80.6323242   8.5504150  95.5241489  80.9523010   9.1903299
  75.8827448  76.6707516  88.1786633  75.5399275  77.5153446  88.4708500
  76.5640879  76.8951178  87.5448895  93.1075096  11.2794912  61.2606239
  93.6075974  10.8455205  61.9518661  93.6114883  11.1180735  60.4630136
  46.6911697  90.5979061  15.0230455  46.3939524  90.3372955  14.1512799
  45.9608507  90.3770542  15.6010485  36.6398263  13.0689585  15.7372832
  35.8877444  12.5109315  15.5392671  36.8453622  12.8780401  16.6524541
  19.1538477  35.7256937  53.9602613  19.2803013  36.2652683  54.7407103
  20.0235200  35.6696749  53.5643244  14.8748505   9.7782147  34.0047383
  15.0551236  10.1287174  33.1324530  14.4676924   8.9274347  33.8415575
  53.3023262  84.9036598  24.5099449  53.9276123  85.4405403  24.0231061
  53.1448841  84.1474152  23.9446688 109.2443657  32.9450250  38.8523507
 108.3649063  32.7990913  39.2009044 109.4110966  32.1837568  38.2965612
  30.6592131   5.5820554  26.4876795  30.5620337   6.5101552  26.7007971
  29.7646403   5.2753490  26.3396835 110.8470821  92.3018742  41.2216997
 110.4447174  92.6489162  40.4255247 110.2488804  91.6132259  41.5117931
  89.9228287  98.8322830  32.5561404  90.7451534  99.2438602  32.8218794
  89.7235870  99.2227554  31.7052174   5.8945674  18.4057832  39.7866297
   6.5830040  19.0592682  39.6631646   5.3605813  18.7525403  40.5013657
  12.2677314  57.1702480  10.0378788  11.9025815  57.8968000  10.5428696
  11.5290999  56.8381357   9.5276254 113.6613274  69.6928501  26.0801530
 113.4806061  70.5443335  25.6819701 114.3094826  69.8788595  26.7595100
  81.1403370 102.5091362  29.8568273  82.0060444 102.3443413  30.2304912
  81.2278461 102.2686195  28.9344788  31.2728071  16.3603020  29.9561167
  30.5155945  15.8089447  30.1532650  32.0042038  15.9299958  30.3989768
  93.1010056   4.3592587  60.1516342  92.4576664   5.0485462  59.9865961
  93.7308121   4.7582135  60.7519770  33.1010699   7.3543745  69.8421764
  32.8419948   6.6901022  70.4808140  32.3423052   7.9344469  69.7787428
  16.6313922  13.9891648  12.5485110  17.1671784  14.1771019  13.3191240
  15.7662988  13.7832606  12.9026973  55.1813889  32.7895188  62.1009636
  55.5613375  33.5778522  62.4887800  55.9369326  32.2631645  61.8395424
  78.3697319  12.2195840  28.9846087  78.6929560  13.0311847  28.5933805
  77.4953318  12.4400747  29.3056107  17.3160446   8.4727913  26.9655108
  17.7844262   9.3051451  27.0290542  16.4902306   8.6948854  26.5354681
  38.1134534   6.7940146  27.0250297  37.4659300   7.4136776  26.6889310
  38.2170177   7.0319891  27.9463744  82.5561905  91.2152004  73.5144758
  82.3778057  91.1385059  74.4517708  81.7482090  90.9234905  73.0922318
  74.3036556 101.8095684  32.7589607  73.6994362 101.2418938  32.2805285
  73.7647295 102.5480747  33.0425096  84.1883659 104.6624851  27.9656601
  83.3313560 104.9510098  28.2795143  84.1649342 103.7090874  28.0476665
  81.1356449 103.8120270  51.0424376  80.9586811 104.7253990  51.2675238
  82.0855618 103.7724113  50.9314537  77.5970030 100.7680893  47.8604078
  78.3581161 101.0507202  48.3674192  76.8736506 100.7805252  48.4871817
  14.6044052  11.8829393  93.8285542  14.7333419  12.1397841  92.9155159
  14.1204655  11.0585499  93.7794018  61.7903566 102.7286434  36.5576673
  61.3222456 103.5315037  36.3284683  62.6089764 103.0323696  36.9499063
 114.8013878   6.9712394  14.6425676 114.0350533   7.0443517  14.0736914
 115.4716206   6.5679288  14.0908742  92.9112339  69.1749191  26.7422318
  93.3041000  69.6084690  25.9846544  93.5936546  69.1998005  27.4129868
  10.6518817  13.3476853   7.9687333  11.5043736  13.1027615   8.3285987
  10.8599734  13.8609791   7.1880543  85.0632477 105.8599186  42.2679663
  85.4368973 106.7047501  42.5187445  85.2406788 105.7884789  41.3300753
 103.5405540   9.7679138  27.6720333 103.5909367  10.6170535  28.1109571
 103.4851265   9.9825430  26.7408538  39.5714068  18.4370244  42.9928207
  40.2030563  18.2466233  42.2992802  38.7397742  18.1015122  42.6580811
  15.6708217  48.5074854  14.0231252  14.9746919  47.8953171  13.7846196
  15.2877283  49.0486574  14.7134924  76.8178701  30.3455567   2.7988839
  77.4185038  29.6364403   2.5694889  75.9989738  29.9030399   3.0220920
 111.8611717  26.2362361  36.0815263 112.5555134  26.8500495  35.8420420
 112.3205185  25.5024481  36.4899135   7.2173637  41.8179893  33.4296131
   8.0268890  42.2910261  33.2369113   7.1292657  41.8717575  34.3812323
  18.5152280  31.4623618  13.5179722  17.7573991  32.0284033  13.6646807
  18.2402086  30.8706498  12.8176343  25.4544854  44.8735952  44.1239214
  25.3134918  43.9870501  43.7916660  26.2067223  44.7927952  44.7103024
   9.0912223  29.6440482  12.3148704   9.8586279  30.1829314  12.1227074
   8.3460021  30.1922536  12.0692074  37.7777863  28.3479667  32.1648550
  38.3129001  27.8144550  32.7524352  36.9453311  28.4506679  32.6260495
  93.5173321   5.5913174  37.3962474  93.3047867   4.6696138  37.5429320
  93.4174442   5.9999251  38.2560706  95.1215935  39.3978763  16.6632462
  95.6364441  40.1477766  16.9612443  94.6044922  39.1434669  17.4275219
  40.3558731  21.9522190  60.2120590  39.8803973  22.5463843  60.7926798
  39.7416639  21.7697525  59.5009470 113.8030815 105.8743095  30.4784989
 113.2940102 105.1340866  30.1481318 113.7339878 105.8065319  31.4307928
  26.6256642   9.3034601  55.2844763  26.8747282  10.2039897  55.0765181
  27.4380326   8.8924474  55.5800343  28.1902170  25.0785446  14.8260701
  28.6066055  25.8024192  14.3582487  27.7799153  25.4895806  15.5869472
  33.5225701  13.8304317  37.4224544  33.7542391  13.1795883  38.0849981
  32.9313040  13.3677649  36.8286729   1.3744643  14.3792045  38.5836816
   1.2206632  13.4778500  38.8667655   2.2700764  14.5685863  38.8634062
  96.9484901 106.0338211  19.9836755  97.4836540 105.7197666  20.7125092
  96.6408253 105.2369881  19.5516741  11.2514317   0.2949412  55.6245852
  11.5102482  -0.1051566  56.4547491  12.0779753   0.5417412  55.2096796
  75.2627516  21.7171788  17.1894228  75.8308983  21.2980986  16.5430403
  75.7730436  21.7070627  17.9991961  36.7660403  32.1208024  39.2193389
  37.2734237  32.2128272  38.4129095  37.1615052  32.7485943  39.8240829
   9.6218991  47.9696560  26.2309480  10.5275214  48.2796288  26.2305117
   9.6341723  47.1949625  26.7930222   7.1560752  43.3069658  27.3882103
   7.7620476  43.2872772  26.6475058   6.7792606  42.4274015  27.4128389
  43.5286617  85.7403755  90.4895020  42.9480982  85.6022167  91.2378883
  43.2862616  85.0536156  89.8683453  24.5534062  15.9738970  18.6612403
  24.7073245  15.5850148  19.5222342  25.2067780  15.5651641  18.0935502
  92.3864365  43.6888123  89.4884872  93.2136154  43.5168123  89.0385723
  91.9697952  44.3765068  88.9691448  14.8723853  37.2025132  60.4320478
  13.9677727  36.8955255  60.4925966  15.3943598  36.4016271  60.3835154
  42.9309607  49.7868109  56.3418245  43.7265062  49.6086264  55.8402395
  43.2053614  49.7233629  57.2566557 105.6356907  20.8893633  66.9803429
 104.8968697  21.4775801  67.1364784 106.3620567  21.2838030  67.4630880
  35.0344610  49.8802948  40.2086067  34.3370533  50.3679085  39.7703338
  35.4488182  50.5216169  40.7858801  -0.1724926  64.5192099  21.7871141
   0.0679491  64.5360184  20.8607554   0.6158584  64.8116302  22.2445273
  29.8192048  42.0826817  35.2287650  30.2762032  42.4340343  35.9929204
  28.9957714  41.7417240  35.5779624  25.4681921  21.6390038  32.4042845
  24.5372558  21.8091226  32.5479841  25.8934283  22.4810028  32.5668883
  39.6746540  23.4205270  36.2375212  40.4295540  22.8796196  36.0056186
  40.0085449  24.0269327  36.8985963   0.7800096  27.5340343  33.7374496
   0.1399021  28.2451367  33.7662578   1.1615953  27.5906110  32.8614235
  32.7852416  75.5563879  90.9529877  33.6489820  75.9420586  90.8065701
  32.1762848  76.1693716  90.5410957   9.3267149  32.7624655  33.9139509
   8.6683971  33.0982709  33.3056045   9.1934693  33.2694459  34.7148538
  34.3619847  24.7621799  43.9433146  35.1401067  24.3228269  43.6002016
  34.2745733  25.5491781  43.4055185  88.5642242  95.5392647  60.2519417
  87.6081276  95.5565929  60.2093744  88.8075829  96.4219284  60.5310631
  45.5851936  44.2190027  12.7428758  45.3956795  45.0986814  12.4165630
  46.3192272  43.9178848  12.2073829  31.3347745  28.0940843  26.9624591
  31.9380713  28.2016516  26.2271380  31.5033913  27.2080421  27.2829676
  61.1596537   8.1608748  25.7269955  60.8833694   9.0714449  25.8307338
  61.9775009   8.2135892  25.2324462  34.5923042  88.3810616  75.8586740
  34.8202205  88.0690002  74.9829435  35.2975702  88.0576801  76.4192581
  49.6507788  43.2487679  31.0600209  49.0667534  43.9495230  31.3500023
  49.5688581  43.2479811  30.1063323  51.6435814  25.5583334  28.2593632
  52.4054480  26.1231160  28.3890367  51.6726160  25.3263521  27.3311543
  81.0769176  14.3871212  73.0506086  80.5473328  14.6123183  73.8154984
  80.6518173  14.8409915  72.3229265  15.5808008  21.0636830  17.1289611
  14.8335207  21.5192914  17.5165498  16.2823522  21.7148662  17.1246040
  18.2047272  30.2319813  52.7774286  18.6346412  30.9601998  52.3289871
  17.3536932  30.5819297  53.0410719  13.4118354  63.6291075  52.7142239
  12.5648606  64.0739727  52.6831961  13.7751579  63.7442398  51.8361759
  26.9407058  43.2344961  61.6197443  26.1144423  42.8785515  61.2929106
  27.0245361  42.8735828  62.5023270 106.9073486  40.6859207  37.4454713
 106.2561035  41.2574196  37.0386648 107.2342205  41.1884403  38.1917071
  15.9422040  32.8987741  44.3533945  15.1813638  33.3456683  44.7243929
  15.5763984  32.1390057  43.9004421  26.4943647   9.2979032  15.1393104
  26.2207770   9.8894304  15.8403647  27.2834826   9.7024286  14.7789180
  36.4392710  20.6700444  31.3458920  36.8458438  20.0609589  30.7294965
  37.1730089  21.0376024  31.8386030 110.0802135  44.5879841  54.0403414
 109.3941593  44.5187712  53.3764362 110.5769825  43.7740183  53.9571810
   5.3230494  13.4766960  80.2706623   6.0773373  12.9307389  80.0488186
   4.5813996  13.0437577  79.8478699 110.8915234   8.8414079  25.9279656
 110.8650398   9.1575253  25.0248599 110.0407124   8.4233010  26.0604191
  96.0375214 103.4009933  76.5406132  95.3847122 103.3995533  75.8405590
  96.3744354 102.5051785  76.5557623  27.9480243  29.6957231  31.8669009
  27.6382804  28.7963271  31.9735813  27.2134519  30.1553750  31.4602637
  12.8173232  32.0637560  27.3759580  12.2144508  32.7842307  27.5595140
  12.9927719  31.6741371  28.2324886  28.0146194  19.6286905   6.1354220
  27.6163602  19.8015082   6.9885087  28.6369610  20.3454161   6.0120219
  52.5366879  14.7629619  49.7423077  53.1248760  15.4277480  49.3840790
  52.7830601  14.6972716  50.6649208  34.2811823  26.9843745  42.4296999
  34.7739649  26.8003678  41.6299868  34.4507313  27.9094100  42.6080084
 111.5229225  19.9324310  16.3484025 111.0484982  20.2579713  15.5834341
 111.6315174  20.7013917  16.9079912  32.4633884  22.9129267  48.1720209
  32.7274823  23.0028939  47.2563839  31.5092301  22.8435540  48.1403828
  10.8080053   0.6339594  67.1792746  10.6930089   0.5860585  66.2302160
  11.1289096  -0.2335125  67.4257421  32.3632383  11.7353511  60.9887123
  32.9795575  11.4231408  61.6512108  32.4840975  12.6848269  60.9776735
  22.9336047  20.3461027  29.7129560  23.8802505  20.3419232  29.5712638
  22.6869321  21.2691998  29.6557331   7.3281604   5.9394938  41.9917440
   7.3238754   6.1984736  41.0702562   6.6902429   5.2277225  42.0434666
  33.4004378  27.5828791  31.0930276  33.7972927  28.1605458  30.4410768
  32.4635649  27.7724338  31.0423470   1.8990816  25.2423882  19.5075119
   2.0257889  26.1306477  19.1740847   1.7191242  25.3600812  20.4402471
  43.9503527   8.7725914  23.6671114  43.5575724   8.3056062  24.4045949
  44.1091967   8.0938971  23.0110836  24.6059108  38.2736063  48.7533379
  25.1081777  38.7503767  48.0925465  23.6919045  38.4676433  48.5455513
  53.4715462  28.9525580  34.6973109  52.7122831  29.4504189  35.0004411
  53.3635616  28.9057660  33.7473726 111.0309887  98.2195473   2.8129011
 110.3383064  98.7231922   2.3853719 111.5618038  98.8766098   3.2631591
  21.9097185  42.9729986  45.4230738  21.4463735  42.1377468  45.4855061
  22.8360891  42.7324820  45.4082727  31.6929102  32.3803878  22.9180312
  32.5561190  32.0040464  22.7463698  31.5249491  32.9475832  22.1654940
 105.0302601  31.3975000  29.0915275 104.8938465  31.9667506  28.3341789
 104.6537113  30.5571103  28.8304019 108.9138031 103.8508224  16.4573681
 109.3047619 103.1666470  15.9139681 109.2277527 104.6697903  16.0740089
  88.6608124  79.6530437  26.0090780  87.9124641  80.1755142  26.2975883
  88.3337879  78.7535477  25.9951401 105.8008957  21.6920662  52.5523329
 105.1844883  22.0571804  51.9175434 105.3291702  21.7152572  53.3849001
  20.9128881  23.3221364  52.6642513  21.1251354  24.1777039  52.2911787
  20.0467896  23.1157780  52.3127937  96.9012642  34.0005684  37.9397297
  96.3883972  34.8027706  38.0380416  97.4186897  33.9471126  38.7432480
  49.5078993   6.9406444  27.1275949  49.8404169   7.8326595  27.2274566
  48.7058973   7.0400226  26.6146135  50.1647520  92.2725773  92.8008175
  50.4448557  91.6232395  92.1557331  50.5420589  93.0959892  92.4912071
  20.1419187  29.2512989   9.1729951  20.0588298  29.3930173  10.1159930
  20.9079456  28.6845064   9.0825516  20.2001381  48.4595013  34.8625040
  20.4976439  48.3767986  33.9564800  20.2662635  47.5732899  35.2181554
  11.3580203  54.8465633  13.1310749  12.1243596  54.9631310  12.5694990
  11.7008293  54.4265604  13.9199436  42.7775383   1.7989103  10.0376642
  43.1690121   1.4757013  10.8491540  42.8152800   1.0524705   9.4396377
  37.5676298  45.1570892  13.3732724  37.3363519  45.1145601  14.3011367
  36.7364740  45.3173494  12.9263592  43.6543465  54.1739941  85.4663849
  43.7156248  53.6371565  84.6762657  42.7188158  54.3519449  85.5630779
  22.5003099  38.6852860  15.5257988  22.3906803  39.5421743  15.9380555
  21.6120005  38.4171772  15.2907383  15.3543639  39.5393062  49.4237089
  15.5680501  38.6080503  49.4814253  14.9307704  39.7400212  50.2582836
  51.0114765  53.5744572  60.3327036  51.5464449  53.9901829  61.0088778
  51.1603165  54.1047621  59.5498514  62.0105124  81.2958813  80.4979134
  62.5287104  80.4914665  80.5227852  61.7561769  81.3886452  79.5797920
  12.1694183  62.0487976  26.2649393  12.0534801  62.7838230  26.8670368
  12.6997006  62.4046183  25.5519009  63.3349895  38.2723784  28.5800219
  64.1891813  37.9348302  28.8495612  63.4665585  38.5641742  27.6779270
  26.6420031  12.0879674  54.4692612  25.8872128  12.1032000  53.8807964
  26.7452931  12.9972541  54.7499037  26.7056012  44.9684763  53.1598520
  26.2337112  45.2651834  52.3817015  26.3741183  44.0846300  53.3184814
   9.2764342  80.5068874  41.6445446   8.4860116  81.0092163  41.4467382
   9.7080040  81.0033798  42.3398685   0.6043116  64.5981359  19.2628384
   0.8112699  63.7661362  18.8371933   1.3017264  65.1907015  18.9822829
  62.3618937  45.5457354  18.0119491  61.4603424  45.2269506  18.0545712
  62.4706078  45.8363819  17.1064460  32.5820351  27.2878766  61.3049316
  32.1045399  28.0426288  61.6492844  33.0440617  27.6263404  60.5379868
  31.6231275  44.5017672  68.3618212  31.1800861  43.7802601  68.8083267
  31.6939116  45.1872063  69.0261936  43.0084038  16.7465365  19.5959330
  42.9032087  15.8819473  19.1988814  42.1974230  16.8857968  20.0849628
  20.7759023  66.3914204  69.2295074  20.7302284  66.2103748  70.1683187
  20.6218290  65.5428982  68.8141727  29.4506550  24.5217538  72.3262167
  29.4664907  24.6927762  73.2678795  28.6265492  24.9057746  72.0268679
  25.6842208  50.2976942  43.0276012  25.6680036  49.8753214  42.1687841
  25.8448243  51.2218761  42.8369999 114.8281956   7.2998279  10.9395301
 115.3112698   7.3299915  10.1137161 115.3741074   6.7662019  11.5169907
   2.7009299   9.7044015   2.8148016   2.4579930  10.6141472   2.9867795
   2.1200915   9.1911238   3.3764103  50.6742048  12.5667679  31.4725590
  50.1222038  12.7286530  30.7074976  50.0653028  12.5647128  32.2111177
  23.6617231  62.8447390  39.4615412  23.7331128  62.3207569  40.2593994
  23.8562298  62.2306681  38.7535071  43.9614439  12.9637349  15.7221901
  44.6322966  13.3866191  16.2582481  44.0777254  12.0280504  15.8871305
  20.4765129   7.5160992  23.1988668  20.0654268   7.2563952  24.0233636
  19.7435176   7.6557261  22.5993228  17.4283016  35.2930498  33.3423185
  16.8373668  35.8553362  32.8414559  17.0774353  35.3097272  34.2327356
  17.4013960  27.3245382   8.6977804  17.4138260  28.2440424   8.4320921
  17.7000546  27.3339272   9.6071464  24.3661141  10.0637841  10.2162135
  23.8889027   9.9388885   9.3959057  25.2859330   9.9472588   9.9783361
   4.7676682  31.9661307  29.4808507   5.3485417  31.2485886  29.7337365
   4.5683989  32.4140668  30.3029680  16.1042416   6.7854607  41.0350084
  15.5612278   6.8582708  41.8199062  16.8573141   7.3493105  41.2116098
  32.7378416  52.4117231  12.0087159  33.2607079  53.1354856  11.6637409
  31.9812751  52.3629951  11.4243662  33.7998581  58.0128050  17.4127769
  34.2356372  57.1748972  17.5684619  34.4430304  58.5310364  16.9290459
  11.4310253  64.1644335  56.2718630  10.8938336  64.8598194  55.8922625
  11.9037437  64.5903015  56.9869900  27.7495050  34.6628380  41.2574720
  27.6735067  33.7087774  41.2724352  27.1595788  34.9391317  40.5561256
  78.7386417   6.6197449  10.0484455  78.8141298   6.6048717   9.0943426
  79.4771051   6.0937119  10.3553605  37.7519393  44.7263575  22.9720664
  36.8080759  44.6410465  23.1065106  38.1304431  43.9950037  23.4600091
   0.8056418  49.4298840  19.1043437   1.5400778  48.9357615  18.7400925
   1.2032084  50.2277660  19.4529974  22.3691678   8.5318047  35.2817082
  21.5528822   8.0330205  35.3152657  22.1107221   9.3921649  34.9512243
   7.8667808  27.1324086  34.9073887   7.5135958  27.4328446  35.7447839
   8.7821621  27.4119878  34.9193811  47.9941654  22.8051829  32.3675060
  48.4431267  22.3954225  33.1069398  47.1306801  22.3923659  32.3529696
  18.9536178   8.2025713  10.3595769  19.2346704   8.7705672  11.0769486
  18.3154023   8.7263840   9.8752922  20.3312206  40.7320452  59.5778751
  19.3850243  40.7366610  59.7225332  20.6881738  41.2320852  60.3118896
   4.1464242  50.5967426  50.2656984   3.4305722  51.0772896  50.6814671
   4.1322792  50.8875227  49.3538475  20.6284738  25.6882620  18.5500753
  20.8333755  25.2370882  19.3690312  21.4821792  25.8762193  18.1600869
  16.6512382   9.6703112  23.5509610  16.6490436   9.9076831  24.4782591
  16.7835712  10.4996681  23.0917382 101.7148304  98.9846325  52.7425766
 102.4016953  99.6253777  52.5584650 102.1029472  98.1425190  52.5050306
  43.8655376  32.7667689  30.7508254  44.3167925  33.2768345  31.4234543
  43.5116196  32.0113754  31.2202454 108.9990425  27.5233531  40.4933977
 109.2628479  27.0373869  39.7120667 109.7179127  28.1360722  40.6484365
  12.1029973  23.5176635  50.3236008  12.7429330  23.9054585  50.9205341
  11.2817228  23.5249877  50.8152151 110.1165867  14.5119548  39.4623971
 109.5339489  14.8094881  40.1611328 109.5335579  14.1056061  38.8211584
  19.4121706  26.2134385  84.5865250  19.3040621  26.0366368  85.5210209
  18.5266519  26.3985825  84.2737770  23.3903980  35.0227857  27.6414323
  23.5401869  34.8112893  28.5628796  22.9463005  34.2520499  27.2879148
  22.4985361  36.4361858  37.3300648  22.3013115  35.5522919  37.0201206
  21.6922283  36.9289660  37.1775246 110.9424114   1.4245132  34.0578890
 110.5419540   1.9873598  34.7205091 110.8922577   1.9338065  33.2489777
  28.6280990  11.7832303  43.1007624  29.0673351  11.1048603  42.5878143
  28.4348869  12.4747431  42.4677467  86.2179089  51.1739063  87.7789974
  86.2411880  50.8697653  86.8717003  85.3032780  51.0721684  88.0423164
  24.9855542 107.3145199  35.5872226  25.7715440 107.8185368  35.7979631
  25.0828123 107.0954609  34.6605158  44.8571253   0.5677749  40.1802874
  45.2915382  -0.0352716  40.7834864  45.5499887   1.1649628  39.8982596
 104.4985580   4.8709670  10.1252031 103.6015987   4.7406065  10.4329348
 104.4186974   4.9320355   9.1732967  21.6550851  25.2447891  50.4442692
  22.5783658  25.4111075  50.6343269  21.3185859  26.0862994  50.1362753
   9.7571778  23.8241935  65.4760981  10.4638731  24.4358420  65.2694559
  10.0057900  23.0126333  65.0336123 108.9058876  30.7193160   6.0014892
 109.0795135  30.4205370   5.1088428 108.6826611  31.6451120   5.9050286
  31.6576910  40.2833605  20.2363205  31.9098186  39.3669510  20.1229310
  30.7812738  40.2450228  20.6192780  46.2768507  30.3898668  39.7209883
  45.3391218  30.2741241  39.8742604  46.3841534  30.2545595  38.7794948
  19.5702457  55.2565670  44.9628639  18.6946177  55.0511789  44.6352625
  19.6886778  56.1853313  44.7638512  33.7460613  64.7991371  17.0680392
  33.7845373  65.2448606  17.9142559  33.1695652  65.3465986  16.5349638
 112.4372482  29.9121046  22.0347261 112.0513725  29.0681672  22.2694659
 111.7176628  30.4021144  21.6368484  62.4785089  26.6245270  14.0629840
  62.1559191  25.7367706  13.9078736  62.4595833  26.7233348  15.0148821
  10.1308978  52.4516344  67.4027252  10.5476189  53.2876587  67.1938419
   9.8675078  52.0965719  66.5537310  29.6121478  27.1701956  53.2358360
  29.0555835  26.5615559  53.7216663  29.0227294  27.8780293  52.9754686
  56.7920399  43.6038828  38.6764026  57.0253658  43.0213594  37.9535913
  56.0372591  44.0959835  38.3533430  29.4132829  37.3056102  27.1363997
  29.8246670  36.8254995  27.8550696  28.5197616  36.9641709  27.1007633
 101.9478893  32.8520155  32.2612882 101.1678028  32.4620962  32.6558256
 102.6060200  32.1578026  32.2953796   9.1854376  16.8320560  64.6193886
  10.0752664  17.0459950  64.8998642   8.6849928  16.7748296  65.4333401
  23.0159831  42.6877069  55.4915524  22.4181461  43.1558132  56.0743856
  22.4818802  42.4652672  54.7289991  86.9878006  94.0828419  15.9427989
  87.7755737  94.0758133  16.4864826  86.2730694  94.2438316  16.5588140
 105.5160618  16.2606847  10.6651938 105.5395126  15.4355347  10.1806223
 104.6147823  16.5687311  10.5701447   0.4109657  19.8164976  16.2283134
   0.6053810  19.4028008  17.0693183   1.1901105  19.6551323  15.6962168
 113.9703083  22.5327444  33.0433226 113.4492111  22.1477723  33.7479401
 113.3244228  22.9141760  32.4486947  56.4972973  12.5414562  29.1013050
  56.2980795  12.7894962  28.1985188  55.7749748  11.9677985  29.3570352
  40.8523083  34.3481302  38.8357902  41.7882967  34.4862175  38.9810157
  40.8015108  33.5042167  38.3869433  36.5596414  13.4954238  27.2057509
  36.2488294  12.8068841  27.7935791  35.7617807  13.8690197  26.8314791
  43.9311600   9.2300248  72.3625231  43.3852339   9.5604277  73.0759907
  43.9647770   8.2840806  72.5049734  96.8550301 100.1894855  25.1995730
  96.6749287 100.9779453  25.7115507  96.3108444 100.2821827  24.4175911
  38.4911132  40.7901955  35.2049923  37.9717875  41.4615202  35.6475496
  39.2797232  41.2492990  34.9159431 112.1549225  56.2657738   2.2466847
 111.5584278  55.5205345   2.3177467 111.6431141  56.9405270   1.8006012
  43.4270859  20.3852201  42.4663782  43.4517002  19.5295203  42.0381212
  42.7082872  20.3179121  43.0948877  29.2489243  20.9073687  32.3548174
  29.9877906  21.4689684  32.5891519  29.4575739  20.5914688  31.4756680
  48.4608793  38.1960559  61.8721294  48.3317709  38.2668662  62.8179359
  47.7610540  38.7287235  61.4943218  47.3067427   1.8174189  56.7969179
  47.4352264   2.1364947  57.6901770  48.0057955   2.2323005  56.2915182
  84.7922993 104.7919273  34.4403386  84.1167450 105.4648113  34.3561411
  84.4475746 104.1873455  35.0975084  14.8029768   6.7061019  44.7518063
  14.3069804   6.7089295  45.5704689  14.6762919   7.5840002  44.3919754
  41.6668463  22.1936798  31.8865085  42.3845959  22.6678753  32.3062778
  41.2634611  22.8368378  31.3035345  46.8433571  36.2717009  25.7485199
  47.5350189  36.7353678  25.2764487  46.9924688  36.4911771  26.6682100
  99.3441677  64.1380548  20.6519222  98.8437557  63.5722589  21.2398791
 100.2568245  63.8908720  20.8008957 115.7171535   9.1269779  47.7664709
 114.7746563   9.1622347  47.6031065 116.0637856   9.9101508  47.3390150
  22.4968910 101.3172436  10.9924889  23.3329177 100.8585739  10.9093547
  22.6969147 102.0844555  11.5287852  24.3718958  99.4539452  43.5888672
  25.0757217  99.8541832  44.0994310  24.6101260  99.6246243  42.6776314
  95.2510262  60.2757740  34.9311161  95.8480644  61.0233021  34.9623990
  95.2069378  59.9664307  35.8358788  75.0839710  24.3307662  19.5520937
  74.5690632  24.5862961  20.3174710  75.4015350  23.4519434  19.7596025
  45.6468868  47.4784565  36.3157368  46.2935448  46.8081522  36.0949206
  45.3343391  47.2321701  37.1863055  17.6819289   4.7046006  60.4268789
  17.7878177   5.6535184  60.4945135  18.5192013   4.3483853  60.7240629
  29.5486712  38.6747885   7.5649709  29.4261384  38.2174897   6.7330468
  29.2824912  38.0390477   8.2292116   2.7157477  36.4946699  33.8578129
   3.2222944  35.8466196  34.3473744   3.2742643  36.7238545  33.1150031
  21.6920590   9.1092300  25.2362227  21.4484406   8.5860109  24.4725966
  20.8777094   9.5345986  25.5047965  26.6741490  19.2932749  31.7693114
  27.4611068  19.8016071  31.5730286  26.1213923  19.8919451  32.2715902
  29.8373556  22.8987312  48.4025955  29.2175579  22.1705532  48.4454918
  29.8188257  23.1753731  47.4864340  38.5311651  33.9770651  40.6646824
  39.0394115  34.3812013  39.9614120  38.2134271  34.7149467  41.1850739
  17.5830626  10.8783925  14.6578300  17.1876967  11.6732383  15.0157928
  16.8839836  10.2255869  14.6947813   4.0288863  13.0532765  49.8759651
   4.4789830  13.3274138  50.6750202   3.4931773  13.8080370  49.6318674
  35.9568048  51.6929340   5.0589728  35.4100347  52.3569965   4.6390951
  35.4014349  51.3250113   5.7463080  28.4700012 107.2364998  41.5919828
  27.7366900 106.6513920  41.7820740  28.3171225 108.0005455  42.1479416
 112.2807884  11.2676418  31.4944220 112.6392174  10.3882015  31.3746500
 112.9982090  11.8535841  31.2531376  54.7905636  41.7146444  17.5119817
  55.6791878  41.4641666  17.7646577  54.4827127  42.2645521  18.2324433
   4.9172515  23.4679246  39.1996288   4.5350090  24.1142845  39.7932148
   4.6903518  23.7826443  38.3245850  41.2010717  49.7470713   3.1146765
  40.8730412  49.9819469   2.2466537  40.4154539  49.5322609   3.6175582
   4.5946765  21.8614697  30.8910322   5.4555452  21.4919472  31.0874796
   4.7619244  22.5059366  30.2033424   7.9837292  33.1497169  21.2211275
   8.0598933  34.0093946  21.6351151   8.5378820  32.5780559  21.7524934
  61.9505978  85.0315952  70.2266932  62.0363617  85.8424568  69.7253084
  62.1926975  85.2756405  71.1200380  15.6234193  33.8107729  21.0887432
  14.8663843  33.3187580  21.4066291  15.7868576  34.4644928  21.7685723
  48.6497641  16.0868514  28.7960792  49.0052891  15.9657419  29.6765161
  47.8753471  16.6347611  28.9237690   7.1583021  28.3168340  50.3539801
   6.8430382  27.4137950  50.3908300   6.8083364  28.7251997  51.1458111
  25.4170275  47.7853298  39.3245649  25.5756617  47.8990555  38.3874774
  24.9708772  48.5891151  39.5912385  35.3198528  56.5597200  24.6514702
  35.0380850  57.3934412  25.0279689  36.1434340  56.7632675  24.2081690
   3.4699839  33.1358624  34.6891451   3.2967633  33.0038810  33.7570453
   2.6974988  32.7807879  35.1289415  27.1634650  46.1506796  27.1462631
  27.5861573  45.7704067  26.3762259  26.2945843  45.7495308  27.1651411
  29.5248580  98.2865810  85.7623959  29.3496132  98.1627750  84.8295593
  30.4302645  97.9976654  85.8764172 111.4579678  92.1882915  81.7658138
 111.4180565  91.3193798  82.1653652 112.2321701  92.1581173  81.2037373
  44.8849392  46.6403866  24.7014403  44.8220825  45.8794403  25.2787113
  43.9900732  46.7809153  24.3920946  25.4073381  42.1879482  19.7321343
  24.9525809  42.5509882  20.4921532  26.2368560  41.8628931  20.0820947
  35.9407353  43.9975643  27.0585585  35.1371098  44.1396093  27.5588012
  35.6722522  43.4421873  26.3266420  31.5013456  41.7739010   7.6019341
  30.8355021  41.3252544   7.0807827  31.0541558  42.5460005   7.9485136
  92.3936462  17.4193776  94.4080353  91.9063377  16.7859709  94.9348736
  91.9090843  17.4687600  93.5840321  25.2482939  42.7851582  53.4835625
  24.4074559  42.5742102  53.0776978  25.2592993  42.2727346  54.2919731
   6.0520041  45.8537531  31.1644149   6.1682653  45.7023335  30.2264452
   5.4321331  45.1788330  31.4409590  11.6943121  67.1051455  10.6019604
  12.0418847  66.2194300  10.7065201  12.3665547  67.6723671  10.9795654
  67.7336693  43.7666130  36.8600202  68.2986212  44.2315483  37.4771905
  67.3311520  44.4588137  36.3355494  41.6039801  17.0399714  56.3812685
  41.0931158  17.8309608  56.5532637  42.5041151  17.2848344  56.5958309
  38.4150410  38.9531064  21.3193655  38.9552402  38.3713388  21.8541217
  38.8521886  38.9705253  20.4679966  42.2897720  36.3974309  37.1878338
  42.9222345  35.9742188  37.7684546  42.4235916  35.9750605  36.3393497
  19.7957003  68.1615591  39.8251748  18.9639688  68.0765581  39.3590951
  19.7879255  67.4464130  40.4613686  34.2036581  34.5415902  44.8365641
  34.7415185  35.2152681  45.2526093  34.8206639  34.0345383  44.3088961
  20.0239110  12.2731864  46.4362144  20.6560445  11.9132829  47.0583916
  20.4388309  12.1605217  45.5810070  52.4306679  27.9513788  48.6386871
  52.4243879  28.8614392  48.9353037  52.0664358  27.9852509  47.7541399
   7.9414529  54.2704296  33.1519771   8.8930345  54.3599653  33.2039976
   7.6816046  53.9662933  34.0215826  93.8172722  73.6478806  48.6475372
  93.8993835  74.0305471  49.5210648  92.9740429  73.1951618  48.6626673
  39.4247699  33.0006695  49.0210676  39.6983600  32.1432710  48.6951113
  40.0686693  33.2171512  49.6954250  80.9898663   7.1483314   5.6018245
  80.6842804   7.9560810   5.1890409  81.9240379   7.2941899   5.7510746
  36.6008472  31.3095284  48.5942793  36.7767525  30.4093456  48.3204889
  36.6142297  31.8141770  47.7810240  62.4034595  48.6863184  38.8135409
  63.1372404  48.7943506  39.4186211  62.3364162  49.5294762  38.3654094
  24.0300322  25.6719995  32.4903917  23.6663723  24.9206805  32.9589033
  24.2837238  25.3218293  31.6364264   3.3598217   6.4624572  61.0574245
   3.2853836   7.3932582  60.8469486   3.8274184   6.0850650  60.3123331
  12.0794177  60.5648041   8.2085860  12.2405422  61.5083122   8.2010955
  11.1498260  60.4822493   8.4213656  36.7231035  41.9810247  45.3969622
  37.3454785  41.2552309  45.4428434  35.8653307  41.5674925  45.4941750
  27.2592998  82.9796791   0.8556011  27.4979305  83.5617352   0.1341479
  26.7107177  82.3081779   0.4501679   5.6004953  40.4474258  31.3586354
   5.6759495  41.0054970  32.1326494   6.5054667  40.2609253  31.1086869
  22.6048923  46.0289621  35.7731652  23.3352137  46.6228771  35.5995870
  22.3606062  46.2086773  36.6810536  32.2397780  46.6497231   7.8917956
  33.0562472  46.5574312   8.3828086  31.5626836  46.7225313   8.5644567
   9.1441113  36.7543244  52.1359777   8.9936447  36.0169530  52.7274799
   9.1533899  37.5219679  52.7077007  38.2369423  47.3930120  29.3907237
  38.7781596  47.1570206  30.1441336  38.2140708  46.6003847  28.8545823
   7.4174571  34.0217638  14.4994259   7.5312972  34.4330668  15.3562248
   6.8330932  34.6134567  14.0254521  11.1510706  21.0529089  17.7638614
  11.6032183  20.2278209  17.9399908  11.7815304  21.5690231  17.2614872
  13.7432110  58.1186676  17.6398158  13.1932592  57.4181795  17.9906738
  13.9657974  58.6530304  18.4021413   9.7594339  18.2515895  24.4169450
   9.2642730  18.4843719  23.6315417   9.2995244  18.6944985  25.1300693
  12.8915310  37.5693917  18.0113804  13.6148596  37.7284670  17.4049795
  13.0316186  36.6748571  18.3218896  20.6111336  13.9488876  87.1107960
  21.0713148  13.1098020  87.0907497  20.5646515  14.2185402  86.1935425
  80.7275295 107.8916264  94.1722870  80.0262165 107.6236248  94.7660637
  80.3060627 107.9503059  93.3148766  54.8464680   8.1035835  29.6914315
  55.5854797   8.3455092  29.1332459  55.2450609   7.8771001  30.5317068
  51.3296318  57.2830868  42.2962809  51.0869598  57.0771170  43.1990099
  51.6166019  56.4471531  41.9287300  86.5676785  98.4829998  90.0135994
  86.3484287  98.1127548  89.1585636  87.5246525  98.4919262  90.0324726
  13.8634133  29.4426489  57.2243834  14.7120166  29.7924733  57.4959135
  13.2256913  30.0701308  57.5646877 112.8465939  38.9768434  26.1212921
 113.0638981  38.7375760  25.2203131 113.6745739  39.2779493  26.4954829
  25.6021881   5.6482852   9.2303556  25.1720953   5.8305484  10.0658393
  24.9278307   5.8163160   8.5721469   9.3808830  23.8530612  11.9649327
   8.7127513  23.1718016  11.8893194  10.0112581  23.6479974  11.2744188
  57.4485922  54.4102097  30.8224344  57.9438257  53.6596155  30.4944324
  58.0389881  54.8325205  31.4463925  34.6467638  43.9910460  50.3433847
  34.3049717  44.7815752  50.7610846  34.3969893  43.2807541  50.9344196
  63.3422136  26.8978930  21.5764236  64.1091156  26.9271564  22.1484685
  63.4489775  26.0902786  21.0738373  28.9227676  62.0702553  19.5587456
  29.1249704  61.6985893  20.4173541  28.6987138  61.3136148  19.0169668
   2.1936584  31.7823792  59.0530014   1.4670023  32.2394586  59.4764137
   2.9777095  32.2197390  59.3849802  14.5337498  32.5964522  16.0558736
  15.3930736  32.3866463  16.4216292  14.0364432  31.7819667  16.1302471
  39.9648070  60.8095169  25.2083731  40.4408741  61.3177729  25.8650804
  40.6494141  60.4192066  24.6650505   6.9375002  68.0069304   7.4206161
   6.3118929  67.4400568   7.8717273   7.6521021  68.1212759   8.0471146
  29.6543384  39.3707609  63.7550735  29.7800279  40.0547886  63.0973959
  29.5273590  38.5698891  63.2464361  23.3417082  48.1647062  32.4835372
  23.5325146  47.2596359  32.7298594  23.6885476  48.6878204  33.2062292
  52.5017595  46.0469913  63.0014515  53.1148577  46.0652065  63.7363052
  51.9630432  45.2714491  63.1581545  43.6904860  62.2828245  13.5493517
  43.6181402  62.2578478  14.5034873  43.6516142  61.3645220  13.2820821
  24.1826081  25.7775974  20.4302073  24.0951467  25.9310913  19.4894505
  23.6997676  26.4974761  20.8362508  30.3131819  20.1333547   2.3218192
  30.3034163  20.6709933   1.5299350  31.2289357  20.1339483   2.6004410
  20.1911259  23.0661917  46.3229465  20.5827594  23.3812189  47.1375656
  20.2262640  22.1122456  46.3935232  31.0737443  48.8001347  16.3917899
  30.4228497  49.1688585  15.7946193  31.8630576  48.7076283  15.8582580
  41.4607477  36.0345387  27.1613598  41.7841339  35.5641389  27.9297209
  41.2687778  36.9153881  27.4830461  38.4146786   9.6813762   9.8117888
  38.1680870  10.5869436   9.6237105  38.0188870   9.1733539   9.1036254
  55.1384449  60.9547424  10.8023632  55.0252533  61.5405130  10.0538337
  54.7587061  61.4323902  11.5398514  58.3321905  55.1593256  11.6859055
  58.3698082  54.6723413  10.8627021  59.2316008  55.4524422  11.8321085
   1.8331680  62.0335340  18.9155638   1.9884259  61.1923170  19.3450773
   2.5100479  62.0864868  18.2408333  38.8208175  14.7734880  37.7781796
  38.7949920  13.9279449  38.2260871  38.8845038  14.5507085  36.8494487
  45.3581858  32.6821113  46.2521315  44.4382715  32.7893114  46.0102654
  45.3753233  31.8847418  46.7814159  18.1857407  47.6834583   6.3191843
  18.2228208  48.6053085   6.0641444  18.8398457  47.6004219   7.0130742
  44.8222542  32.8008080  36.2276483  45.5733919  32.5829268  36.7795110
  44.8832846  32.1942592  35.4896760   6.6683131   3.5586402  93.7281132
   6.0337770   3.0522731  93.2209778   6.1336184   4.1411403  94.2675781
  43.8495064  33.3154273  21.2475705  44.7851610  33.2018781  21.0805726
  43.7693787  34.2172360  21.5582967  35.2503467  17.4005556  14.1079545
  34.2962313  17.4008512  14.0311718  35.4505920  18.1914699  14.6085405
  26.9496107   7.0161223  31.5699196  26.0354710   7.2686809  31.6995096
  27.0248008   6.1620933  31.9956088  23.8491416  39.8778248  19.7408676
  24.5775914  40.3618479  19.3518722  24.2519498  39.3552923  20.4343629
  28.4961343  34.6789479  22.6643252  28.5284424  33.7427402  22.4675918
  27.8346491  35.0266886  22.0662093  51.0903549  38.3001518  23.5912967
  51.5496969  39.1388535  23.5486817  51.7653036  37.6699471  23.8433194
 108.2228756  63.9919281  27.6505566 107.7665806  63.2351208  28.0183363
 107.5265217  64.5358372  27.2824717  64.8524475  76.9299603  29.0407038
  64.5400333  77.0886755  29.9314570  65.1972342  77.7754879  28.7535906
  75.1824713 101.5122604  84.5939827  75.9382296 101.5061665  85.1813698
  75.3806162 100.8402538  83.9417648  23.2550240  54.1757727  25.7559180
  24.0654278  54.4878435  25.3533125  22.5661969  54.4472313  25.1492381
  36.9686890  44.2799187  48.7239265  36.2421918  43.9774466  49.2688513
  36.5471148  44.6858072  47.9664564  39.2641211  12.2792912  50.3359795
  38.5603142  11.6932380  50.6142378  39.1517782  13.0617166  50.8758116
  19.1374087  59.2775106  78.0388927  19.8497593  59.4319725  77.4184656
  18.3414507  59.3465662  77.5117207  50.9293127  48.5035944  37.7364874
  51.7532253  48.0175829  37.7019954  50.2515459  47.8312778  37.6668262
  34.9270439  21.3822746  35.4937768  35.8816242  21.4504910  35.4749417
  34.6750498  21.2939286  34.5745778  21.6865873  39.6402454  77.0814371
  20.9854221  39.2861891  76.5344048  21.7842603  39.0022349  77.7882862
  42.8028202  44.4768047  41.6733265  41.8531990  44.4618368  41.5540409
  42.9333591  44.2252207  42.5875998  53.2007742  35.4210496  33.7900615
  53.1107855  36.3314009  33.5082912  53.1794882  34.9155974  32.9774761
  16.6795468  36.9281030  23.9104557  17.0754564  37.5920129  23.3459115
  16.8601632  37.2315907  24.8001218  36.7310691  40.4074192  23.7584305
  36.8987250  39.4679379  23.6842465  36.2031651  40.6180525  22.9882479
   9.7401369  36.4411664  35.2011204   9.5603567  37.1649814  35.8011246
   9.5581931  36.7994118  34.3323350  32.3566580  25.5987072  23.2657886
  32.4979663  25.4501343  22.3308063  31.9376802  26.4581490  23.3111000
  18.8356340  54.7597504  34.0546107  18.2653284  54.4272375  33.3614898
  18.3704376  54.5558834  34.8659444  18.1896996  26.3177252  14.7167969
  18.4134078  26.3745308  15.6457520  17.9087782  25.4110742  14.5930958
  72.2957373  42.3424149   8.3003765  73.0257893  42.6815414   8.8183010
  72.3460484  41.3926935   8.4086621  21.1452222  36.8218255  27.6546717
  20.8663726  36.7136025  28.5639358  21.5192628  35.9735966  27.4162817
 105.2572250  47.3304844  18.0155170 104.6235085  48.0086470  18.2494700
 104.7264671  46.5481091  17.8657818  27.9322076  46.0051584  50.0099516
  28.8382030  46.3100863  50.0591803  28.0042171  45.0709295  49.8143530
  17.4725330  61.0902309  39.7290802  16.7211866  60.6747055  39.3059349
  18.0566204  61.3213348  39.0068173  28.9727902  21.3064194  19.0908003
  28.4816527  21.5583873  18.3087981  28.8944054  20.3530860  19.1260290
  42.3295403  30.4312944  26.9635606  43.1592751  30.8405614  26.7180634
  42.4853516  29.4926429  26.8592072  91.1971664  96.0607052  44.1304493
  90.4656887  96.5809155  44.4629574  90.8314514  95.1848221  44.0067530
   2.6111105  53.1962299  37.2394776   2.9826427  53.8454390  37.8367448
   1.8058808  53.6008167  36.9167590  38.2586884  54.4283867  27.3315167
  38.2552409  53.7176847  27.9727054  37.4331498  54.8893881  27.4805045
   4.0830585  79.9562931  21.9093442   3.7361836  79.5473862  21.1164331
   3.8835394  80.8867359  21.8059349  13.4908199  19.5436037  21.6590571
  13.6836994  18.7155437  22.0987678  14.3421876  19.8562920  21.3530660
  43.9294481  29.9987602  40.6581306  44.2422009  29.3442464  41.2826538
  43.1103468  29.6359420  40.3209877  27.0364451  83.5952473  89.3445873
  26.5760207  83.5107231  90.1795101  26.4558482  83.1787491  88.7076569
  29.5522690  68.3830881  15.4864991  30.3461599  68.9144087  15.4259312
  28.9702511  68.8861609  16.0560656  24.7917438   9.4611263   6.9752407
  24.3319845  10.0482607   6.3751340  25.6334615   9.8893398   7.1313685
  77.7490520  46.4561176  31.5621281  78.5343456  46.3635445  31.0227036
  77.2336674  47.1313858  31.1209655 101.8578434  39.8476458  24.0746117
 101.9340611  39.0342617  24.5734406 102.0750046  40.5356455  24.7036791
  18.5445714  64.5139456  10.7363915  19.4589567  64.7255707  10.5483890
  18.5035753  63.5591888  10.6817365  61.3361025  43.7515259  13.2741153
  61.3620424  43.4991217  12.3511565  61.8426991  43.0740499  13.7220204
  13.1782198  52.1817398  13.2958257  13.1326795  52.9527330  13.8612676
  13.6283374  52.4882841  12.5086439  27.1304393  53.3467865  42.3238325
  27.5538874  52.5597572  41.9810343  27.6279664  53.5621738  43.1126928
 115.7433033  86.9019604   8.0701756 115.0728416  87.5331879   8.3314693
 116.2856388  87.3758125   7.4396443  45.2039719  64.0994310  27.9789591
  46.0096741  64.0982103  28.4957480  45.0820971  63.1851196  27.7231860
  11.8166137  63.8130856  17.9116166  12.5284755  64.4491291  17.9818702
  11.3291264  64.0841579  17.1337295  60.9015608  14.2050827  30.8443785
  61.4564276  13.4736896  30.5734205  61.5166330  14.9095166  31.0485673
  13.1381476   3.9826915  43.2178211  12.8996742   4.8458233  43.5560036
  14.0824771   4.0356576  43.0706215  41.2799501  26.3416243  34.6021175
  40.9736156  27.0731258  35.1381207  40.6659508  26.3086152  33.8685346
  25.4201698  15.3226471  42.6510620  24.5962691  15.5219591  43.0956936
  25.4418445  15.9235048  41.9062614 106.6431522 104.9323559  37.9417133
 105.8543491 104.8102665  38.4700203 106.3457108 104.8233604  37.0384550
  80.9316349   5.3583080  86.3654232  80.6079388   4.9237400  87.1544743
  81.6702175   5.8863062  86.6686535  27.7862430  41.9351053  42.3151255
  27.9701161  41.2605190  41.6614008  26.8365502  41.9041109  42.4306917
  32.1522760  56.0338736   2.5739121  31.4950085  55.9720659   1.8807951
  32.9886246  56.0612392   2.1091491  43.1754732  27.3100352  23.0624604
  43.6383533  28.1093740  23.3135200  43.0523014  27.3915887  22.1167278
  52.3508263  36.5927911  15.9559321  51.9910717  35.9872293  15.3077781
  51.5880966  36.9001484  16.4458358   8.8172352  75.5607700   8.2954776
   9.2117679  76.3310957   8.7043476   8.1107050  75.3092957   8.8902962
  53.1138515  52.7531815  31.9356680  52.4425220  52.1226740  31.6748810
  53.6356020  52.2901583  32.5911212  32.3687530  49.4261599   8.4874940
  31.4527082  49.4521236   8.7639403  32.4854207  48.5470009   8.1273520
  11.6570008  69.3074322  21.4902496  11.4331555  70.1090002  21.0173702
  10.8193231  68.8616467  21.6159511   3.7459341  25.6584430  61.6000032
   3.1444865  26.3714290  61.3851881   3.4151468  25.3068876  62.4265718
  59.2324257  50.7125092  20.4206204  59.6866798  50.4166126  21.2095022
  58.4038448  50.2333069  20.4273772  37.2013092  46.6964197  26.3424516
  36.7696810  45.8531857  26.2050152  36.6387510  47.1544838  26.9669032
  37.2612524  21.7259383  23.4307408  36.4308095  21.6877723  22.9562521
  37.0459533  22.1609902  24.2557311 113.6734867  47.4268198  33.8116455
 114.1606998  48.1900883  34.1219378 113.8948059  46.7327642  34.4325614
  30.1080227  23.6211276  52.9740572  30.5226469  24.4157338  53.3100939
  30.7004404  23.3136296  52.2879696  64.0848207  57.8312302   4.7228423
  63.3667564  58.0914927   4.1458854  64.1560507  56.8840742   4.6042991
  22.7615285  33.1171775   2.6041204  21.8876791  33.1840110   2.9890281
  22.6022506  32.9926658   1.6685137  34.9250174  47.1338081  17.3869359
  34.8738027  48.0728197  17.2084188  35.3767228  47.0743370  18.2287538
  45.3740549  33.4387660   4.5457682  46.2288189  33.1265783   4.8426720
  44.7512817  33.0552864   5.1632887  43.5377359  17.4415493  25.2874947
  44.3802404  17.0979357  25.5847263  43.7137842  17.7815306  24.4101977
  32.0791149  34.2170024  36.7674637  31.6488624  33.9208674  35.9653282
  32.4802184  35.0529051  36.5295291  17.2875571  43.6634207  44.0815496
  17.1490240  43.5501051  43.1412315  18.2181215  43.8722992  44.1630936
  20.3244162  34.4296861  34.0686917  19.4278669  34.4924426  33.7393045
  20.5342865  35.3162122  34.3623829  46.3306379  32.5577950  20.3910208
  46.6777611  33.4452677  20.3008628  46.7873859  32.1980596  21.1514163
  30.5259418  87.1023369  93.6403942  30.5415702  87.6669407  94.4131851
  31.0195112  87.5875854  92.9792118  28.4666300  47.0445347  52.8413010
  27.8074288  46.3567877  52.9345274  28.9115119  46.8399763  52.0188236
 103.5121918  83.8553715  19.4208372 102.7186775  84.2000008  19.0112114
 104.1928291  83.9688015  18.7574363  44.0621901  43.4378719  14.9286950
  43.3673286  44.0912676  14.8482239  44.7104788  43.6957169  14.2733562
  23.5224819  30.6219840  27.7041507  23.9470577  30.2373910  26.9373012
  24.1926336  31.1848354  28.0918717  64.1114044   1.3966510  37.1420479
  64.2355585   1.2183484  36.2098336  63.1921625   1.6529293  37.2165346
  18.6068773  40.7945442  19.7024488  17.6554859  40.6941795  19.7342706
  18.9329541  39.9202371  19.4891655  44.3112230  22.7737451  23.4375858
  43.5996437  23.0336046  22.8524733  45.0517368  23.3184075  23.1707311
  29.8367047  56.3829565  18.5451460  30.5896473  55.8820295  18.8588107
  30.0676203  56.6263771  17.6486778  32.6105976  29.3216109  40.0913048
  32.7464008  30.2000141  40.4465485  33.4246922  29.1216159  39.6292615
  32.4520683  26.8155217  33.8996649  32.2093701  27.5446963  33.3290219
  33.0413437  27.2034907  34.5465565 100.6766129  35.9198308  88.8091373
  99.8651028  35.4360056  88.6555290 100.3924465  36.8200779  88.9673615
  17.6968968  52.2958326  23.8176727  18.0413711  51.4110899  23.9393425
  18.2451987  52.6738977  23.1301665  22.8570461  29.5044184  66.1621380
  23.7202740  29.0910649  66.1476994  22.5339627  29.4156575  65.2654934
 114.6834564  73.9914989  27.5813079 115.3310013  74.5492268  27.1501875
 114.9578285  73.9705658  28.4981060  62.9229164  30.3264523  24.4882607
  62.5055122  30.9847593  25.0438118  63.8544559  30.3913164  24.6986222
  34.1306329  42.3219872  11.0031831  34.3411350  42.2890520  10.0699973
  34.6637988  41.6294813  11.3935697  49.7549248  45.9653521  28.8753176
  50.5763674  45.6434345  29.2465711  49.0841007  45.6824589  29.4967699
  28.0244136  17.6302826  35.9936213  28.6003423  17.5237179  36.7507100
  28.2928228  18.4622502  35.6037259  25.1593256  50.2046824  32.9128957
  25.7655311  49.7603083  32.3202085  24.5313907  50.6364918  32.3337007
  13.0040658  15.8698308   9.2063344  12.1073544  15.8504784   8.8720191
  13.1653357  14.9769318   9.5112193  69.5423317  39.6810150  30.6949162
  69.3067074  40.2802420  31.4031792  70.4938221  39.5979047  30.7580781
  30.0620890  61.4005566   4.8308840  29.3074727  61.5435886   5.4021358
  29.8685408  60.5789042   4.3796045  15.4218626 108.7966728  44.8463631
  15.9460998 109.5888138  44.9643707  16.0588360 108.0825043  44.8678303
  10.7576621  10.6120002  17.4320304   9.8658955  10.8962917  17.2316241
  10.6859720  10.1810920  18.2837403  25.3433013  54.1261244  51.8754864
  25.3810310  53.8779306  52.7991772  26.2597656  54.2123938  51.6130304
  13.6396849  61.0760546  44.8037577  13.3198190  61.5208435  44.0188503
  13.7157428  61.7703485  45.4582834 101.8561840  46.3848925  11.8009949
 101.2447929  46.8679667  11.2450516 101.9502163  46.9290781  12.5828230
  44.5295000  32.6665640  41.4812231  44.1624546  31.8457603  41.1529064
  45.1590633  32.3968768  42.1499157  23.2536793  31.8507099  20.2702236
  22.8088188  32.6803589  20.0969815  22.5650740  31.2743545  20.6016850
   9.3309301  16.2938869  61.5608168   8.8875729  15.8345771  62.2740507
   9.5352876  15.6082761  60.9248877  30.1899838  75.4410982  20.6402516
  29.6080661  76.1795235  20.4604506  29.6013498  74.7244740  20.8773041
  58.1169033  61.3743734  10.0022042  58.9091158  60.8811951  10.2153003
  57.4100637  60.8863163  10.4245865  58.7742853  30.2688599  42.2300720
  57.9778767  30.6498575  41.8601942  58.7223434  29.3399692  42.0049238
  17.2394121  10.8085120  53.0302763  17.0881355  10.5440927  52.1228456
  16.5518105  11.4494920  53.2107782  33.0762720  28.9395881  25.0899720
  33.1796670  29.1025615  24.1524315  33.5644722  29.6469545  25.5113101
  78.9386988  90.1959133  57.1715641  79.1170359  90.2285862  56.2316895
  78.6169481  91.0718060  57.3848963  24.8180079  90.6766224  30.7776093
  25.3188610  91.4161205  31.1218691  24.1340256  90.5260944  31.4301014
  29.8033905  32.8348947  13.7110889  29.7536087  32.1948791  13.0010664
  29.2678761  33.5688877  13.4099042  31.4025021  45.9862518  14.4037890
  30.9814501  46.4252758  15.1428461  32.1403980  45.5168056  14.7928393
  37.8107929  38.8234305  52.5896502  37.8504562  39.3664002  51.8023491
  38.3819532  39.2678690  53.2161331  37.5202823  28.8664865  39.3433332
  37.8450918  29.6782351  39.7329497  37.5131655  28.2396936  40.0667381
  42.9457188  41.3074732  32.5371146  42.1044397  41.0594225  32.9204583
  43.5739470  40.6967545  32.9225850  25.3901219  48.2182550  13.2079613
  25.8066463  48.8991833  12.6796889  24.8324680  48.6978912  13.8204980
  27.3827219  54.3016958  31.0507011  27.1007633  55.1210451  30.6440115
  28.0557966  54.5650148  31.6782880  34.7570062  56.5941906  31.2674546
  35.6313276  56.7763758  30.9230709  34.1618156  56.9968081  30.6350946
  31.9945383  29.5329452  11.3258088  32.4238706  28.8895774  10.7619071
  32.6912975  29.8511147  11.8998528  19.0808511  65.9525347  25.5989432
  18.4858358  66.6636276  25.3611708  19.9477518  66.2716818  25.3482223
  45.6520081  25.9482884  37.0735431  45.2364874  25.1769543  37.4590588
  45.0100422  26.2767267  36.4440656  35.0758529  38.5065365  31.5572119
  35.8729100  38.7735534  31.0993552  35.1404500  37.5532341  31.6144347
  15.6083262  51.0573816  51.2154961  15.3123713  51.9582224  51.0846233
  16.5620553  51.1231852  51.2634850  21.7112637  18.9383531  31.8082571
  22.0015121  18.0505586  31.5989494  22.1776390  19.4958937  31.1854601
  49.2571688  50.5070829  36.3375902  48.8723564  50.9153271  37.1131468
  50.1121235  50.1927376  36.6316533  61.6758537  70.5429363  31.0320306
  61.2070942  71.2308693  30.5595446  62.4773550  70.4084826  30.5263138
  36.6409135  42.5198746  36.4081264  36.2174535  42.0627069  37.1347022
  36.0996318  43.2963800  36.2657022  88.9279175   3.5218188  91.0873032
  88.2026386   2.9031551  91.0009670  89.6149635   3.0249497  91.5315151
  58.1792688  70.9403849  27.6389742  58.2295322  71.8922901  27.5519109
  57.4215221  70.7912779  28.2044959  52.3084831  90.7183361  14.8227572
  52.0571041  90.8028698  15.7424819  51.7503309  90.0177383  14.4853270
  53.0699158  67.8008699  32.1657133  52.8830338  67.1557474  32.8477144
  52.5756741  68.5773087  32.4285746  21.2727308  65.4847431   9.5836037
  20.8106875  65.3599977   8.7546372  22.0792651  65.9401608   9.3420941
  59.0206957  56.2112522  19.1709745  59.4251347  56.9496489  19.6264172
  58.1616735  56.1173391  19.5826721  32.0218754  55.8104086  24.1729498
  31.5464878  56.6212893  24.3538189  32.1034336  55.3850889  25.0265789
  29.3320346  24.5835376  10.4653454  28.9447832  24.0876985  11.1867404
  28.9881778  24.1657162   9.6757758  56.0385275  43.0205584  26.7843270
  55.2822304  43.5131264  26.4655352  56.7241001  43.6793375  26.8949127
  49.5057869  38.0827022  35.8100176  49.8198271  37.7445650  36.6486335
  49.4427729  37.3099589  35.2486563  52.3980045  53.1836081  38.7576580
  51.6385603  53.0917978  38.1822896  53.0833006  52.6667404  38.3340478
  59.1417885  13.6247098  12.5418043  58.9762020  14.5255959  12.2639251
  58.9081717  13.0926645  11.7811584   6.7190027  25.9843612  27.1696615
   6.2459016  26.5314841  26.5427136   6.3517642  26.2230635  28.0207705
  29.3677711  48.4796762  36.8592787  28.7984657  48.8491011  36.1842608
  30.2092838  48.3544254  36.4206433  60.4496813  71.5087557  42.1390104
  59.6579790  71.0594082  42.4348545  60.9137917  70.8560801  41.6147470
  61.7436838  60.4392910  31.8150878  62.4846888  60.9160280  32.1890759
  61.8356514  59.5490789  32.1546435  47.6527834  59.0433884  24.2134690
  48.3586454  58.5008001  23.8619161  47.3475122  58.5681057  24.9862218
  10.3058541  41.7798090  25.0144553  11.1246538  41.5325451  25.4441762
   9.7690642  40.9880066  25.0481462  32.5285292   3.0187669  56.1793137
  32.9831696   2.7996144  55.3659821  32.4842811   2.1917865  56.6592884
  29.4681096  23.6327219  21.0646582  29.2024517  22.8893185  20.5233550
  28.7193823  24.2284584  21.0374904  43.1951046  67.3971748  25.4631782
  42.9568195  67.0250750  26.3122940  42.8801823  68.3003139  25.5005765
   9.8732561  56.6452789  27.0499802   9.7186589  55.7033873  27.1219039
  10.6233454  56.7205238  26.4601183  49.3396044  56.4762831  39.3151546
  48.7552166  57.2226381  39.1821671  48.7607384  55.7140255  39.3048191
 103.2497883  17.4208713  73.8921118 103.1674480  17.5358272  72.9454136
 103.1599522  18.3043456  74.2493725  31.9976115  63.8315821  32.4068499
  31.9590306  62.8863192  32.5525498  31.3205600  64.0007687  31.7517114
  55.1647520 100.6516457  84.2700005  54.6058798 100.7640362  85.0389385
  54.7416973 101.1734486  83.5881138  42.8149939  53.7458849  49.9160290
  43.4520102  53.2874680  49.3680286  43.3386993  54.1394377  50.6139421
  31.9286251  50.2944613  27.3702765  32.2680879  50.3784657  26.4792442
  31.2854528  49.5876360  27.3159051  59.3189430  63.4426737  12.1019208
  59.3350744  64.3985462  12.1496427  58.9493513  63.2521105  11.2397599
  42.9021645  65.4205656  27.4156642  43.7690020  65.0820875  27.6398373
  42.3235559  64.6610689  27.4835992  45.0426054  63.5666990  35.7744288
  45.8025551  63.5112381  36.3537669  44.4066525  62.9608774  36.1549211
  55.6769133  68.8651752  38.3432031  56.1952734  69.5663071  37.9482961
  54.7762299  69.0569639  38.0820012  53.6182642  45.6872988  32.6804566
  53.3287716  45.7406616  31.7696452  52.8428316  45.3986597  33.1617236
   6.5731561  18.6639321  26.5906882   6.2165314  18.7950838  25.7121396
   6.5673167  17.7145040  26.7122793  68.7121201 101.5715885  85.8846569
  67.8607368 101.3735867  85.4945660  68.5047293 102.0917130  86.6609955
  90.9650993  87.7960205  93.5293961  90.7690048  87.5518131  92.6248837
  91.2605286  88.7047672  93.4734535  50.0941324  49.5194578  42.3592663
  50.8983707  49.6182775  41.8496943  49.5181417  50.2114630  42.0343065
 103.6995792   9.4566196  87.2122192 103.7932777   8.5170722  87.0550537
 103.8302708   9.5559108  88.1552410  29.8307753  52.6604462  38.1919241
  29.1528535  52.3741865  37.5797868  30.0758171  51.8661261  38.6665249
  44.4418764  61.4118338  28.7455487  44.1391277  60.5075598  28.8283825
  43.7102652  61.8727016  28.3349705  76.5580368  47.1682405  21.2611485
  75.8967781  46.9539309  20.6030893  76.1478233  47.8431368  21.8019509
  51.1778116  62.0072937  23.5320807  51.7909956  61.4606190  24.0233922
  51.1986971  61.6516447  22.6436520   2.8754601  14.3245924  32.8322649
   2.6020715  13.5211527  33.2749581   3.8297078  14.2621911  32.7904415
  11.0759592  37.3096633  46.9833899  11.4373779  37.1044636  47.8456545
  10.1863110  36.9572115  47.0065308  30.6748343  12.5837421  27.7186346
  31.3363695  12.4934089  28.4045243  31.0648751  12.1624827  26.9527102
  19.2139602  83.4270000  17.8269744  18.3617663  83.0319405  17.6427782
  19.3548131  83.2682896  18.7603569  28.4040189  53.5732508  22.2779059
  29.3514514  53.6222935  22.4051785  28.1082034  52.9332304  22.9252839
  20.4464030  49.5420122   8.1947130  20.8924913  50.3399515   8.4784961
  20.5225492  48.9468813   8.9405358  53.8089275  34.7928500   9.7038293
  54.6447563  34.9848223   9.2786562  54.0506506  34.4625545  10.5691063
  48.0754280  50.0135803  13.6517465  48.7622356  50.4192305  13.1226218
  48.4939289  49.2445850  14.0387046  49.6873569  65.0177765  27.2514129
  50.6179380  65.0810766  27.4664593  49.4019604  64.2009449  27.6607561
  13.1186306  48.8501072  11.5638101  13.0423510  49.4612980  10.8311057
  13.5095894  49.3676710  12.2677362 109.6851635   2.7836883  84.9482059
 110.2520561   2.1247867  84.5473099 109.9240398   3.6020166  84.5128822
  20.1629853  63.3998823   0.3670732  20.4428315  63.5413885  -0.5373018
  20.8962107  63.7134123   0.8965185  42.9072618  49.3354607  37.4657726
  43.0120754  48.8194752  38.2651496  43.6720657  49.9108458  37.4501014
  56.5131760  56.5728521  20.3561735  55.6178856  56.8099737  20.1143742
  56.4629650  56.3686705  21.2899923  65.6109715  92.6831818  49.3402481
  64.6576548  92.6229000  49.4017506  65.8806562  91.8430328  48.9692307
  48.3502626  49.8380899  38.9885640  48.0469990  49.4969845  39.8299408
  49.2205477  49.4561052  38.8749051  64.4011164  52.8812742  36.2942886
  65.1378345  53.4915924  36.3256621  64.1523218  52.7588558  37.2104502
  58.0154514  64.1311026  15.0680590  58.8286638  64.3293762  14.6037173
  57.3314762  64.2286205  14.4055676   2.2550051  11.1584425  89.0718842
   2.5449216  10.5313730  89.7344303   3.0405298  11.3433182  88.5571003
  13.4480083  48.1376028  31.3771391  14.2688942  48.3535385  30.9347034
  13.2725823  47.2304487  31.1270833  37.2285795  42.5752163  41.2148905
  38.1030202  42.2345781  41.4034367  36.9260740  42.9335737  42.0493412
  47.4978256  61.3101435  21.2789536  47.7642441  61.4013147  22.1937990
  47.4667692  60.3648615  21.1316061  60.0116158  38.3697939  26.5954351
  59.7479820  38.1247735  27.4823928  60.5863428  37.6589823  26.3114238
  65.1006937  64.6641064   6.8451470  65.1850557  65.6098080   6.7236602
  64.3617487  64.5647097   7.4454057  59.8764324  37.0983243  19.7682238
  59.9697018  36.1460733  19.7408307  60.7580662  37.4303102  19.5986962
  25.1212430  33.4846425  32.8378916  25.4816961  33.3398747  33.7127328
  25.4709601  34.3352270  32.5724936  48.2082176  57.2725487  41.7259932
  49.1566324  57.1490383  41.6874790  47.8527212  56.5677738  41.1845589
  57.9344130  34.3841243  18.4428144  57.9027367  34.3971014  19.3994021
  58.8492203  34.5697522  18.2309234   2.6837257  56.2303829   4.2945492
   1.9573066  56.3737869   3.6879331   2.5568566  55.3367186   4.6131483
  62.7453041  25.0907636  38.5755873  62.5456715  24.3112612  38.0571699
  63.6888599  25.2129841  38.4706950  59.9465227  79.3964767  37.2076344
  60.0782776  78.5104942  36.8701243  60.8152294  79.6734476  37.4989486
  47.6633978  47.8008938  11.7247748  46.8874741  47.9959297  12.2502577
  47.3765564  47.9227066  10.8197260  66.6921282  59.2227697  23.7577796
  66.6527176  60.1540899  23.9753056  66.8000460  58.7840652  24.6016550
  50.1102686  63.9114428  33.4701872  50.7711363  64.2623329  34.0671515
  49.2757988  64.0971661  33.9007664  18.2229149  27.3029280  11.5239966
  17.6720083  28.0586338  11.7280591  17.8324580  26.5816545  12.0174932
  49.9478292  54.3729401  28.6380124  49.3003750  54.3387938  29.3421912
  50.7175303  53.9329147  28.9988041   0.2941142  76.6840315  27.4315596
   0.4123950  76.5218782  26.4956379   0.6155603  75.8880663  27.8550458
  30.6705308  20.5108809  27.7178907  29.9674344  20.2865744  27.1083212
  31.4306831  20.6704640  27.1584868  12.5632048  34.7667384  42.2228241
  12.3341668  33.8525558  42.3902893  11.8726349  35.2696323  42.6546097
   9.4321674  50.8410931  49.6116590   8.9326108  50.1379061  50.0266361
   9.7146654  51.3956213  50.3389311  75.2844715  66.7153358  39.5797157
  75.3275728  67.1193171  40.4464149  76.1920357  66.7031765  39.2757225
   1.0675434   1.7529200  87.6984024   0.8327645   1.0961363  87.0428562
   0.3466161   1.7315592  88.3277225  55.3572083  61.4830637  39.3900204
  55.2151823  62.4041843  39.6081734  54.8508453  61.3457012  38.5894203
  42.6318789   5.1528198  55.5319118  42.7766085   4.2789769  55.1690292
  42.8912163   5.0768054  56.4501667  95.3902435  86.3785267  82.4284267
  95.1637554  85.4490089  82.4589062  95.6757545  86.5260410  81.5267849
  21.5963984  39.4094491  34.2426085  20.6606650  39.3604422  34.0470791
  21.6377306  39.5000744  35.1946115  41.8613243  35.5168176  24.5704556
  41.7692137  35.7078767  25.5038595  42.7587080  35.1965761  24.4789433
  17.3178804  31.7425799  55.5535364  16.9015193  31.0730910  55.0107098
  16.7198837  31.8582058  56.2919569  58.9124680  94.1616917  89.9042892
  58.2008505  93.8508034  89.3446636  58.5070848  94.8278904  90.4593468
  75.5538368  27.2777987  28.4572625  76.0491276  26.4958715  28.7012029
  76.0020065  27.9948306  28.9058590  35.8179259  68.0116224  25.2087069
  35.2601385  67.4161243  24.7082233  36.5882063  67.4885368  25.4307008
  70.2531862  44.9137211  47.9038525  70.5050325  45.5675316  47.2516727
  70.4880667  44.0755081  47.5057745  37.9358768  55.6168175  16.3033676
  37.3709559  54.9523497  15.9089291  38.8106227  55.4154921  15.9709215
  17.8126633  38.5470891  36.8169451  18.5556436  39.1484523  36.7661762
  17.1055460  39.0007710  36.3582635  22.9992008  22.3080325  14.9619710
  23.5601163  23.0316901  15.2411234  23.5416842  21.8050504  14.3545580
  45.1933432  43.9348698   8.7990272  44.7789049  43.0801487   8.6810416
  44.5201302  44.4718361   9.2169833  73.2156515  77.1755362  89.8498535
  72.5822735  77.8821468  89.7243023  73.7617254  77.4700689  90.5787468
  23.3217072   1.4695127  73.6728144  22.4518490   1.8168986  73.4755898
  23.7820816   1.4859681  72.8337574  40.7335711  19.4525003   1.5901501
  40.7994080  18.4997547   1.6547421  40.5553532  19.7414911   2.4851111
  58.9802313  41.5085697  22.5391293  58.0902290  41.5330887  22.8905869
  59.3873692  40.7571554  22.9702330  71.5891361 101.0872078   7.9337120
  70.7984638 100.9370995   7.4155027  71.2988043 101.0071278   8.8422972
  80.0014496  67.1663189  27.1059728  80.0278091  67.6940966  27.9040885
  79.3582153  66.4823723  27.2922373  77.4094629  62.1424341  22.9643798
  78.1756210  62.2690296  22.4047279  76.8703651  61.5077114  22.4924326
  54.8565435  71.1769581  41.3102102  53.9595032  70.9213257  41.5251541
  54.9694014  72.0301247  41.7292595  55.6191111  90.7279587  43.2124186
  55.8703709  89.8866844  42.8311491  56.3864136  91.0019493  43.7148142
  30.0326633  57.0302534  30.2853513  30.6288195  56.5307808  30.8433437
  30.6039619  57.4601746  29.6489406  63.3131123  77.8100729  53.5904408
  63.6884165  77.0055008  53.9482641  63.3266973  78.4268475  54.3223095
  56.1587095  70.7204008  29.5745635  55.4239893  70.7321882  30.1879764
  56.6543007  69.9359035  29.8094940  74.1954947 101.9347572  29.4809270
  74.1687012 102.5192261  28.7233567  73.3283710 101.5299320  29.5018983
  45.9030199  64.2446327  12.9107106  46.6829920  64.3804312  13.4487009
  45.4172087  63.5549450  13.3629811  20.8991098  16.3872123  92.7169228
  20.4072928  16.3147581  91.8989372  21.5436316  17.0746374  92.5487900
  53.2496500  69.8880053  34.2307782  54.2032623  69.9232817  34.3056369
  52.9311132  70.3312445  35.0171018  36.9416451  29.7889614  18.2581854
  37.2350192  30.6977987  18.1935275  36.9113564  29.6133900  19.1986585
  55.9573650  69.7720289  11.8271542  56.5865517  70.1138973  11.1919510
  55.3318739  70.4856539  11.9525909  78.4827948  65.3361273  38.0256796
  78.2134771  65.1913977  37.1186209  78.2336903  66.2422228  38.2078147
  83.6454964  42.7976036  29.4681191  83.7526703  42.2515583  28.6892867
  83.6714935  42.1800709  30.1990175  67.7062941  52.2556114  35.0275850
  68.6272097  52.5158548  35.0070953  67.5771093  51.7677736  34.2142224
  50.3195715  74.1310310  30.0854778  50.6711960  74.8845482  30.5596137
  50.7499933  73.3748722  30.4844570  78.5380983  74.0333652  16.8897378
  78.1454754  74.8950291  17.0297873  79.4114304  74.2211294  16.5458345
  61.8265104  62.3540354  41.6085958  62.6160765  62.7378559  41.2271547
  61.5518904  62.9839087  42.2749805  80.6217575  88.1141186  35.3368163
  81.1914825  87.5133228  35.8171177  81.1962795  88.8355064  35.0803781
  58.0378771  66.2008953  29.9655247  58.4349871  66.1244631  29.0979481
  58.0556488  67.1389294  30.1552773  81.6207886  69.7527838  42.2493219
  81.2937546  69.7828293  41.3502264  82.3207569  69.1002369  42.2279024
  75.1917887 104.8636055  33.4786201  75.4742813 104.4543934  32.6607132
  74.2831802 104.5822525  33.5858703  43.4094429  40.9132862  15.7205737
  43.4608412  41.8678522  15.6716383  44.1473484  40.6063747  15.1937592
  73.7821484  72.7015781  19.9188662  73.5124826  73.0925655  20.7499146
  72.9725313  72.6320982  19.4129753  58.9595938  71.1821461  32.5305367
  58.7231588  71.5416956  33.3855534  59.9158382  71.1415243  32.5439119
  64.5069885  71.1650515  36.6136241  65.2852631  71.1727238  37.1708131
  63.9263868  70.5228901  37.0219874  49.7078037  61.9161749  31.4596295
  48.9639902  61.3455105  31.6528130  49.7041750  62.5618553  32.1662498
  19.0462124   5.2540594  80.5751610  18.8616979   5.9474450  79.9415922
  19.0923178   4.4554171  80.0495338  44.7622681  92.3620987   9.0135497
  45.7045460  92.2084332   9.0823740  44.3693113  91.4972878   9.1315275
  55.6586075  72.4228954   7.0487446  55.0508499  71.9823980   7.6427364
  56.3961267  72.6750374   7.6043737  91.4894009 105.6386566  84.0159321
  91.5605164 105.3061771  84.9107075  91.0938358 104.9192238  83.5238171
  60.8270979  64.7690201  35.3681660  60.1654196  64.1072941  35.1668429
  60.7384920  65.4167843  34.6690369  41.4485407  59.3197966  28.2878661
  41.1655903  60.2154064  28.1033373  41.7023897  59.3341446  29.2106819
  64.1118813  74.9441624  13.9861012  63.5252714  75.1639652  13.2623565
  64.0809870  73.9888573  14.0377831 111.2272930   3.4354559  28.5526466
 110.6701374   4.1325200  28.2063651 110.6131268   2.7793273  28.8820910
  45.2150393  53.6985397  24.4268990  45.5934334  53.3134174  23.6365032
  44.2721796  53.5641289  24.3310642  50.3490496  68.8673973  27.9993057
  50.7448196  68.9640570  27.1331310  50.9104633  69.3832254  28.5780692
  55.6615114  79.1992474  19.2476356  54.8700476  79.7119665  19.4117761
  56.1358690  79.6974373  18.5820365  34.6592379  16.6561151  93.0252838
  34.8085022  17.5994349  93.0893040  34.7881603  16.3321781  93.9167309
  53.7204647  53.0624056  20.3049088  53.0607986  52.6449537  20.8588076
  53.2141495  53.5355663  19.6446097  61.1861134  61.7912102  24.5017195
  61.5765715  62.6591921  24.6036243  61.9309998  61.2100363  24.3480515
  18.3938026  44.5517826  22.8396606  19.1875374  44.7997189  23.3137298
  18.6069822  43.7084436  22.4401999  57.0905685  46.2412453  31.9758320
  56.5029716  46.9871950  31.8553591  56.5450573  45.4753065  31.7969799
  72.5256491  55.8169460  36.8287992  71.7683649  56.3062763  36.5073776
  72.2388077  55.4553270  37.6673603  64.7581434  68.3324099  26.5385103
  64.8215151  68.1014109  27.4652553  65.1912785  69.1835403  26.4736629
  12.2452474   5.5630529   3.4863421  12.3571897   6.4640152   3.7896046
  11.4784896   5.5963987   2.9143262  56.0567379  55.7789850  33.5779166
  56.2185383  56.0013390  32.6610708  55.4026699  56.4153290  33.8668704
  65.0430298  70.3129435  39.2566752  64.6631813  70.6213331  40.0793791
  64.3006182  69.9564171  38.7688756  46.9426727  62.0073462  26.6646099
  47.5933266  61.8834782  27.3556542  46.2051630  61.4572620  26.9286537
  84.1621590  43.6132240  48.7650967  83.9797592  44.1198683  49.5564699
  83.3036804  43.3048916  48.4749317  67.6546478  84.7405624  39.5738983
  68.2335377  85.1728153  38.9459848  68.1758356  84.0167046  39.9212098
  79.2169333  79.8638725  22.6676679  79.3187523  80.3382874  23.4927702
  78.2752752  79.7078800  22.5957036  60.9762478  66.9636345  33.4609222
  61.5761709  67.4618626  32.9058599  60.4367876  66.4673138  32.8453946
  98.2988930  62.6374340  31.4039874  99.1404152  62.5579262  30.9548211
  98.5293102  62.7493286  32.3262787  75.2304268  97.2999191  20.0088811
  75.8194590  97.8012276  19.4449914  75.5462313  97.4698162  20.8963704
  98.5620689  89.0555668  50.1808214  98.5052109  88.1813812  49.7950745
  99.1771317  89.5260906  49.6181965  56.4953470 101.6359329  36.2009001
  55.8105373 102.2885704  36.0548377  57.0464563 102.0160484  36.8850255
 103.9813328  89.0950012  36.0363126 103.0584526  89.1123962  36.2897277
 104.4160461  89.6588707  36.6760874 104.2584896  36.5070224  84.8815060
 104.5334339  37.1950197  85.4875565 105.0131226  36.3784051  84.3068600
  90.7099342   4.0196779  75.7151031  90.2327824   3.4651366  75.0978231
  90.3805065   4.9027091  75.5478716  69.4080162  77.0594645  48.1310749
  69.0740585  77.9409313  47.9645824  69.3639469  76.6220760  47.2807884
  36.9076872  37.8303552  76.4331055  36.0370302  37.6652575  76.0712576
  36.8435669  37.5536919  77.3472023  91.1020184  87.3484135   4.2596108
  90.8693027  87.1027851   5.1550108  90.3463650  87.8433323   3.9429420
  46.7532444  22.8767657  87.5427532  47.3699760  22.1483016  87.4705219
  46.0031462  22.5100207  88.0108166  55.4149675 102.6050663  40.7324505
  56.2588358 103.0473804  40.6403828  55.4956913 101.8199921  40.1908112
  69.3068695  89.8947144  46.6779995  68.8204575  90.3466129  47.3675060
  69.0583181  88.9752197  46.7728043  72.0190334  64.0558863  19.7730899
  71.7222929  63.6998081  18.9356041  72.9543304  63.8542318  19.8011816
  69.3545151  58.9378786  18.4875202  70.1135921  58.4451294  18.7993479
  68.7780666  58.9972544  19.2493689  44.0699387  82.2083473  19.6099865
  43.9500093  81.6287994  20.3622961  43.6046791  83.0100822  19.8487031
  40.4434156  90.2071095  76.2839985  40.9355974  89.9607658  77.0671368
  39.5764112  90.4465103  76.6114521  68.8652468  79.8560190  70.4390049
  69.8081255  79.9573803  70.3088760  68.5136271  79.7329855  69.5572710
  49.7449827  94.7443199  21.7061090  50.0953054  95.6263256  21.8308592
  49.7970533  94.3411350  22.5726914  22.0948744 109.3172359  41.2916040
  21.4611077 109.4121933  42.0026255  21.6655159 108.7357330  40.6641150
  87.6882267  66.4696598  60.8727121  87.9692173  66.6391802  59.9735212
  88.2457352  65.7489729  61.1660194  54.4822502 101.9217014  29.4386506
  54.2939091 102.8285980  29.6800733  54.9089766 101.9849873  28.5841751
  74.0668821  94.1368771  81.7548180  74.7797060  94.2180157  81.1211491
  73.9753485  93.1941319  81.8929386  84.3172646 102.4711895  24.3895268
  84.4611549 102.0904636  23.5231686  83.5523129 102.0078564  24.7307181
  71.6233492  82.5869274  54.5505476  71.5688181  81.7313862  54.1247606
  71.5902138  83.2157803  53.8296652  72.7567911  83.8201427   3.4018254
  73.3563948  83.6422253   4.1264316  73.3229208  83.8839817   2.6326382
  91.8655205  70.7333183  90.8065319  92.4694252  71.3752079  91.1800480
  92.4272728  70.0107384  90.5262566  69.7678089  84.9958897  18.9866984
  70.5132627  85.5191135  18.6921358  70.1542997  84.1683769  19.2732048
 103.7021160  12.1343923  34.3665910 104.3321133  12.4059939  35.0340986
 103.9356136  11.2267148  34.1720843  79.2716694  88.2328987  63.3563423
  78.5482836  87.6061058  63.3652592  79.5427036  88.2988834  64.2719936
  33.8349915  60.7477713   3.0872643  34.5332909  61.0700512   2.5174001
  33.2180262  60.3214264   2.4924409  72.7229214  73.5409689  32.0688438
  71.8851566  73.1372976  32.2956228  73.0395126  73.0324364  31.3222528
  56.4849234  62.3136854  36.3183045  56.7009258  63.0949259  36.8274570
  55.5580139  62.1582651  36.4997339  74.5656824  93.0125713  26.9225931
  75.1142740  92.7591610  27.6649284  74.5902061  92.2556210  26.3372326
  57.4356985  72.5365305  18.4246826  58.3240843  72.4478483  18.0795205
  57.3808289  71.8777370  19.1169322 115.8939648  21.1039591  51.0159588
 115.2527237  21.7787170  50.7929230 116.0453796  21.2182069  51.9541788
  62.0817757 103.4524250  56.8186712  62.7876949 103.6587715  56.2060308
  61.5494823 102.8020573  56.3604975  48.7606907 100.6984329  37.8299069
  49.4916391 101.3156700  37.7988982  48.7947798 100.2443314  36.9879675
  92.5215054   5.0245947  48.8857174  92.2437954   5.8818114  48.5627794
  93.1434536   5.2224207  49.5859146  62.6956129 106.8210220  19.7468591
  63.2017517 107.4878788  20.2109265  63.2630062 106.0501289  19.7417557
  98.3690929  10.6385577  50.9510040  98.2658577   9.9780393  50.2659607
  97.4737072  10.8842850  51.1836767 107.1940327  54.0744352  14.0630424
 106.7129135  53.3966827  14.5378184 107.4821758  54.6840715  14.7424161
  29.1231561  50.5797338  89.2217255  29.0608215  50.8571243  90.1357269
  28.2338428  50.3103304  88.9920044  66.1652374  68.0028343  31.9784927
  67.0799398  67.7742100  31.8133235  65.8358860  67.2912645  32.5275183
  80.2948761  69.7193623   6.7902982  79.5136452  69.9029922   7.3120093
  80.6667900  68.9307833   7.1853411  65.0087166  84.8216724  38.1991291
  64.4189548  85.5746365  38.2373738  65.7678509  85.0853825  38.7191391
  48.7323904  89.4994450  30.3635550  48.9198828  90.1008034  31.0842776
  49.5769167  89.3732834  29.9310160  68.7165976  98.9149952  39.0649033
  68.8687229  99.2476940  38.1803679  68.7775612  99.6884632  39.6254945
  71.4688683  90.9906006  32.6702428  70.9367132  90.6943226  33.4086657
  70.8886909  91.5670776  32.1729541  54.6749640  85.5237770  17.8186846
  55.0077486  86.3813877  17.5541282  53.7510443  85.5379009  17.5688732
  65.0264215  94.9820232  12.5432587  65.4302979  95.3432941  11.7542076
  64.5762205  94.1928291  12.2420454  76.5773916  85.0058651  18.2562125
  77.4227715  85.2318382  17.8682613  76.8002415  84.5672321  19.0772903
  74.9692011  94.5284081  19.5273054  75.1025867  95.4757309  19.4953525
  74.1018724  94.4217014  19.9179244  91.9627190   0.4066558  42.9776096
  91.8310928   1.3472107  43.0970383  91.3398933   0.1626840  42.2929192
  83.6442375  38.4826088  13.8282847  83.2206631  38.9190650  14.5674217
  83.7355518  37.5718307  14.1082478  58.6958838  95.4335022  18.3880723
  58.2320070  96.1329460  17.9278243  58.4766865  95.5671310  19.3102050
 102.2796249   6.7563057  41.2430811 101.6022205   7.4070728  41.0590744
 102.9774857   7.2516698  41.6718531  64.2658234  68.0798054  17.4973059
  63.6567783  67.6722479  18.1130934  64.3690825  68.9751434  17.8197050
 112.1774578   1.2910092  60.7626295 112.4683952   1.5789169  61.6278982
 111.2312222   1.1785238  60.8532619  60.4405689  56.2351751  28.0223012
  59.6699810  56.6800356  27.6694226  60.6348562  56.7013502  28.8354206
  24.1207671   7.9828006  15.7611060  24.8460412   8.3778512  15.2772212
  24.4798279   7.1650392  16.1054492  77.8799868  69.7777605  27.1932268
  77.2657681  69.2514038  26.6814470  77.8241682  70.6524849  26.8085504
  31.7357016  78.1439972  20.3428531  30.8278632  77.8676319  20.4680943
  31.9178724  78.7137699  21.0901189  40.9464598  99.4837189   6.9022942
  40.8647585  99.2591572   7.8291869  41.1221313  98.6489010   6.4681816
  29.3085027  26.1756349  93.2046032  29.2070961  25.8098221  94.0833187
  28.7416601  26.9469285  93.1993771 108.5569286  62.8150511  36.8107724
 107.7742290  63.1311178  37.2621322 109.0357876  63.6100674  36.5765214
  76.3911963 102.8466988  27.0308065  76.5967178 103.2529926  27.8727818
  76.9713926 102.0868492  26.9835544  62.6171732 107.8426266  14.2609346
  62.4950171 107.9397202  15.2053308  62.1908665 107.0123768  14.0483856
  93.7182808  10.3042185  18.4045351  93.3282852  10.5818415  17.5756431
  94.2625713   9.5516503  18.1729722  76.5134096  50.3654146   1.5911326
  76.3863182  49.7544622   2.3169518  75.7232046  50.2727938   1.0589388
  98.1644917   1.5250742  41.5314293  98.7608337   2.0086865  42.1030283
  98.4685898   1.7229667  40.6456566  73.3541679  91.6717339  22.5525951
  72.6145649  91.7813873  23.1502557  72.9575396  91.6528511  21.6816401
  70.9660339  76.0765409  16.2077439  70.8571863  75.3835249  16.8589830
  71.1606884  75.6119251  15.3938186 113.4024906  90.3521633  40.6576729
 113.1367493  89.4568443  40.8674765 113.0513382  90.8804321  41.3745070
  60.1371193  87.5289917  50.6084299  60.4135323  86.6567612  50.3272629
  59.9673128  88.0008411  49.7931051 102.1236897  15.9194934  62.0210028
 101.9013023  15.0109184  61.8178558 102.1176338  16.3629639  61.1727524
  60.0518179  82.1212673  11.3007772  60.8450174  81.6207886  11.1094844
  59.9333572  82.6840591  10.5356228 100.9832573   3.4675759  13.0101919
 100.2938652   4.0707684  12.7324820 100.5672073   2.6056349  12.9963970
  64.9691200  89.7312069  33.1646371  64.6194553  90.5591965  33.4938979
  64.3215799  89.0767193  33.4265018  95.8804226  61.1402225  40.5582619
  96.0284710  61.2531233  39.6193457  94.9316025  61.2130547  40.6615829
  37.0101309  30.2490807  78.5236931  37.0159292  30.9058619  77.8273916
  36.2127185  30.4333258  79.0200996  75.7075548  60.0575161  33.6423278
  75.7529926  60.1509857  32.6907873  75.0206947  60.6679106  33.9104247
  33.0008364  45.7374239  90.9869385  33.4575319  44.8972082  91.0280991
  32.2958088  45.5961227  90.3551197  10.5360055  11.4652491  52.6274872
  10.6866741  11.1524189  53.5194874  11.4101279  11.6666484  52.2934484
  74.9823761  89.9392796  52.3237896  75.0376701  89.0321445  52.6242685
  74.0451193  90.1336193  52.3199987  68.1699371  39.9345255  58.4174824
  68.0875778  40.7083511  58.9748335  69.1071892  39.7401643  58.4144878
  45.3305340 101.4380646  52.4498892  44.4998121 101.3150215  51.9905519
  45.0822258 101.5539551  53.3670282  48.5400963  95.0061607  16.2504077
  49.1081524  94.3419838  15.8600056  48.7606955  95.8132839  15.7855153
  46.4131117  96.9926643  56.9308615  46.8665838  96.9599915  56.0885239
  47.0181274  97.4551105  57.5108051  19.5552802  24.2066979  27.0749068
  19.6002841  23.5280347  27.7484202  18.8099575  24.7497320  27.3315024
  61.3066530  98.6732864  44.6225548  62.1177578  99.1775227  44.5586491
  61.0808563  98.4668732  43.7155581 115.1403522  10.0814068   8.9109176
 114.3161774   9.6270984   9.0857625 115.8052063   9.3937218   8.9468157
  75.3247499  49.7820234  18.6352503  74.6388865  49.3657970  19.1573417
  76.0795212  49.2000151  18.7236762  76.7494774  75.2086067  52.8815651
  76.7463541  74.3309593  52.4995184  76.2494230  75.1184845  53.6927700
  69.8374891  83.5353184  48.3402920  70.4872799  84.2121410  48.1507826
  69.2343569  83.5677147  47.5977230  66.4106941   7.1179509  32.7921581
  67.2723722   7.3959988  33.1026983  65.8021069   7.7474111  33.1789804
  70.9172201 105.6143570   5.9501475  71.4286375 106.2857342   6.4017385
  70.7320213 105.9922314   5.0904143  73.4464455   4.0173826  25.4865313
  74.3380547   3.8935101  25.8119917  72.9301643   4.2090631  26.2694359
  31.3314414 107.6485252  36.0586858  31.6367888 108.3320332  36.6551876
  30.4069686 107.5339890  36.2788272  93.9407444   0.2468940  37.3770404
  94.4869232   1.0315825  37.4237800  93.4296799   0.2622495  38.1862450
  94.5061207  69.8180914  80.4581833  95.0584507  69.1621971  80.8835697
  94.5545769  70.5815697  81.0334969  82.4222469  68.9911127  15.6093097
  82.6850319  68.2705975  15.0365639  82.8260994  68.7862349  16.4526165
  80.8570957  70.5973148  35.4110789  81.3705635  69.7986841  35.2895570
  81.2789059  71.2420177  34.8430490   5.7394207  12.6231050  47.1212721
   5.8541572  11.6731739  47.0948219   5.2941328  12.7875197  47.9524899
  66.3140678  98.6678410   9.1427571  66.7129517  99.4641781   9.4934386
  66.3900995  98.7600899   8.1930506  69.6717072  80.2981949  14.5835757
  69.1377020  79.7364569  15.1452851  70.1572323  80.8541584  15.1930022
  55.3794575  99.3308640  25.9416032  55.1240778  98.6877632  26.6029882
  54.6149015  99.4033813  25.3702593  57.5243711  70.0320625  36.3432074
  58.0254984  69.2530394  36.1019158  58.1291342  70.5511999  36.8732858
  87.2988892  69.9361515  64.3309832  86.4409447  69.6540689  64.0138245
  87.8393936  69.9910355  63.5429049  97.4353790  65.6325197  25.2030230
  96.9038773  65.2266836  25.8878827  98.3166790  65.6703663  25.5746531
  75.1897335  65.4815102   9.3431139  75.3135872  65.6824017   8.4154642
  74.6641588  66.2082815   9.6774757  89.7697544  71.7383337  37.4544263
  89.6064854  70.9624624  36.9181466  90.5749798  72.1119213  37.0962763
   9.4844913  95.1226997  41.4189816   9.6867883  95.2410793  42.3470402
   9.2634124  94.1948605  41.3384962  65.8809710  95.1941204  40.2847004
  66.3284492  95.6951141  39.6027875  65.8240223  94.3063641  39.9313116
  69.5824432  75.7981777  76.3845491  69.1371393  74.9720049  76.1964560
  69.3175220  76.3805532  75.6725883  54.0314960  89.4506073  68.8346767
  53.7758017  88.5446835  69.0083122  54.8974228  89.5357323  69.2336130
  52.8661203  90.5443764  50.3128147  52.3440266  91.2550735  50.6850672
  53.2817888  90.1308537  51.0694170  26.4079452  59.4428873  85.5289459
  26.6301394  58.9423323  86.3140011  27.1001601  59.2277431  84.9038219
  39.2032051  93.3217812  34.2186356  39.7672296  93.5415840  33.4771538
  39.7996664  92.9609203  34.8745680  48.4188223  76.6133165  14.4530773
  48.2542229  77.5518179  14.3616855  47.8894949  76.2092400  13.7654972
  80.1366901  70.9169817  46.2846851  80.5616951  71.6491461  46.7313814
  79.8823929  70.3214121  46.9895744  56.6448832  98.1510735  23.4455848
  56.1345387  98.4948349  24.1788006  56.8142223  97.2382736  23.6787367
   7.5160474  34.5866132  78.8589954   6.5933287  34.4455314  78.6470556
   7.9678077  33.8358355  78.4736681  61.5498638 103.3381939  23.3335066
  60.7089376 103.7928104  23.2844973  61.6489315 102.9246998  22.4759293
  72.9705858  94.8147678  42.5222445  72.0726681  94.5383453  42.7054405
  73.0790281  95.6235218  43.0226469  71.6754818   7.0487088  38.9999533
  71.6708803   6.1029416  39.1473818  71.0556507   7.3942661  39.6423197
  60.5785513  96.4449120  60.9604454  60.3823090  96.1974144  60.0568628
  59.7220612  96.6078568  61.3555527  66.0161257  87.6943874   8.3062637
  66.3040638  88.0517483   9.1462731  65.9443903  88.4577179   7.7331871
  83.0767155  82.8452587  25.3314996  82.3721027  82.2473240  25.5809379
  82.8936672  83.6480236  25.8196521  65.7000446  81.8209648  33.7853742
  65.3850508  81.9260120  32.8876114  65.5037355  80.9097481  34.0030074
  13.5816479  28.5838556  43.8787413  13.2530010  28.5064006  44.7744131
  14.1889083  27.8502774  43.7821579  65.4328632  93.7322044  30.2500653
  65.5056381  93.5990620  31.1951613  64.8254967  93.0522728  29.9584675
  76.1179543  87.2954464  82.3683357  75.2248192  87.5878334  82.5501347
  76.0747385  86.3411903  82.4296665  53.8543558  84.7278500  28.4742618
  53.3693981  85.5494308  28.3964324  53.2045937  84.0482616  28.2948065
 111.0641193  74.6249914  55.4857349 111.0911846  75.5369520  55.1962042
 111.7024136  74.1781378  54.9297285  81.7734528  62.0864153  18.2259750
  81.0038757  62.5929117  17.9662907  81.6476440  61.2315035  17.8142345
  55.5742073  62.7012873  20.1464176  55.0438309  62.2588921  19.4836771
  56.1092901  63.3209467  19.6504962  51.3943100 100.2359295  33.5422635
  51.3633490  99.3600273  33.1574631  52.0719576 100.6926823  33.0438590
  64.1323948  47.4824047  28.7016463  64.1737366  47.7423525  27.7813482
  63.2482433  47.7225161  28.9788699 101.4423847  94.9388027   7.8866267
 100.7408905  95.4196072   8.3258998 101.2470150  95.0290585   6.9539338
  75.6823969  76.3809061   9.3304020  76.0184288  76.1569262   8.4625608
  76.3029432  77.0267057   9.6681815  69.2983580  93.3333778  76.8429899
  68.9872789  94.1200542  76.3951111  70.2476072  93.3476925  76.7207050
  62.7097273  71.2475395   7.7541208  61.8200731  70.9201765   7.6215291
  62.8540134  71.8509722   7.0252299  80.4068089  35.3889561  15.9360588
  79.7956085  35.6323528  16.6313457  80.3526878  36.1083245  15.3069234
  30.7232189  22.5226283  82.4748135  30.9654641  21.8282986  81.8620682
  31.5586019  22.8942490  82.7581310  79.1686773  65.9969664  51.0074711
  79.0509415  66.2439346  51.9247389  78.3546734  65.5512285  50.7730627
  68.0827570  68.1676769   3.1086150  67.7705288  68.7771034   3.7774536
  68.2306004  67.3485327   3.5812396  65.1049280  61.7699432   8.6484975
  65.5203104  61.2098837   7.9927403  65.7858372  61.9151831   9.3053812
  60.3651905  86.0503578  39.0660572  59.6456003  86.6691971  38.9417458
  59.9341440  85.2109718  39.2268610  13.0115879  45.7031250  94.4146633
  13.7389922  46.2585545  94.6950531  13.2404375  45.4407597  93.5230255
  86.0729694  77.4232817  53.8260984  85.1289463  77.2816753  53.8968134
  86.4267349  76.5658474  53.5897017  81.6171360  83.4669971  34.7301722
  81.8107700  83.9093781  35.5566359  80.7927418  83.0081272  34.8915410
  76.0203075 108.9180756  37.0045710  75.2741861 109.5051575  37.1264839
  75.6442690 108.0392647  37.0546508  50.7627249  81.6748142   4.2485431
  50.9731770  81.9908619   3.3698753  51.5595007  81.2323761   4.5411643
  63.6832523  74.7447300  26.0138798  63.9098310  74.9347639  25.1035047
  64.5179796  74.7806644  26.4809632  72.2726631  67.1061802  61.8191147
  71.3932610  67.0300865  62.1893740  72.1291065  67.3986530  60.9190702
  81.6540718  69.6781397  20.7797456  80.8414078  69.4721746  20.3178048
  82.1878815  70.1380777  20.1318741 104.6673584  23.6721635  43.2198334
 105.4493046  23.6230516  42.6699495 104.0578365  24.2164779  42.7213907
  96.4351940  86.1616898  38.0305147  96.2211609  87.0373440  37.7085590
  96.6088581  85.6514740  37.2394705  93.0006313  96.6628265  15.3415895
  93.5212994  96.0556602  14.8157752  93.3953381  97.5195885  15.1791155
  56.5476894  89.2437744  66.7272425  56.7867661  88.7784863  67.5288534
  56.0821581  90.0225830  67.0321369  54.2965508  58.4101152  10.9102952
  54.4579935  59.3464231  10.7941616  55.1651382  58.0101728  10.8674347
  78.9043331   0.2587926  57.6583529  78.5856152  -0.6151306  57.8839827
  79.0243292   0.6951319  58.5018206  72.8305769  96.8475819  65.5990028
  72.0425653  96.5395355  66.0466433  73.2693672  96.0478497  65.3089619
  55.7227898  72.9177952  33.4602356  55.4108763  72.0154428  33.5287404
  56.3208294  72.9084063  32.7129102  79.2996264  84.2051697  47.6929092
  78.8163185  85.0181961  47.5458336  79.9104691  84.1533184  46.9577789
  99.1068459  16.5613806  38.8983750  98.6511421  15.8260953  38.4885979
  99.9659538  16.5758348  38.4765148   1.7210302  25.2185440   3.3931091
   0.8242794  24.9196148   3.2424077   1.6230457  26.0211635   3.9053932
  71.6177225 106.5684605   2.3944552  72.2042418 106.7887402   1.6707827
  72.0194674 106.9770050   3.1612188  38.4876108  88.5151100  18.0123508
  38.4339023  89.0770149  17.2392976  38.1254387  89.0471935  18.7208331
  99.8402119  94.5090199  32.0007348 100.3041267  94.8907661  31.2555599
  99.1440105  95.1361752  32.1962500  19.0064359   1.1930199  26.4425135
  18.7680352   0.5241525  27.0843959  19.7939670   1.6007760  26.8027377
 110.6260395   2.4737656  58.2862234 110.2295780   2.1108338  59.0782642
 110.7435608   1.7187941  57.7096510  20.3077316   5.9692568  44.4683313
  20.1058054   5.8168298  43.5451698  20.8929658   6.7266929  44.4635963
  85.2170372  99.5411682  51.5725946  85.1922131  99.2633438  50.6569338
  85.5275059 100.4460335  51.5400028 108.2642937  88.7582779  41.7677021
 108.6998081  89.5770836  42.0045757 107.6710987  88.5825062  42.4980783
  72.9635286 107.2137070  13.9639914  73.6899376 107.0624161  14.5687008
  73.1897402 106.7044449  13.1857181  70.3904343  36.2461782  39.0147996
  70.5615282  37.1520376  39.2724395  69.5502043  36.0359001  39.4222617
  85.1775074 104.8370743  25.4590106  85.0961781 104.7258663  26.4062452
  84.9212742 103.9894772  25.0954723  39.2736077   8.3934891  40.5079317
  40.1962709   8.6284727  40.6064415  38.8930941   8.5495710  41.3722706
  74.4497919  95.0190544  40.1887989  75.1670074  95.4883289  40.6149673
  73.9422369  94.6498966  40.9115314 107.4833202  94.8102474  47.3954964
 106.9580173  94.5961094  46.6245031 107.5535679  93.9844131  47.8743553
  70.4576540  81.1690998  46.8773174  70.0557804  81.5621471  46.1025620
  70.6084299  80.2562523  46.6319227  73.1473160  10.1812840  12.4018335
  72.6869011  10.6405103  13.1042314  73.8952827   9.7697675  12.8347683
  94.8913002  20.1443505  25.9717655  93.9363194  20.1935720  26.0143542
  95.0745487  19.2304897  25.7537937  92.0512104 100.2159882  24.3954754
  92.5578880 100.1013088  25.1994371  92.1519947 101.1429214  24.1790128
   4.1554752  80.3779793  50.8273411   4.7233704  80.3087997  51.5947676
   3.6607119  81.1853218  50.9675074 100.2008438  97.2976017   9.2955291
  99.7569847  98.0503273   8.9048451 100.7109451  97.6677418  10.0159633
  57.7779484  85.4664516  19.4634438  57.1516180  85.4164219  18.7413347
  57.2468042  85.3431988  20.2501631  13.6675560  15.4599273  51.3928318
  13.5759294  16.2748289  51.8865633  14.5100474  15.5438697  50.9462929
 104.0474319 101.1392021  15.5662787 104.5201874 101.6668701  16.2099373
 103.5167313 101.7714024  15.0816035  74.8170280  98.9514160  43.0622292
  74.4655609  99.8392391  42.9952860  75.7577085  99.0547466  42.9184628
  92.0034504  95.5397701  36.7256308  92.5999737  95.4670334  37.4706817
  92.5189304  95.9770107  36.0478878  98.6599350  13.2755339  22.7611351
  99.1536522  12.8396165  23.4557223  99.1595936  13.0977058  21.9642997
  59.3438053  97.2445488  68.0730200  58.7912226  98.0261326  68.0764294
  60.1596451  97.5262165  68.4869051   5.2691853  22.9223895  72.5037956
   5.3098691  22.9377627  73.4600067   6.1674035  23.0973029  72.2230053
  58.3888054  81.4540577  83.0107307  58.2979965  81.3305855  82.0658875
  59.2996359  81.7228031  83.1307220 107.6786137  10.3799355  40.8384371
 108.4576321  10.1964355  40.3133774 106.9700718   9.9256080  40.3826046
  93.4004593  87.5233459  25.2822590  93.0247307  87.9009533  26.0775447
  92.6725101  87.5000095  24.6611500  65.2642298 103.4969616  46.6414881
  65.0156355 104.0030193  47.4150133  65.0120401 104.0501499  45.9021521
 112.6365662  38.0500245  21.0808825 112.1950150  38.8476157  21.3726139
 112.1023941  37.3380589  21.4330101  97.1952152 103.5451984  24.1601658
  96.7151928 104.1448879  24.7312951  97.6937485 102.9905128  24.7601795
   2.7617863  17.5188732  45.7134628   2.5265574  16.6591609  46.0624504
   3.1151780  17.9941130  46.4654589  83.5711765 102.0496082  31.1295819
  83.9653111 101.3534737  31.6552162  84.0732861 102.0478821  30.3146482
  85.0083637  90.8195114  41.5035248  84.3951797  91.5306187  41.6894388
  84.4853306  90.0228119  41.5926552  77.9934025  75.4452610  24.3787742
  78.4855604  74.6693659  24.1104412  78.6576319  76.1269760  24.4802475
  84.6243477  88.1662369  18.0858147  83.9664745  87.5221062  17.8240573
  84.6607208  88.7823391  17.3541486 100.1000786  96.2682915  37.6950908
  99.9077034  97.0320606  38.2390499  99.2404366  95.9190845  37.4599242
   1.1114600  74.6569443   0.0429712   1.5427686  74.8714066   0.8701412
   1.2658839  75.4208374  -0.5127703  15.6638432  32.7723861  87.7219677
  14.7853374  33.0276823  87.4403954  15.7761502  33.1981945  88.5718536
  54.0170240  99.7226524  59.3577099  53.8793850 100.6593513  59.2166948
  53.3331680  99.2992878  58.8387346 114.9974442   9.9440789  14.6824026
 115.2558899   9.0334404  14.8244381 115.2893162  10.4016519  15.4708624
  59.4061852 108.5831738  10.0745583  59.3375111 109.3068218   9.4517744
  58.5650873 108.5797787  10.5314779  92.9423618 104.7095013  61.3220453
  93.3145046 105.1008987  60.5317545  92.5651550 105.4479408  61.8002319
   7.5982088  94.9741554  52.7148104   7.9507834  95.5136585  53.4225225
   8.0275130  94.1256046  52.8238630  90.8081627  83.2297421  55.3826237
  90.3725433  82.3876381  55.2510023  91.6071987  83.0135155  55.8632755
  34.6105838  64.4672918  83.0525780  35.0656486  63.7602997  82.5950813
  34.5209861  65.1584721  82.3964787  36.9361734 101.2352467  48.6425114
  37.4558330 101.9678116  48.3115530  37.5171804 100.7882023  49.2579937
  78.8201618 104.0437317  23.6987042  79.0088797 104.0307808  24.6370268
  77.9375935 104.4090939  23.6369252  70.2071285  74.0214968  20.0012565
  70.3689003  74.9431324  19.7996438  70.1818085  73.9863634  20.9574771
  79.7665310   0.7495627   7.6525897  80.2514648   0.5123775   8.4430385
  80.3870678   0.6045686   6.9383454  48.4083223  99.2899704  67.3145103
  47.9492807  98.4520531  67.3728132  48.5724926  99.5369720  68.2246017
  77.9748392  86.8719864  28.2813740  77.4009657  87.2293568  28.9590144
  78.5194921  87.6122856  28.0138946  63.3905840  82.9810810  46.3635206
  64.2136574  82.6632690  45.9923363  63.2211208  82.3987103  47.1040344
 105.8325005  90.6149101  22.2293758 106.1504269  90.7117176  21.3317180
 106.3850880  89.9304199  22.6066709 115.7004929   0.9535003  43.8348961
 116.0723209   1.5698110  44.4658804 115.4699993   0.1854448  44.3575764
  58.9767790  59.2729855  89.4387054  59.6060848  59.9726248  89.2634392
  59.1209507  58.6395264  88.7357235  83.8939381  26.9849324  33.4562230
  83.2078743  27.0903683  32.7971053  84.5213890  26.3837743  33.0547905
  95.1432323 107.5861835  11.2198079  95.6527424 106.8847179  11.6254902
  94.2445374 107.2567177  11.2137151  60.6154680  86.8343353  18.6470246
  60.5806255  86.0117722  18.1587636  60.2650023  86.6153908  19.5104313
  87.5634384 103.3282185  40.6920385  87.0277309 103.9539242  40.2044487
  88.1831741 103.8716507  41.1786985 113.8960171  44.3341875  73.6180782
 113.3970928  45.0292158  73.1888485 114.4825363  44.0048122  72.9370975
  67.0757914 109.0333453  57.3820639  66.2356330 109.0945016  56.9274998
  66.8754817 109.2678858  58.2882071  61.6852808  96.2856960  25.4212403
  61.7717552  97.1456623  25.0098944  62.3906660  95.7646656  25.0375891
  62.1880913  76.4304638  12.7450728  62.7819061  76.8137693  13.3905911
  61.8399334  77.1813774  12.2642970  96.8859768  18.7451303  12.7591527
  95.9992599  18.9648104  13.0450070  96.9036579  18.9800990  11.8314099
  81.5365696 105.2114201  14.1385567  81.9857025 104.4826508  14.5668054
  81.7857075 105.1381588  13.2172549  79.2001009  92.4364758  43.2877302
  78.6363459  93.1332397  42.9516935  79.3323421  92.6588821  44.2092943
 113.9431095   6.3235229  40.4650593 114.8274899   6.6217500  40.6775475
 114.0352535   5.3810716  40.3253269  78.1064272   1.5074153  52.6271343
  77.5643682   1.9069162  51.9468355  78.0082130   0.5653185  52.4891520
 102.1342087 102.6633739  14.1802514 101.7390442 101.8040943  14.3275857
 101.6827583 103.2429981  14.7938144 100.6195927  85.6345367  13.6768222
 101.3994026  85.6047440  14.2311203 100.0176334  85.0066185  14.0763235
  73.7105608  79.8881626  39.0485191  73.3262205  79.6474648  39.8914766
  74.4066906  79.2458248  38.9105296  77.9803324  13.4100914  10.0587118
  77.7102900  12.9818022  10.8710408  78.1153774  12.6905811   9.4420272
   0.7274394  11.6761672  43.5077858   0.4158408  10.9144413  43.9965725
   0.0581431  12.3446918  43.6539030 106.9258785   9.5376474  43.9435053
 107.3508453  10.3780711  43.7722683 106.6068172   9.6094847  44.8431015
  76.4518356  92.6891708  68.4539223  76.4427233  92.4748802  67.5210619
  75.6013346  92.3910999  68.7764597  87.7789211 104.1004372  45.5188751
  86.8303776 104.1115379  45.6468391  88.0078411 103.1711292  45.5047321
  88.3890724  88.3071804  46.0430908  88.4044361  87.6868534  46.7719173
  88.9601707  89.0218449  46.3247633  23.3614922  13.7217593  33.7098646
  23.6486459  14.5906079  33.9907169  24.0483165  13.4236705  33.1135035
  93.2336235 104.2807484  66.0952759  93.4548187 103.3849049  66.3497734
  92.2811413 104.3252754  66.1790323  76.7112112  97.2934914  48.4658432
  76.1157513  97.9293060  48.0691004  76.1806870  96.5043068  48.5752106
  56.2173510 108.2617092  71.5841579  56.5149212 107.6832581  72.2863483
  55.6179237 108.8716507  72.0141459  16.0584700   7.1590632  36.7617750
  16.2591410   6.8935448  35.8642983  15.8435345   8.0893499  36.6939402
  70.9488630 100.9603977  42.2563171  71.8649292 101.2260342  42.3368740
  70.9805632 100.0054550  42.1987820  71.4453793  81.2878799  49.2430735
  71.4234400  82.2280121  49.4216967  71.0373259  81.1981201  48.3818722
  66.3413143 102.1348476  38.0313468  66.3713074 102.8098297  38.7093782
  65.8391142 101.4216137  38.4254599  80.4787445  92.8965092  39.7401214
  81.2511730  93.1370926  40.2516985  79.8296261  93.5655785  39.9574327
  62.7163601  94.3436909  51.3348913  63.5252428  94.0903568  51.7795944
  62.3984671  95.0998020  51.8283224  98.2958317  93.6977005  15.5912435
  98.0916882  93.3945942  16.4759362  99.2484093  93.6281395  15.5280817
   5.1557815  11.2657917  40.8068943   5.1032317  10.3186989  40.9352922
   6.0803485  11.4746416  40.9402704  58.0234098  93.0427456  68.3572578
  58.6226797  93.0951691  69.1018105  57.4323750  93.7867737  68.4726572
  65.7490730  95.6803799  49.0319347  65.1369715  95.5534649  48.3070564
  66.1675072  94.8268509  49.1443253  94.3969727   3.8423032  43.0073261
  95.1102734   4.2648911  42.5289345  94.3830109   4.2843595  43.8562202
  52.7910185  95.4531097  52.3941517  53.1194544  95.3636742  51.4995193
  51.8930483  95.1241112  52.3536396  68.7219858  81.3217163  22.0819712
  69.2814445  80.7835388  22.6419783  68.8615417  80.9755802  21.2005258
  20.0272822  26.8888378  45.7387590  20.6150746  27.5411558  46.1198282
  19.2061055  26.9970536  46.2185383  71.0285616  87.4312973  64.4222355
  71.0818148  87.7561378  65.3210545  70.4128647  86.6998291  64.4680023
 108.1896210  82.7478027  26.1008883 107.9236698  82.1821594  26.8258357
 107.4968529  82.6429939  25.4487228  99.1876602 106.5487289  26.4535975
  99.3671036 105.6920338  26.8410325  98.5828590 106.9668388  27.0664811
  85.5881882  69.4820642  34.3288589  85.6613350  68.5397530  34.4802976
  84.7307205  69.5927906  33.9181113  81.0074711 104.9753189  41.4055204
  81.0313225 104.9888706  42.3623228  81.6937828 105.5875111  41.1401272
  42.4939919  40.5144405  88.6483097  41.8164206  39.8462963  88.5448265
  43.1763077  40.0856256  89.1648293  66.5859127  77.6744938  39.7685623
  67.4806786  77.9949331  39.6547699  66.4745522  77.6067352  40.7168436
  56.1409760 104.6007061  52.7593946  55.5163956 103.8767147  52.8037453
  55.5981493 105.3880978  52.7991581 115.1951694   0.4528136  25.7051873
 115.3979492   0.0723051  24.8505950 115.6392097   1.3007793  25.7012582
  48.4104109  53.0981350  93.0065346  48.3315039  53.9337683  93.4666634
  49.3109751  53.0873442  92.6823330 104.4865131  94.7128201  11.7530572
 105.3052521  94.3256378  11.4432180 104.4134998  95.5364418  11.2708163
  83.5112381  68.9179945  61.7727184  83.6902142  69.3381214  60.9314680
  83.1144238  69.6074200  62.3051262 107.9370308  34.0824199  33.7303281
 107.3319721  33.4065437  34.0358210 108.2382488  34.5134759  34.5301342
  27.0576882  23.7287521  52.6044083  27.8889489  23.2676244  52.7166653
  27.2977471  24.6552539  52.5903511   0.2174194  21.6640592  46.7920923
   0.5161063  21.5345168  45.8919621   0.9942023  21.9696188  47.2605705
  60.9729052  99.0233517  19.5009637  60.7309437  99.8955154  19.8124456
  61.0177612  99.1129017  18.5490179  92.2962666  16.1796057  13.6751473
  93.1974506  16.3769531  13.4198892  91.9065475  15.7871091  12.8939342
  54.8905420  88.7065220  21.6912675  54.4377136  88.4164238  22.4831152
  55.8202887  88.6189747  21.9013524   7.8326225  21.9985747  15.2164865
   8.1853801  22.5792074  15.8907700   8.3262634  21.1848998  15.3188908
  41.2306356 103.3161545   4.6790084  40.3095818 103.4946346   4.4891742
  41.4202738 103.8389397   5.4580939  69.7035360  86.4995193  31.8537641
  69.7491360  85.5924034  32.1559048  70.4439068  86.5896416  31.2537909
  68.1645107 105.1491642  28.9568830  67.9878855 105.1185989  29.8971486
  68.3892536 106.0635948  28.7850022   2.3063180  29.5479250  16.6605771
   2.8612936  30.1963115  16.2271821   1.7327388  29.2217731  15.9671330
 101.6897488  92.4619389  35.7883453 102.3328590  92.4091053  36.4953423
 100.8424664  92.4407005  36.2332010  72.5839663  91.4171219  52.6830626
  72.5421906  90.6297684  53.2257938  72.7104044  92.1317863  53.3071613
  91.2746811  99.0460205  22.2590137  90.7606411  98.3797836  22.7152300
  91.6850376  99.5531654  22.9594660  52.1976471 104.2285538  40.4238367
  52.5648069 103.6414528  39.7629690  52.6612663 104.0016079  41.2299299
  82.6617241 103.4868050  56.0132217  82.9393482 103.2511616  55.1279926
  81.7060661 103.5126400  55.9656239  74.9700642  17.6312852  35.2902555
  75.8961105  17.4177229  35.1759791  74.5680332  17.4111640  34.4499278
  62.8000927 104.7317886  50.6894922  62.8861237 104.7417068  51.6427660
  61.9234228 105.0788689  50.5245066  92.6291466  63.6529112  47.4853086
  93.3433342  63.0203629  47.5631285  91.8983078  63.1465578  47.1307564
  72.7012825 107.8734684  66.1621714  73.2678175 107.1803665  66.5011072
  73.0180311 108.0279541  65.2722073  35.3078675  53.9264107  84.2350388
  34.5958304  54.0907907  84.8532677  35.1161170  53.0611277  83.8734341
  55.8467388  35.3558493  87.9660511  56.2309885  36.0636663  88.4833336
  54.9233198  35.3491068  88.2180119  59.7070885  83.4893036  24.5923448
  60.2422571  82.7010632  24.5001745  58.8096952  83.1872940  24.4519615
  36.0703230  26.4053702  64.7501564  36.6479921  27.0397902  65.1744699
  35.2848673  26.3933921  65.2971029  73.4132385  99.4961166  54.1313982
  73.6236382  98.8803864  54.8334169  72.9523373 100.2111816  54.5701361
  65.4627037  65.1623917  28.9495850  66.3950300  65.0379372  29.1270757
  65.3277302  64.7659016  28.0888820  95.1368618  98.6261272   4.8048455
  94.2963409  98.8974953   5.1737827  94.9117279  97.9438114   4.1723940
  65.0948906 107.2503948  42.0386457  65.7553005 106.8253613  42.5858545
  65.5704403 107.5148392  41.2511492  42.7325153  86.7376328  19.4152844
  41.9026470  86.4233208  19.7741163  43.3422852  86.6982269  20.1520753
  65.9189749  83.5066509  42.2510529  65.2024746  83.8839340  41.7406511
  66.0378647  82.6300812  41.8853807 112.4944878   4.0935367  71.1028624
 111.9598675   4.4696382  70.4036045 111.9452572   4.1561347  71.8843126
  88.6254501  99.0287113  55.1162386  89.2884636  98.6205292  54.5594311
  88.4930992  98.4034061  55.8287764  12.8266859  53.7505627  94.7775936
  12.2929657  53.1112766  94.3056965  13.7282419  53.4634352  94.6327305
 102.7652550  22.1307182  29.7892356 102.5697041  21.2863278  29.3830371
 102.2270775  22.7586937  29.3073177  40.5101109   2.1059023  39.1383529
  41.2694359   2.2956289  39.6894073  39.8111320   1.8960553  39.7577262
  20.4043746  70.0479841   3.6637229  21.0570908  70.2999735   3.0105031
  19.5632958  70.2280045   3.2437095 107.1906376   6.4727002  80.5157757
 108.1067562   6.3274151  80.7521057 107.0144558   7.3747480  80.7831764
  66.3760090  83.6326885  51.3252258  66.4869356  84.0965366  52.1551514
  67.2493887  83.3002472  51.1180496  43.3835363  74.6665525  89.2514896
  43.2029343  74.7986746  90.1821613  44.3129873  74.8744678  89.1559887
   0.2754819  12.4581730  32.2405696   0.0617022  11.8812275  32.9738235
   0.2216218  11.8945813  31.4687562  87.8661919  27.7953887  56.1334658
  87.7067566  26.9850016  56.6172838  87.9720116  28.4624314  56.8117666
  45.1848698 102.5280476  32.4693537  44.4200087 103.0756950  32.6462841
  44.8190498 101.6875458  32.1937490  60.0788021 108.3913898  44.5405245
  60.0399446 108.0295467  43.6552048  59.3444347 109.0039825  44.5813370
  98.5317135  75.3238773  39.1588306  98.8639069  76.0171270  38.5884929
  99.1005898  74.5747519  38.9815807 104.7948551  70.5307531  28.6468291
 104.8916626  69.5828724  28.7384009 105.6911278  70.8661604  28.6675739
 107.3814678   5.7638639   5.1695466 107.3990345   5.1189351   4.4624466
 107.1246815   6.5809476   4.7421521  95.5355644  76.0875893  37.5837779
  96.2266254  76.2963533  36.9552135  95.6091595  76.7662096  38.2548118
  75.5215216  30.6698108  35.6728458  76.4511538  30.8749390  35.5731297
  75.1353693  30.8901119  34.8251510   3.1910402  72.0329666  11.1599338
   3.8073656  71.5606308  10.6002235   3.0794838  71.4673328  11.9240320
  35.4907179  24.4539690  78.7575436  35.0507975  23.6424732  78.5042048
  35.9921861  24.2207360  79.5387983   5.7403088   2.9670939  52.8754282
   5.1267451   2.7997372  53.5908031   6.5925449   3.0452114  53.3041716
  12.9056394  43.5266447  88.3051777  13.5282731  43.1269884  88.9124966
  13.2912266  44.3762875  88.0914879  57.3766279  99.1641045  67.6386356
  56.7788696  98.6971283  67.0548153  56.8110752  99.5262718  68.3207035
  86.8613625  72.1859312  48.0239868  86.8831635  71.5538836  47.3054600
  86.2896347  71.7848063  48.6785555  79.4765520  95.6433868  37.4553180
  80.3538799  95.2668953  37.5244427  79.1314363  95.2970314  36.6324162
 104.9300194  88.1759357  28.0820632 104.1645908  88.7261009  27.9157114
 104.9398327  88.0601692  29.0321851  80.8141613  95.2195835  59.5289516
  80.3455925  95.9733200  59.1703987  80.7696819  94.5589542  58.8377142
  43.3085585  11.9608080  42.9926062  43.5363102  12.3708653  43.8269997
  43.9676428  12.2848010  42.3787117  95.5286503  83.9609432  31.9147468
  95.8767128  83.7319851  31.0529685  94.5782948  83.9409351  31.8022609
  73.0011606  96.9979572  44.1740561  73.4053564  96.5049267  44.8880434
  73.5832214  97.7459145  44.0399313   9.1844386   0.7963187  51.3596344
   8.4016514   0.2979012  51.5942764   9.3061543   1.4072667  52.0863819
   1.8562560   5.5785400  30.4796410   1.6998672   4.6342462  30.4887509
   1.0001630   5.9648877  30.6642294 103.9786053   4.6672863  37.3593998
 103.3423042   4.5181406  38.0587626 104.3767929   3.8095897  37.2109556
  86.2067604  89.2825985  73.1836796  86.8339157  88.6181355  72.8983688
  85.8681870  89.6572304  72.3705101  18.5065031  11.9016600  86.6705418
  18.9292800  12.1167755  87.5019360  19.2245197  11.6248226  86.1012936
  98.6532974  12.7685332  33.8329673  99.5070076  12.9019833  34.2447925
  98.4954643  11.8274522  33.9083982  36.0838485  97.7458286  29.9446821
  35.4336166  98.1619167  29.3787313  36.3486242  98.4358978  30.5529046
 101.9332504  40.3718185   7.1353644 102.7986050  40.7750559   7.2045910
 101.4268303  40.7683706   7.8442419 106.8162537  39.5142961  34.7256660
 106.7694950  39.8404169  35.6243825 107.3415852  38.7165141  34.7873950
  71.7856216  29.9266744  48.0015278  72.2954559  29.4348931  47.3577452
  71.8078518  29.3840528  48.7897539 104.7750092  10.1677990  13.2480383
 104.5240593  10.8746874  12.6534247 104.1479874   9.4678217  13.0660784
  34.3334031 101.6922379  48.1592417  35.2252865 101.6858673  48.5067129
  34.3516946 101.0598755  47.4408960 113.2337093  84.2152405  36.8882823
 113.4676361  84.8240566  36.1876702 112.5109482  84.6438694  37.3466611
  17.1165657  11.5082157  21.5349412  17.6593304  10.7378078  21.3672805
  17.1852899  12.0284367  20.7343912  65.8606815  94.3819714  65.8366966
  65.1213789  94.6784019  65.3058529  65.5514860  94.4544792  66.7396736
  54.4070911  83.4268570  56.8634701  54.5561123  82.6757050  56.2891865
  53.9397907  83.0640507  57.6159573  98.7189674  88.4437370  27.8404355
  98.0129910  88.7413883  27.2666454  98.9861107  87.6007652  27.4740124
  50.7574797 105.2969551  13.2255745  49.9483633 104.7988510  13.1095493
  51.4005089 104.6467972  13.5084760  24.9300122  35.2986097  25.1994276
  24.3782020  35.6650925  25.8903885  24.3160176  35.0539422  24.5070553
  83.9010715  83.6169243  44.8103333  83.6669254  84.4953632  45.1099253
  84.8564053  83.6304855  44.7520065  95.1027489  87.0697212   8.1530011
  94.6094418  86.2599087   8.2836992  95.3829002  87.3240662   9.0322375
   2.6603001   2.8312632  70.1798344   3.1741962   3.0118397  69.3927288
   2.3662415   3.6924481  70.4766893  96.1967468  81.5828514   4.9247283
  96.2242222  80.8036041   4.3695265  96.3206577  82.3132706   4.3186197
  81.4546680  92.2034740  37.3727703  81.4521027  91.2496090  37.4524951
  80.9033012  92.5056267  38.0945277  22.2358251  13.1176376   7.9505134
  21.4515519  13.2648349   7.4218512  21.9094539  12.7195406   8.7575036
 115.2964687  48.9711332  39.1724420 115.7316685  48.2004786  39.5370317
 115.7259274  49.1119576  38.3286619 112.6731682  22.2111845  21.0178041
 112.2191906  21.4016056  21.2517142 113.3274746  22.3265457  21.7068648
  40.1608324 101.8684959  34.4863033  39.6791887 101.8008137  35.3107238
  39.7330475 101.2383080  33.9065599  61.1634636 108.1899261   5.7093328
  61.3812637 107.2719574   5.8709604  62.0105743 108.6339855   5.6714171
  45.1516581  79.4820547   4.2152658  45.4664803  78.5782003   4.2024419
  44.3461132  79.4624519   3.6985919   5.8087331  87.7314091  81.8546581
   6.0108852  86.9282055  82.3344898   5.5083174  88.3428955  82.5270176
 113.4268856  35.1040506  43.0556393 113.6777973  34.5759749  43.8135386
 113.4809589  36.0081911  43.3652115  86.1657429  80.0089741  43.9303780
  86.4407635  80.9149933  44.0708208  86.2844944  79.5879173  44.7817516
  40.9497929  86.7173672  48.6562157  41.8810511  86.5014935  48.6073351
  40.7946348  86.9002056  49.5828915  99.4429779   6.8942302  30.3448963
  98.6058807   7.1365476  30.7408524  99.7851086   6.2032270  30.9120750
   1.7162640  32.3039007  55.1401138   1.1326997  32.2535563  54.3830442
   1.2894635  31.7668056  55.8076429 113.7818432 105.2461243  36.8441987
 113.9066505 105.5930710  37.7275324 113.8627338 106.0100651  36.2731695
  90.2625179  24.0589905  56.5657997  89.8405266  24.3730450  57.3654985
  89.5362949  23.8266706  55.9871292 109.5196056 104.7727013  55.4004622
 109.0550900 105.5955696  55.5532408 109.5940685 104.3750572  56.2679672
  87.0667839  88.5693169  12.7008784  87.2175312  89.4424820  12.3388183
  87.9208946  88.1397724  12.6537836  74.2457676 105.0531483  11.8534470
  74.7631264 104.2524242  11.7673278  73.3630180 104.7979355  11.5853941
  75.5848598 102.6822090  11.2889278  76.0684967 102.0350266  11.8022275
  74.8454475 102.1952915  10.9250414  74.2546511  97.6997280  15.1103580
  73.8276386  98.2855415  14.4852853  73.6618614  97.6778698  15.8615959
  61.1095428  91.5844250  57.3602581  60.9044027  91.7383385  58.2824612
  61.4348173  90.6845665  57.3341942  20.0197196  24.7314858  43.9838457
  20.2233601  24.1696358  44.7315693  20.0379324  25.6198525  44.3398046
  97.1610737 102.7182961  41.9580746  96.7831135 102.3083973  42.7361202
  97.5835705 103.5118484  42.2867203  18.3009148  22.8065920  52.1835423
  17.5873518  22.2266245  51.9176579  17.8773451  23.6501098  52.3425961
  39.8621845   1.6179565  29.8571634  39.4300032   1.1414202  29.1483855
  39.2619252   2.3339289  30.0652599  70.2736473  85.5930614  10.9834802
  69.5688725  85.3988171  10.3655839  70.8128977  84.8022270  10.9880567
   4.5779845   4.8227912  15.2525699   4.2500913   5.4039371  15.9388554
   4.3212044   3.9460462  15.5382514  46.2371635  92.9446220   0.5520813
  46.2414932  93.2305336   1.4655703  46.4191008  92.0058060   0.5940929
  15.3511643  28.8254929  39.2820072  15.6260371  27.9176402  39.4103980
  15.9587729  29.1693854  38.6271930  92.1593666  90.1477814  56.3870239
  93.0373669  90.2172947  56.7618656  92.0378971  89.2107868  56.2336683
  96.8066788  89.8812866  26.4207244  97.5516129  90.4597282  26.2572837
  96.0517979  90.4684544  26.4609241  85.6148720  82.8105640  51.9206190
  85.9450817  82.0396042  51.4593029  86.2760735  83.4847641  51.7641497
   1.2319610 103.1729698  49.1534901   1.5087897 102.5589943  49.8336601
   1.5289982 102.7742004  48.3355713 113.4309578  98.4758568  61.0483408
 112.6886654  99.0451050  60.8454180 113.6907673  98.7277794  61.9344950
 103.3967495  85.4566765  12.0998335 103.5112095  86.4038658  12.0225799
 102.5526047  85.3524494  12.5389147 113.2741261  93.7020683   1.9021694
 112.6279163  94.4078541   1.8792453 112.8739166  92.9943943   1.3969335
  92.0285892  91.8134975  34.3409896  92.0661163  91.5696049  33.4161448
  91.6431808  92.6896763  34.3421865  33.2486391  32.2753263  52.8467178
  33.7064743  32.9299378  52.3193598  33.4842205  32.4878621  53.7497997
  22.7770615 105.8725071  50.7411957  22.5687957 105.3145790  49.9918127
  22.0463252 105.7439232  51.3459444   3.3488083  11.9532835  30.2478123
   3.4282726  12.5146270  29.4765735   3.5281241  11.0714030  29.9216771
  85.3452492  67.7890778  28.3085155  85.4696178  68.2231522  29.1525197
  84.6768475  68.3123922  27.8662300 116.0914993  23.9803696  43.9615870
 115.3613091  24.4272304  43.5333729 116.0120773  23.0686688  43.6810064
 108.3395386  73.7573051  37.2184730 108.1325245  72.8785086  36.9005132
 107.9619884  73.7890768  38.0974960  98.3756256  66.2529707  34.1577458
  98.5247421  65.4865789  34.7114968  98.3681107  65.9060717  33.2656479
  75.8690596 101.9602680  39.2280197  75.7792568 102.3761177  38.3705568
  76.1868906 101.0783768  39.0344119  86.8984318 102.9584599   9.4102150
  86.2995625 103.0256844  10.1538980  87.0534420 102.0190525   9.3116850
  98.0608368  93.6273003  42.5168324  98.4377289  93.0323410  41.8686008
  97.1146488  93.5317230  42.4080944  75.3412294 101.1165524  56.3483381
  75.1121664 101.5361595  57.1776152  75.1506805 100.1890564  56.4885473
   9.1501397  19.8950911  16.0123146   9.6994865  20.0938535  16.7705655
   9.7715926  19.7172010  15.3063524  21.1122298   1.7619012  60.2873611
  20.5149245   2.5089973  60.3235197  20.5815101   1.0170522  60.5697966
  95.7592297  13.5200703  33.8272357  95.9943199  14.4067311  34.1007233
  96.5063667  12.9824162  34.0897965  91.0364819  68.3120298  41.9376945
  91.7327404  68.7266016  41.4282036  91.1171532  68.6963415  42.8106403
  77.0020819 101.6880703  33.5480070  77.5090647 101.0210323  33.0851173
  76.1652327 101.7175293  33.0842733  47.0706749  85.9401989  86.6853714
  46.9042921  85.2173233  86.0803890  46.4184141  86.6013527  86.4537048
  16.7825937  23.6885881  67.8999472  16.9585478  24.0376806  68.7736797
  15.8276284  23.6586857  67.8418159 107.7210045  32.7868891  21.1513638
 106.9618893  33.0144501  21.6881943 107.3491192  32.3612714  20.3788471
 109.1500187  46.4521408  73.2172060 108.6207581  47.2477913  73.2724380
 108.5116959  45.7388878  73.2244825   0.2214547  78.5131121  36.0363841
  -0.5749094  79.0005779  35.8256435   0.5482988  78.9229870  36.8372607
  47.3495007 103.1593037  55.6881809  47.9303980 102.4188232  55.8627605
  47.9406834 103.8895893  55.5053473  64.8468924  81.7734718  31.2829304
  64.4736004  80.9815884  30.8958817  65.1322412  82.2951126  30.5327964
  95.8465576  24.5266628  67.2470045  94.9148941  24.4266629  67.4425793
  96.2921047  24.1025209  67.9803610  67.0378542 108.3693790  46.3315535
  67.6443195 107.7724743  45.8932209  67.0713043 108.1110668  47.2526312
  65.8314753  92.0972443  57.2842979  65.4334068  92.1516705  58.1531000
  66.2714958  91.2472248  57.2752714  22.7035785   1.0949928  52.1593237
  22.4066257   1.9863343  52.3425198  22.8355432   0.7042149  53.0230999
  51.3887215  77.4036741  18.8430560  51.5315866  78.2451773  18.4098232
  50.9320879  76.8727827  18.1904674  77.2705078  71.3292408  39.1589236
  78.1245089  71.0940361  39.5216823  77.4177504  72.1697950  38.7253022
  83.8254166  16.5976512  18.5905707  84.5912838  17.1711659  18.5630357
  83.9887333  16.0154355  19.3325841 108.4520721  11.6883123  43.0653763
 108.4350967  12.5443959  42.6375151 108.4580421  11.0598147  42.3434448
  67.9377127 100.6714725  51.4345551  68.4459209 100.0306702  51.9318771
  67.8944874 100.3084087  50.5499363  85.6471252 104.8518658   7.7327734
  86.1759090 104.2100430   8.2067859  85.9463501 105.6991673   8.0625856
  73.4465170  97.0482922  28.7739801  74.0048170  96.4764309  29.3007660
  72.6043034  96.5947723  28.7390399  88.7460041  96.5546227  36.6808724
  89.0893078  97.2835064  37.1977043  89.3825245  95.8509254  36.8069077
  86.4830494  82.7506828  33.9211130  86.4662933  83.1353378  34.7974682
  86.5843678  81.8111897  34.0738058  81.7899704  30.6236362  63.9875555
  82.2706127  30.2530241  64.7277260  81.5268135  31.4946246  64.2848158
  45.7528973  94.1072369  52.9176044  45.0295019  94.4063473  52.3667288
  45.5000401  93.2239914  53.1862402 109.2572594   0.8954317  24.4440866
 109.9787331   1.4309621  24.1140580 108.9584541   0.3999617  23.6815548
  37.9995990  46.7779303  94.1969490  37.1179605  46.5098524  94.4559574
  38.5556936  46.5116930  94.9291515 104.8921680  48.9278126  45.8912039
 105.4887199  49.0128946  46.6349268 104.0212345  49.0569448  46.2667608
  18.9637172   1.6929422  52.6481247  19.2555225   0.7902611  52.5206566
  18.7753201   1.7537737  53.5846281   1.5227728   9.7849494  10.8834195
   2.3214653  10.0517881  10.4283166   1.8237782   9.4914895  11.7433667
  13.9932680  26.1826134  20.7025623  13.6008680  25.3877687  20.3413463
  13.4719539  26.3741207  21.4821696  16.1048305   9.6972597  36.3998842
  16.9672549   9.3338263  36.1989594  15.7502079   9.9567032  35.5494952
  57.7357054  93.3446598  32.0739532  57.5004101  92.4355984  32.2596502
  57.8912926  93.7324905  32.9351187 108.4237194   1.4397801  46.7988920
 108.9457893   2.1350890  46.3986158 107.6015663   1.8663764  47.0403576
 109.6194077   2.7979639  12.8651297 109.2893791   3.5806024  12.4237764
 110.5716610   2.8694385  12.7992690  65.2406311  70.2101994  58.9252090
  64.3906736  70.5857229  59.1549444  65.1127672  69.2645311  58.9999914
  50.6076574  92.1923828   8.4920561  50.8534336  92.8426170   7.8340101
  50.2794361  92.7087975   9.2281413  85.9869576 108.2226181  40.9485245
  85.2937603 108.8627911  40.7875824  86.0373878 107.7154160  40.1383162
 106.8203449  30.1191139  36.3941336 106.6021633  30.7652593  35.7224774
 106.5197563  29.2858291  36.0314798  30.1544881   9.9421257  11.4504254
  31.0943413   9.9537933  11.2693954  30.0608349   9.3443149  12.1921015
   4.9974865  78.6688042  44.0288782   5.3447270  78.1030655  44.7185135
   4.0559649  78.7024450  44.1981077  99.1879845  96.2833881  42.0121717
  98.7509918  95.4809856  42.2975111  99.8738766  95.9834480  41.4156723
  75.0305223  59.0118599  54.6903944  74.1170597  59.0072489  54.4043922
  75.5341768  59.1058159  53.8818550  72.1995068  79.4665384  24.9395204
  71.7565489  78.6411047  25.1361895  73.0518532  79.3890095  25.3681493
  16.6406059 101.9338989  57.7783728  16.1285806 101.9508839  58.5869360
  16.1636901 102.5097466  57.1807241 101.5033054  87.4018097  35.1117635
 100.7512569  87.1703625  34.5667100 101.8236828  88.2241440  34.7411394
  25.0090432  88.4530067  18.1024277  24.1687894  88.3249283  17.6622009
  24.8289418  89.1085815  18.7762380 114.3628883   3.7856263  39.6345496
 113.6863232   3.5570738  40.2719402 113.9500999   3.6377516  38.7836838
  33.7067819  36.5978956   6.1642295  34.2101479  35.8816099   6.5512592
  34.3643427  37.2515821   5.9264541   9.1673708  26.9843864  13.2247603
   8.2507557  26.8720365  13.4766042   9.1998023  27.8506970  12.8189456
  27.1654677  24.8884797  27.6392436  27.2770119  24.6717000  26.7136097
  26.2439752  24.7024417  27.8194451 112.1400642   5.5968434  34.8337913
 111.8848419   6.5181643  34.8813462 112.9400826   5.5967510  34.3082476
  77.9438972  34.2176056  36.5117764  77.9772854  33.6993241  37.3158312
  78.1305122  35.1124716  36.7957163  30.5800486  15.6947207  54.5031834
  31.0202861  15.7356083  55.3521538  30.9064054  16.4583266  54.0271282
  27.3398185  13.9144492  50.9033918  27.1777749  14.8578167  50.8975363
  26.7359972  13.5717964  51.5623474  30.4914927   2.9105118  23.9889455
  30.9250903   3.6323345  23.5337591  29.7774291   2.6538700  23.4054375
  97.5522137  37.1534967  49.6187782  96.8135738  37.2852063  50.2131605
  98.0038738  36.3837981  49.9649048  61.6756964  60.2747917  94.3492222
  62.5991726  60.0481272  94.4589710  61.3913345  59.7615480  93.5929489
  51.3775063   6.0585845  43.4209156  51.4992094   6.3022345  44.3385506
  51.7984819   5.2025062  43.3425474  31.2082648  48.1959009  83.7775707
  30.4309678  47.6419258  83.7057590  31.5571880  48.0072260  84.6487141
  40.9100389  10.5972731  46.6961861  40.0770807  10.2396965  46.3886929
  40.8300114  11.5414369  46.5606070  71.5667152  49.2819643  30.5750608
  71.2226915  49.2969370  29.6819472  72.3680305  49.8037529  30.5318427
  51.1232471  12.2082794   4.1465545  50.3555012  12.7647197   4.0155014
  51.7404556  12.4887061   3.4708020   6.1626577 103.0914497  37.5977302
   5.5025840 102.5013733  37.2339249   6.6573733 102.5482750  38.2112908
  85.3652573   7.1764219   8.9803118  85.3942585   6.7686957   9.8458463
  85.9414959   6.6348308   8.4409994  11.7537344  37.2024322   7.3869205
  12.6477659  37.4017024   7.6648265  11.5753818  37.8295231   6.6860795
  59.4805145  82.6912498  74.5474720  58.8955307  82.5710011  73.7994289
  58.9936304  83.2607651  75.1431465  57.4920225  10.9486294  26.6094422
  58.1743860  10.8763003  25.9420729  56.9379044  10.1807499  26.4696264
   0.1457763  17.1284306  43.0464411   0.5414558  16.2666392  42.9161119
   0.8481210  17.6603413  43.4206247  83.4368038  94.4766998  65.2007008
  83.4587669  95.3647518  65.5572224  82.5669193  94.3972015  64.8092747
  21.9843888  23.4768605  37.9898906  21.3001108  23.4475398  37.3212075
  21.5160775  23.6622906  38.8038492  37.4988651  14.1474974  58.1161690
  37.8224468  14.5027709  58.9440012  36.9186425  14.8276353  57.7741337
 106.2699795  19.3629169   7.9016471 106.5768337  19.0716708   8.7602770
 106.1657429  18.5556018   7.3980516  24.7589040  53.6135626  94.4217014
  25.5382299  54.0953588  94.1446495  24.1867018  53.6220598  93.6544037
 102.9219532  81.7216682  21.2305617 103.3294296  80.8564854  21.2711692
 103.3800697  82.1690178  20.5190563  68.9593840   4.6859863  24.1314197
  69.8999596   4.7797236  24.2822719  68.6226940   4.3098262  24.9446726
  84.3774986  12.3531318  13.1079519  84.7813702  11.5254438  12.8470874
  83.8728619  12.1367633  13.8920164  26.7149305   9.8683000  47.2693443
  26.3038516  10.6164217  47.7024269  27.4773026  10.2383864  46.8243122
  52.8567505  37.2140455  31.6147923  52.3386288  37.9773426  31.3595247
  52.3223114  36.4638376  31.3544130  38.2983351  31.4622331   0.7411515
  37.7848291  31.1201930   1.4729659  39.2089295  31.3372397   1.0084083
 106.8295479  95.3095913  77.7615929 106.8302345  95.4222584  78.7121391
 107.6265430  95.7506847  77.4675465 106.1800385  89.0308475  43.7794256
 105.4472351  89.3232822  44.3213844 105.8257198  89.0063000  42.8905582
  83.7386608 102.2140503  35.1527071  83.6574650 101.2741566  34.9907494
  83.1389236 102.6178741  34.5254254  79.5120049  75.8955479  83.2794762
  80.1978302  76.5621805  83.3178997  79.5694828  75.4439735  84.1215038
   9.2141455  40.1783800  38.8689637   8.9943439  41.0962343  39.0285444
   9.6813583  39.9033332  39.6578193  36.8168712   0.8694343  52.0167971
  37.3104596   1.6426075  52.2903013  36.3240790   0.6118934  52.7959394
  29.2117000  43.5860634  16.8125093  29.2746973  43.5309553  17.7660429
  29.5411634  44.4594812  16.6007888  20.5054951  21.5360951  15.3657103
  20.2414060  20.8885455  14.7121310  21.2699342  21.9657254  14.9819350
  59.6763992  37.2708678  23.8357544  58.8222313  36.9515991  24.1267848
  60.3066015  36.8000007  24.3810654  23.7171340  54.6591806   6.4103329
  22.9000568  54.3043327   6.0600477  23.4586763  55.4725742   6.8437195
  74.1177368  15.8228862  22.8145289  73.6434507  16.5999663  23.1102228
  73.6390257  15.5308700  22.0387745   2.3687780  37.8439116  37.0631504
   1.7282009  37.2050214  36.7505622   1.9126476  38.6840224  37.0142341
  42.7426767  44.8363924  10.1540661  42.2528458  44.2745781  10.7546151
  42.1236944  45.0322723   9.4506961  98.9548302 109.1112900  18.8975728
  99.7498322 109.6434498  18.8657105  99.2527866 108.2534790  19.2002499
  39.1341400  35.9047961  37.4200249  38.6854362  35.1288319  37.0842028
  39.8944211  35.5584359  37.8871822   7.3336214  30.2540541  69.2210960
   7.8811353  30.4372287  68.4576130   7.4992144  30.9856939  69.8156643
  77.4904537  82.5574589  85.4179001  77.4629211  83.1991100  86.1276531
  76.7415667  82.7798462  84.8647785  68.8719130  30.8960366  32.2406077
  69.3950081  30.2567768  31.7569208  68.2995081  30.3663516  32.7956009
  76.4144850  78.2174349  78.2036066  76.7281055  77.3466349  77.9595089
  75.8660364  78.4894514  77.4677753  92.3042965  54.0616322  92.3365593
  92.3026752  53.3996058  93.0278969  91.8998241  53.6256695  91.5865135
  82.8946400  14.5839429  23.6922050  82.8243065  15.5276144  23.5480928
  83.8307476  14.3991530  23.6161733  53.0822706  12.2530544  19.6185195
  52.1684647  12.1552038  19.3509114  53.5817814  11.8140006  18.9300764
  21.5319371  55.6264973   3.2195076  21.1381674  54.9677277   2.6474965
  21.5058899  55.2328300   4.0916184  40.9061718  17.6163936  34.8696470
  41.2621355  18.3535480  34.3735361  41.3567638  17.6555550  35.7132506
  53.5801792   1.6236107  49.9760771  53.5358429   2.1587932  50.7684422
  53.4229851   0.7301394  50.2814150   9.0354121  59.5228338  42.4057531
   8.8825572  60.0480604  43.1912518   9.9384397  59.7205591  42.1574020
   9.5861775  74.9694347  26.2712932   8.7703145  74.6429348  26.6507649
   9.8652381  74.2774343  25.6717157  24.5549607  14.6701431  39.5073509
  25.2644348  14.9934459  40.0626469  24.8925185  13.8539541  39.1384077
 109.6874142  97.6361656  22.3305583 109.5467186  97.2803402  21.4531636
 109.6488667  98.5853481  22.2130966 102.5337124   2.0662352  41.0338640
 102.6779556   2.9797834  40.7871771 102.8437996   2.0103884  41.9377232
  53.4209871  37.6174545  93.6736488  53.1058264  38.5131168  93.5524273
  52.6346636  37.0757437  93.6067295  34.6205616  25.7875514  11.8063855
  35.3084326  25.4807234  12.3970795  34.0201950  25.0457501  11.7320788
  55.6183958  32.1707654  28.1030631  54.7692728  31.7302299  28.0691743
  56.1795807  31.5716362  28.5953474  33.1723309  44.0301323  31.9253707
  32.9006577  44.7177696  32.5333047  32.4823618  43.3695555  31.9871044
  12.6244700 100.4015923  30.4166698  12.1292412 101.0883808  29.9702358
  13.2248127 100.0674534  29.7502112 106.8034935  86.9191170  90.2370548
 107.7085018  87.2265816  90.2886391 106.5292549  86.8275738  91.1495495
  58.2416105  23.7125635  43.1445169  59.1365623  23.4873390  43.3986139
  57.7535200  23.7199211  43.9678955  44.3695450 103.4745979  85.3476334
  44.0242958 102.5839424  85.2862167  45.1152802 103.4018517  85.9433079
  76.3138437 106.3067245  80.2599430  75.5324936 106.8424988  80.1233101
  75.9800720 105.4822350  80.6135559 103.6303234 101.7359734  68.0867386
 104.5608330 101.6262627  68.2825422 103.3904457 100.9410954  67.6104498
  16.7907405  38.5066772  58.7631893  16.0046411  38.0673885  59.0876961
  16.8626511  39.2961645  59.2996311  87.6885605  16.5289748  23.7314487
  88.4432888  16.1117423  24.1468120  88.0426979  16.9277835  22.9366088
  40.3725624  28.3833313  30.8854580  40.4423714  27.5129771  31.2776852
  39.5701957  28.7498593  31.2570715 106.8584824   4.1187063  15.0161898
 106.5459061   4.9733898  14.7194672 106.3294983   3.4875971  14.5282221
  38.1222153  19.0725338  29.4875455  38.3732915  19.4809461  28.6590576
  38.9232254  18.6514020  29.7994137  35.2557373  29.6857786  37.7768254
  35.5699134  30.5393744  38.0749846  35.9874868  29.0907598  37.9403114
  17.7150965  49.9804020  38.6871743  17.2955680  49.8634434  39.5395517
  18.4363759  50.5865049  38.8563824  41.1166191  20.0248647  25.5348349
  40.8580971  19.1051865  25.4749346  40.9873295  20.3680778  24.6506858
  40.9455729  25.9963846  24.0578651  41.7613029  26.3629842  23.7166595
  40.4113626  26.7607164  24.2738414   6.0144222   8.7883836  17.1252155
   6.9506383   8.6234081  17.0133471   5.6550276   7.9472542  17.4072921
  41.2328196  14.3486357  35.6060362  40.5629063  13.7415743  35.9205604
  40.9384251  15.2078009  35.9083581  97.3263454  64.0812778  71.8310881
  97.3141956  63.1274128  71.7522049  98.2300186  64.3265390  71.6324329
  21.8509269   9.6806777  32.6459289  21.6141510   8.7969190  32.3646116
  21.2320137  10.2510405  32.1900082  10.2233744   0.5364260  13.8707876
   9.3673837   0.9537858  13.7742341  10.8467102   1.2627427  13.8586295
 111.9558048  13.7694860  54.8706388 112.5909901  13.5904658  55.5639839
 111.1402416  13.9566302  55.3354549 101.4156246 102.2922897  53.7980413
 100.9729671 101.8830299  53.0545425 100.7641220 102.2832584  54.4992542
  50.9979582  46.5511465  16.5365291  50.1982737  46.7565680  17.0208192
  51.5981102  46.2091827  17.1991849  55.4019833  20.0581932  33.4426975
  54.7011900  19.5099199  33.0898261  55.9412193  19.4566572  33.9561296
  70.4803371  96.8421364  29.3268204  69.6269703  96.6475582  29.7142911
  70.6039953  97.7791977  29.4780326  49.4601488  30.4773903  42.1500063
  48.6858273  29.9412203  41.9791937  49.2447281  31.3337636  41.7806149
  10.6974888 104.6485615   0.9665635  11.2039304 104.0134048   1.4728481
  10.3735542 104.1521358   0.2149880  30.5362892   0.1495006  31.5414906
  31.0820651   0.0771855  32.3245168  30.9200191   0.8745139  31.0481954
  87.7606678  92.9009819  87.1734333  87.5556564  92.0920753  86.7045212
  88.0719280  93.4992790  86.4941692  16.3994431  31.7295837  23.8879347
  15.5731976  31.8141580  23.4121203  16.6004157  32.6190734  24.1788793
  51.0763550  16.0511124  62.8065109  51.9729805  16.3707197  62.9072237
  51.1609793  15.2675593  62.2632694  72.9370403  25.1597238  21.2038755
  72.8344727  24.7892928  22.0805120  72.1062231  24.9735475  20.7664752
  18.4352565  39.7216654   9.1479784  19.0230060  39.8808622   9.8865163
  17.7639043  39.1360426   9.4980705  96.5299034 107.1070671  38.2591844
  97.1346569 107.8003502  37.9948902  96.5567398 107.1177006  39.2159486
  71.8370819  54.8436594  24.1185331  71.4570522  54.4686985  23.3240461
  71.1601782  54.7281694  24.7853875  21.7119837  36.3108444   4.5153970
  21.5373564  36.1894703   3.5821196  21.2556648  35.5848956   4.9408403
  38.5816526  38.6986423  37.5274730  39.3590665  38.9116502  37.0112491
  38.5489821  37.7419996  37.5276494  32.1292448 105.2622795  19.4548893
  31.5987682 106.0528755  19.3559647  32.0619273 104.8211575  18.6080623
  53.4391928  18.0352962  16.6307008  53.4631777  18.4945869  17.4701703
  53.5964870  18.7186992  15.9792018 100.1024914  99.4964600  93.7621117
  99.3643761  99.8115349  94.2837906 100.5144596  98.8278484  94.3093491
  35.3196859  41.4826107  28.9047813  35.9389353  41.1913109  28.2355237
  34.6438861  41.9534588  28.4171009  10.6562018  50.8996105  45.8507109
  11.0913801  51.2257767  45.0630093  10.3871357  50.0093031  45.6244612
  27.8162050  42.2293186  22.6862764  28.3939576  41.4768934  22.5586462
  27.0750999  41.8808937  23.1818533  15.9399784  38.5164571   4.5929015
  15.7196891  38.5410857   3.6617208  16.1005259  39.4310284   4.8253161
  67.9864550  12.5078046   3.6448175  68.2383442  12.2310519   4.5258346
  67.3462963  11.8545926   3.3624288  57.3629856  19.7551441  29.2058206
  57.5735188  19.0944040  28.5460258  57.4063301  19.2846596  30.0382853
 110.9870911  28.9603901  13.9474845 111.2709618  28.1018114  14.2613149
 110.9495449  29.5029235  14.7351897  70.2982092  55.3193188  13.8810384
  70.9709120  54.6717739  13.6703372  69.4910192  54.8103666  13.9561558
  36.4530945  36.9920969  46.4840269  36.4319873  37.0215487  47.4405432
  37.2867942  36.5704513  46.2757254  61.5033722  95.4539204  70.3349638
  61.7205524  94.5824909  70.6661510  61.3103867  95.3164387  69.4075537
  51.7358780  45.8218670   9.9366665  51.4814663  45.7990026  10.8591545
  51.0197496  46.2850761   9.5021224  66.2767267  39.2363381  13.1660390
  65.4959297  38.7227011  12.9592526  66.8168736  39.1788888  12.3778939
  52.6147509  41.6627789  50.8483648  52.4130106  40.8401680  50.4024410
  53.4376097  41.4913988  51.3063669  83.8504601  96.4007092  93.9847565
  84.0835094  96.5036106  94.9074268  82.9111099  96.5820503  93.9533234
 111.6348553  89.6968555  83.0226707 111.2205029  89.1862488  82.3270988
 112.3415470  89.1362286  83.3428478  18.8647580  54.1229486  21.8355727
  18.2804668  54.1414785  21.0776210  19.7272336  53.9290857  21.4684391
  79.4464397  45.5699348  12.5605178  80.3724861  45.7008266  12.7643335
  79.4337893  45.3630590  11.6260254  54.1652393  31.7913842  40.6507540
  53.4056330  31.2657785  40.3998089  53.8076830  32.6626754  40.8217335
  44.5927048  41.6170359  12.4017954  45.0065947  41.4184570  13.2417321
  44.8105812  42.5346851  12.2384369  30.0619149  17.4586844  23.4065008
  30.3098226  17.9196608  22.6050806  30.5602551  17.8948665  24.0976143
  16.1966634  42.3221540  69.2177773  16.4733696  41.4345169  69.4452953
  16.8698335  42.6354456  68.6136913  19.9376845  35.0921154  20.0983977
  19.2114222  34.6889114  20.5740047  20.7221532  34.7784472  20.5483437
  41.6269350  34.8826337   5.5218935  40.8018732  34.4886732   5.2385181
  42.2272110  34.7327828   4.7915208  41.9840050   5.5706877  13.4515119
  41.3283825   6.2680745  13.4450746  41.6083193   4.8836708  12.9009700
  79.6992970  95.2427578  91.0894203  80.3718853  95.1896954  90.4104328
  78.8959837  94.9582481  90.6535721  52.8320360  51.3477230   6.6933537
  52.2185230  51.9421196   6.2614685  53.6966991  51.6926479   6.4706129
  46.2900686 102.9669189  75.6936264  45.7022285 102.2123909  75.6565762
  47.1183252 102.6428509  75.3397846  69.7326469  47.0138168  40.5732727
  70.3080082  47.6954746  40.2260828  69.3695211  46.5883636  39.7965097
  38.6140108  26.1924648   3.1262076  39.1051269  25.6913853   2.4750865
  39.1398168  26.9794130   3.2692978  61.6133642  21.2777829  33.8249350
  62.5625372  21.2266207  33.9375496  61.3377905  20.3697634  33.6992788
  55.5845356  28.4466529  24.6531057  55.5544281  27.5036001  24.4919372
  54.7706509  28.7802625  24.2755795   8.0931640  45.2696609  37.3440289
   8.6882091  44.8642349  36.7133260   8.0874789  46.1968184  37.1061778
  38.7191510  49.4891310  37.4611473  38.1624079  48.7921286  37.8082132
  38.6106443  49.4320250  36.5118337  91.3544750  23.9579844  50.5041981
  91.0528469  24.6183896  49.8804045  92.0102310  24.4110250  51.0342693
  63.9049101  83.6353874  75.9189415  64.5974827  84.1869640  76.2827253
  63.1459332  83.8045883  76.4771175  73.4704685  31.7093563  18.1869066
  73.5326958  32.0518637  17.2952521  73.8354921  30.8263016  18.1302941
  20.8960533  42.7874899  28.0251503  21.0026026  42.2739029  27.2244573
  20.0671053  43.2505608  27.9041457  44.7231913  24.3642187   6.5571785
  44.5986748  23.7518263   5.8321249  45.2425671  25.0759196   6.1830652
 108.6753178 104.9871922  90.8337116 108.0108070 104.6671104  90.2236176
 108.7327003 105.9257317  90.6545830 103.2335854 109.2739201   6.6608500
 102.7234840 109.2317963   5.8519906 103.7014103 108.4394455   6.6927201
  53.8924313  27.8650975  45.9725809  54.3153191  27.0068598  46.0013390
  52.9747009  27.6735520  45.7794189  56.4495039  42.0202780  36.3097334
  56.7767286  41.1827421  35.9815717  55.6027937  41.8090868  36.7030716
  17.2994184   3.8847342  26.7556691  17.5064015   3.6880669  27.6692939
  17.2025061   3.0269715  26.3420463  24.3344426  30.6822038  35.3032374
  23.6048222  31.1962152  34.9572897  24.4582248  29.9811959  34.6633172
  24.0764093  40.8559132  57.2389507  23.6123419  41.6612816  57.0103550
  23.6879086  40.5833292  58.0702114   5.4472554  82.7759266  22.6285052
   5.0749677  82.6705456  21.7529893   6.1937398  83.3616829  22.5024390
  59.4500923  44.4495201  25.1661944  59.3780327  43.6076212  24.7164750
  60.3675890  44.7004700  25.0591636  75.7098722  71.3800049  23.5615396
  76.1069918  70.6085968  23.9658332  76.4403963  71.8319893  23.1393123
  40.1466703  36.3017249  51.5596867  40.3535509  35.3852868  51.3764429
  39.2094302  36.3014364  51.7541313  11.3652682  59.3691301  11.4366448
  10.5901742  59.9051046  11.6045547  11.9234872  59.9204302  10.8882952
  23.9920068  42.4571085  27.9571033  23.6163998  42.3489475  28.8308620
  23.3133149  42.1362638  27.3632479  81.9279003  72.9940796  87.4163055
  82.3058510  73.6998558  86.8916416  81.7572117  72.2930574  86.7872810
  27.0224428  21.8301105  17.0025778  26.3635421  22.5210023  16.9336486
  27.6221395  21.9976759  16.2755847  40.7864285  12.3236740  27.1891046
  41.5437984  11.7791212  27.4037838  40.9478140  12.6154089  26.2918425
  56.7841053  53.3618069  19.9453712  57.0366716  54.2263269  20.2694869
  55.8334637  53.3337498  20.0536513  33.0929565   8.5706276  19.8066938
  33.5666776   9.1243875  20.4273152  33.7293363   7.9050595  19.5454049
  17.1370602  19.0559089  13.2471251  17.5090992  18.2497990  13.6049044
  17.8614008  19.6814680  13.2625675  57.6166868  48.7002611  20.8814144
  56.8158436  48.2990980  21.2189722  57.7969885  48.2279110  20.0686359
  32.6946974  23.2524395   8.4449196  32.8534889  23.8918710   7.7505535
  32.4790025  22.4435234   7.9808474  82.4900723  39.6226215  16.1013150
  82.5740528  39.4089317  17.0305705  81.6127682  39.9967122  16.0199094
  41.5763950   9.8358458  23.2962704  41.2890100   9.2413616  22.6032853
  42.4563360   9.5337355  23.5213518  62.8819036  46.4962626  10.0496280
  62.7129936  45.6283903   9.6828794  62.0247698  46.8017054  10.3467083
  30.0854683 105.9021854  68.3550930  29.1439033 105.9475803  68.5213041
  30.2920628 106.7294502  67.9201460  25.4646945  38.5216832  21.6116023
  26.3101387  38.9045501  21.3773632  25.6863642  37.7677345  22.1580935
  59.6027851  79.0063620  61.9024897  60.0288343  79.1985989  61.0671711
  59.3709850  78.0794096  61.8453932 111.1992645  43.6871910  16.3154399
 110.8516979  44.1689825  17.0659804 110.8628368  42.7977991  16.4251077
  19.4433177  32.8446269  23.8049293  18.6027479  33.3013082  23.7715006
  19.2486393  31.9613528  23.4916282  48.3834457  56.4059019  18.4903705
  48.2393026  57.3215008  18.7294090  48.0976820  56.3485527  17.5786245
  51.4499283  61.1274767  20.9671855  51.0331249  60.3051615  20.7096958
  51.4970493  61.6359138  20.1575518  40.4851151  40.2866697  33.1104565
  39.6425462  40.4879570  32.7032733  40.2571201  39.8210144  33.9150786
  71.9515467  21.2882996  10.1916134  71.6497040  21.3044739  11.0998333
  71.1572599  21.1421895   9.6778113  41.8201590  43.1456327  12.1718442
  41.3832331  42.8057623  12.9527485  42.5426912  42.5370264  12.0176446
  56.6474152  38.8838911  36.5895939  55.8823824  39.4316459  36.7654419
  56.3015842  38.1412864  36.0944486  22.6730824  56.9263601  17.5236762
  23.0331230  56.0814667  17.7934062  23.3867574  57.3494196  17.0462668
  15.1364994  62.3854589  10.0915194  15.7186413  61.8026209   9.6040303
  14.6197701  62.8266335   9.4172871  44.9347258  62.6250935  22.6362443
  44.0447330  62.2728682  22.6455736  45.4933977  61.8691254  22.8168702
 100.1858711  90.1242447  37.9762292 100.1261330  91.0601234  37.7844357
 101.1139965  89.9755764  38.1570745  64.2622137   8.2057184  16.4709365
  64.1822529   7.3480618  16.0534883  63.8433218   8.8102591  15.8583272
   3.7246943  14.2110264  89.9618530   4.2649519  14.1106296  89.1781044
   3.3680135  13.3370388  90.1204586  43.1330156  45.2418089  20.7170248
  43.9420176  45.7443428  20.8129764  42.5345993  45.8355379  20.2635741
  70.9874201  24.0671301  19.2929196  70.4237270  24.7334719  19.6859443
  70.5207539  23.7942004  18.5030079  82.5575256  12.6214087  15.4818738
  81.6529465  12.7458739  15.7690537  82.6142311  11.6907048  15.2655292
  54.5684385  27.1828008  31.5222764  55.4002333  27.3751736  31.9551086
  54.0016031  27.9181433  31.7550921  44.3322468  54.8855305  36.7332745
  44.6134567  55.3876352  37.4981546  44.0956450  55.5489063  36.0850573
  64.6773148  40.6234980  42.2377586  65.0881195  39.8439264  41.8639469
  64.9277878  40.6066513  43.1614542  24.6634126  33.2086968  48.6719418
  25.5354476  32.9027343  48.4225941  24.8143888  33.7663150  49.4351578
  32.0522022  38.8121510  24.1724467  31.1912465  38.5039449  23.8896036
  31.9441152  39.7568226  24.2826343  56.2823868   3.1789106  15.5968249
  56.3654232   3.6083257  16.4482582  56.1039162   2.2623366  15.8072340
  47.8775072  70.4943132  75.1447153  47.6175880  69.9799061  75.9089518
  47.0653486  70.9003925  74.8418427  52.4464703  48.6188698  18.9492917
  51.5586424  48.8446379  19.2268300  52.7668905  49.4056511  18.5082281
  40.9764290  53.5233831  27.6524162  40.2697849  53.0518961  27.2112966
  41.2242317  52.9555655  28.3820796  33.8519669   4.8370090  16.9751287
  33.9412332   3.9172995  17.2249234  32.9222679   4.9410000  16.7724514
  37.0601106  38.1994224   8.7038648  36.3741493  38.7856674   8.3844787
  36.5961742  37.5599146   9.2442590  45.2823257  28.7971115  10.7438529
  45.0744343  28.0082750  10.2431035  44.7510386  28.7244320  11.5367496
  27.3764729  44.1525221  34.6022916  26.8202853  44.7912312  34.1562700
  26.9538546  44.0179014  35.4505277  52.1776199  48.1236029  31.5551472
  51.9251013  47.2586536  31.2321448  51.8259382  48.7335062  30.9066343
  58.2237768  32.5741982  13.7746739  57.2807264  32.7207208  13.8483036
  58.5754347  33.4169960  13.4878671  65.5354023   9.1707033  26.0370183
  66.4191341   9.0875840  25.6787729  65.5593204   9.9795502  26.5483189
  55.8044481  36.3893890  43.1078196  56.2547588  35.7310343  43.6369896
  54.9197149  36.4247584  43.4714556  32.6876330  23.7947774  55.7369280
  32.1671414  24.2795730  55.0963879  32.7670360  24.3909788  56.4815569
  35.2391458   9.4412750  30.3126359  35.3193283   8.6748934  30.8804941
  34.3623471   9.7811329  30.4913831  51.7141581  63.1523800  29.7131991
  50.8740759  62.8809118  30.0830674  52.1287727  63.6621571  30.4092240
  53.8466930  43.8629675  10.3057706  53.0667496  44.3585014  10.0560379
  53.5048246  43.0528593  10.6840265  97.1260643  94.8083019  80.9969997
  97.4357033  94.2697620  81.7252350  97.9041481  95.2803898  80.7004547
  38.1528687  19.4117177  40.4134417  37.8075790  18.7131476  39.8575592
  39.0448880  19.5517790  40.0957727  44.8142385  40.6575108  41.8682384
  44.4738960  39.8109174  41.5789700  44.5902729  41.2605429  41.1594200
  28.5806727  49.4334364  48.5844135  28.2232141  49.1861296  49.4372272
  29.3189859  48.8386774  48.4525728  22.7057719  98.4059429  57.0035791
  23.1861496  98.3340645  56.1787748  21.9518948  98.9574337  56.7944098
  68.8974810  38.1720948  23.9664268  69.1389894  38.0805278  24.8881221
  68.0784464  38.6672544  23.9814901  16.1370516  55.7928181  10.1063454
  17.0349753  56.1214256  10.0618184  15.8595395  55.7296133   9.1924399
  50.7727575  49.5921326  25.7067871  49.9084044  49.7759104  25.3388858
  51.3863993  49.8667479  25.0254226  66.5121460  87.3200417  78.0418396
  67.2366428  87.8766537  78.3273554  66.0985374  87.8108025  77.3316860
  35.8817077  33.2075047  25.7174563  36.1136413  33.6530304  24.9026275
  35.4537082  33.8814688  26.2454939  63.8036776  63.7029934  32.8721452
  63.8508940  62.7556515  33.0007601  64.6420765  63.9323616  32.4712658
  23.6062241  62.2109556  61.0737467  23.9308834  61.5970564  61.7325068
  24.3924236  62.6456547  60.7433605  16.7985451  37.7462530  30.4609323
  16.9986176  36.9116950  30.0370002  17.4993265  38.3332014  30.1769853
  40.7501268  56.1175728  29.9899459  40.8299160  55.3176689  29.4703150
  40.8429956  55.8245659  30.8964515  21.8359470  33.4924006  15.2729499
  22.0420241  34.4231915  15.3589332  22.1226883  33.2642961  14.3886542
  44.4434214  54.1172743   7.4528050  45.2385330  54.6247673   7.6155204
  44.2723274  54.2332411   6.5181869   0.1350137  33.1955576  25.4297042
  -0.5715338  33.8336778  25.3305840   0.8687285  33.5733485  24.9447632
  24.0505719  23.9092350   2.1576269  23.1980753  23.9297414   2.5924343
  24.0096593  24.6189737   1.5166686  70.3666067  56.0640383  33.2585287
  70.9756041  55.3995085  32.9364133  69.6934795  55.5668879  33.7232590
  63.5975695  36.6932249  49.4900942  64.4856834  36.9713736  49.7139645
  63.3592176  36.0744262  50.1803923  78.9947081  13.7337077  35.1749206
  78.7437296  14.3654859  34.5010519  79.7965765  13.3322728  34.8401260
  48.8810873  22.9819536  17.0562398  49.0907907  23.9125180  16.9768441
  49.1358471  22.7544689  17.9504323  53.2821465  47.6817656  39.4274092
  53.8570881  47.4368715  40.1524591  52.6475239  48.2828712  39.8174787
  65.2864647  14.6425319  51.3086128  66.1310196  15.0623012  51.4721727
  64.8746109  15.1865685  50.6373215  65.6513977  96.1047077  89.6189594
  66.3915539  95.4979706  89.6351814  65.5749893  96.3648129  88.7009525
  40.2287292  51.2884426  39.0787649  39.4976234  50.7409620  38.7924457
  40.6575680  51.5590906  38.2669282   2.6034757  43.3592129  14.9023604
   1.9056793  43.2196760  15.5425489   2.4116269  42.7381039  14.1997564
  70.7562780  34.2336726  25.5914712  71.0243797  33.3854508  25.2380943
  71.5660143  34.6217370  25.9230852  46.0953188  54.3390799  21.1774564
  46.3574457  53.6806679  20.5340123  45.5513239  54.9529314  20.6840158
 112.3858833   0.7880551  18.8682151 112.0136929   0.8871435  19.7445047
 111.6846180   0.3880632  18.3539605  30.7708669  33.2677579   7.0170474
  31.6949272  33.0825853   6.8495578  30.6291533  32.9822731   7.9196262
  32.5256634  54.7684765  29.5337725  32.5787139  54.7069359  30.4875183
  33.2005930  54.1681194  29.2171121  67.9302454  56.8579245  10.1563501
  68.7907934  56.8690586  10.5753601  67.6700735  55.9368372  10.1680017
  55.5910301  99.4059372  90.4834175  54.6733809  99.6361828  90.3380203
  55.8992863  99.1000843  89.6303844  10.3985810 105.8821011  10.8179557
   9.6780300 105.2583504  10.9072542  10.2402508 106.5307522  11.5038288
   8.5937905  39.4803214  25.1342773   7.6864123  39.1778541  25.0967264
   9.0684730  38.7622952  25.5530214  69.7683811  31.7458487  48.5382032
  70.0763512  31.9163704  49.4283199  70.4542732  31.2048030  48.1469774
  38.8062811  23.7069631  20.6055856  37.8638744  23.8527107  20.5227637
  39.2037249  24.4190288  20.1043582  82.0201111  82.6760387  85.4392147
  81.8110657  83.5451031  85.0967884  81.3034248  82.1196556  85.1341915
  38.4627795  32.3099923  37.1121025  38.8674235  31.4639282  36.9206023
  38.4274983  32.7556610  36.2657189  72.2189188  41.7461443  28.4699321
  71.5977764  41.2043142  28.9565897  73.0048132  41.2043619  28.3987069
  20.2723861  41.1498260  30.1792955  19.6714222  41.6404486  30.7399750
  20.6368184  41.8067789  29.5861435  66.5549660  63.6816740   4.7709757
  66.4982986  62.7263594   4.7509730  65.9796095  63.9407206   5.4907608
  26.1738348  22.2994232  45.8141279  26.0005617  21.9655752  46.6943312
  26.0641026  23.2471585  45.8915234  35.4426455  37.8819036  16.1054468
  36.0120392  37.3930907  15.5112374  35.0838900  38.5874104  15.5671299
  48.3733654  36.3555813  23.3584046  49.1155529  36.8293357  23.7338257
  48.3696985  35.5148268  23.8159513  81.7032719  53.0613041  31.2633419
  81.4590645  53.6028576  30.5127978  81.2259197  53.4433842  31.9998074
  44.0442228  51.8867922  19.1658568  43.4547520  52.4852657  18.7069619
  43.9795637  52.1450281  20.0852942  35.4472280  47.3878098  32.4988198
  35.9568524  46.7232847  32.0352268  35.8204436  48.2205677  32.2099257
  64.3230629  97.0061398  62.4307871  65.1179314  96.7495251  61.9632769
  64.6064377  97.7064514  63.0185699  52.0373964  78.3159828   5.7532161
  51.3387203  78.3115292   5.0989544  52.7557087  78.7892199   5.3333259
  39.0122533  50.9377670  18.1661832  38.8466716  50.9673548  19.1084886
  38.6255264  50.1099396  17.8809214  12.0838356  18.0345547  26.2468576
  13.0079949  17.9511499  26.0119033  11.6521609  18.2936072  25.4327440
  56.6723919  51.0286188  18.8420296  56.3456059  51.3389635  17.9975605
  56.8748379  51.8275642  19.3287897  76.3802814  48.1614351  27.2269535
  76.7306185  48.9551067  26.8225002  77.1018362  47.5337410  27.1870542
  92.9536152  43.8576984  30.1821637  92.1323299  43.5962439  29.7657919
  93.5103416  43.0813742  30.1221371  95.7200336 102.8475380  29.6366143
  95.6721401 102.5725079  30.5521965  94.8339367 102.7145481  29.2999101
  68.7748337  99.8603916  69.3348980  69.4731808 100.2932358  69.8260117
  68.1539059 100.5605984  69.1339016  69.6522284   7.8316659  40.7601690
  69.9269915   8.0656797  41.6467190  68.9367962   8.4364581  40.5636597
  84.8499966 105.6730938  84.6385765  83.9023590 105.6606674  84.5041752
  85.1288223 104.7746944  84.4614697 106.3585567   3.7971714  80.5879307
 106.6383648   4.6992776  80.4325485 105.6431961   3.6580271  79.9673462
  39.5227098  17.2834253  50.4439068  40.4635143  17.1992230  50.2888966
  39.2442584  16.4068484  50.7090712  50.6629276   6.0033822  32.3090315
  51.2601662   6.6404206  31.9169617  49.9308014   5.9517127  31.6945767
  51.9895411  59.1638470  18.5430574  51.4049911  59.1952896  19.3003845
  51.4637613  59.5064449  17.8202784  21.1341929  72.3975182  47.8784418
  20.9252763  71.6210604  48.3977747  20.2840614  72.7938223  47.6875210
  61.4614582  36.0595012  37.3300815  62.2485542  35.6632352  36.9563365
  60.9196949  35.3150558  37.5918555  26.3976026  21.3064551   3.5654041
  26.5404868  21.6485810   2.6829267  25.5511522  20.8622599   3.5159367
   8.1216007  26.4330602  24.8030400   7.6487952  27.1121860  24.3219209
   7.7427638  26.4542985  25.6818247  16.4289272  38.1419516   0.2751434
  15.7517004  38.4482813   0.8782662  17.2507131  38.2873535   0.7439265
  42.4387884  23.8269114  34.0915227  43.3516693  24.1109586  34.1383862
  41.9391441  24.5696187  34.4305968  26.9506192  46.9898176  37.1137547
  27.7393389  47.5194025  37.2307777  27.2209287  46.1022902  37.3492670
  24.5468426  39.3316603  43.0335951  24.8355079  39.8438096  42.2782087
  23.6971498  38.9769959  42.7719307   6.2159991  40.6934643  27.6476717
   5.5726635  40.4838991  28.3247495   6.1453104  39.9747372  27.0194459
  14.5541596  54.2879725  11.7555416  15.3773510  54.5289326  11.3306570
  13.9435470  54.1468048  11.0320389  45.9300375   7.7619451  30.8817172
  46.0017157   7.4304843  29.9866056  45.1468420   8.3121538  30.8713841
  17.2326899  46.5354776  24.3760514  17.3158598  45.7178116  23.8854027
  18.1201446  46.8935490  24.3970108  52.9286861  40.5348158  66.2803888
  52.6955652  41.4616346  66.2265968  52.4527216  40.2121496  67.0456171
  42.7584362   7.4010766  25.7020259  43.2859421   6.6319495  25.4865885
  42.0902109   7.0723987  26.3034248  80.2050018  95.2072811  85.1803589
  79.3045425  95.2542591  85.5016041  80.2260113  94.4166756  84.6411705
  61.4969587   3.7931001  21.4547467  60.6509304   3.3484393  21.4023590
  61.8923426   3.4614405  22.2609138  62.3183584  51.5272665  17.4341822
  61.4756536  51.1877823  17.1328092  62.6976919  50.8100700  17.9420900
  42.5767899  64.3947744  92.4864769  42.9633808  65.2701187  92.4630165
  43.3226824  63.8011312  92.4001408  34.0092373  39.3351245  14.5416152
  33.1148767  39.2043114  14.8566389  33.9125538  39.4833255  13.6009133
  46.3319206  46.5660381   3.0619365  45.7534361  45.9741640   2.5810274
  47.1130133  46.0431099   3.2426831  64.9047327  37.0147228   7.8856438
  65.6267595  37.4058414   8.3775097  64.4135427  36.5151238   8.5378444
  70.6246901  50.2921152  20.1456738  71.4667225  50.4578972  20.5696225
  70.8547163  49.9475622  19.2827678  55.9562635  36.5896058  12.7751338
  56.4201593  37.4222994  12.8626275  56.5906620  35.9311104  13.0582452
  32.2884941  50.8052921  22.1104002  31.8154621  51.5719271  21.7867661
  32.7692628  50.4813480  21.3487220 106.6964722  34.9180484  78.1490850
 106.2515640  34.7591662  78.9815760 106.0769558  35.4436111  77.6429081
  68.1367874  81.6498089   8.0489892  67.5628281  81.0503769   7.5720417
  68.5985994  81.0920238   8.6749595  48.2695913  65.5656481  18.2059848
  47.6916027  66.0984945  17.6598740  48.9936018  65.3273249  17.6269829
  50.0043344  36.8568206  26.5486622  50.8873749  37.1409869  26.7847180
  50.0422812  35.9011006  26.5860081  10.2860987  31.3674664  18.4523761
  10.4181325  31.7575264  17.5882852   9.3404168  31.2319779  18.5120332
  45.7086039  52.8995419  27.0550513  46.1582804  53.2479477  26.2852216
  46.3888836  52.8468561  27.7263784  79.0946102  89.2761993  86.5943718
  78.4204245  89.8616600  86.9392490  78.6212826  88.6834621  86.0105419
  62.9464960  64.1646242  22.4184489  62.9387617  64.3492126  23.3576512
  63.8260937  63.8278675  22.2477746  44.6770859  49.4649553  17.9034162
  44.3636656  50.3419924  18.1243360  45.5455542  49.4133615  18.3025849
  58.5659409  57.9627848   5.8234221  58.9391136  58.8438988   5.8480853
  57.7380514  58.0399466   6.2976313   2.0561513  64.9436903  26.4634418
   2.8684807  65.3741169  26.7300630   2.3057687  64.4050789  25.7125592
  48.4055138  11.3336468  20.3089952  48.2580614  12.1197033  20.8349276
  49.2089319  10.9543598  20.6652188  36.9845390  52.3415470  12.9618168
  37.8606796  52.5781012  12.6574290  36.4645457  52.2684956  12.1615028
  56.0385656  68.2369423  92.3420906  56.0073233  68.8952351  91.6478920
  55.5683327  67.4854946  91.9809246  38.6118889  45.8257151  52.8487301
  39.0249228  46.6888475  52.8235102  37.7642584  45.9532690  52.4227190
  51.7907047  26.3445282  38.0446982  51.1189604  25.9541464  38.6037993
  52.5726557  25.8163452  38.2053423  54.0938902  56.2558842  39.6290207
  53.3892250  55.9598207  39.0528035  53.6699772  56.3891602  40.4768229
   5.0056928  52.3718405   2.1173894   5.2096039  51.5645599   1.6452184
   5.7654989  52.9347134   1.9687130  60.1709318  75.6016016  28.3321404
  61.1212492  75.5495405  28.4341931  59.8763466  76.1096382  29.0880179
  12.0566094  28.5310626  28.0728817  12.0895708  28.8555145  27.1729517
  12.1730530  27.5845361  27.9906511  57.9167986  68.9112902  30.6213188
  58.2195616  69.6091366  31.2023330  57.3764896  68.3522749  31.1797094
  24.0504670  55.3440237  32.6408982  23.2018423  55.0315666  32.9546499
  24.0271688  55.1923084  31.6960859  20.6661129   5.0214386  94.7614384
  19.7390676   5.2598053  94.7607422  20.8390307   4.7295040  93.8663960
  79.3824482  61.6978979  20.8108568  79.3297338  60.7444811  20.7441044
  78.8549852  62.0187330  20.0793648  66.1191893  61.4921522  28.7798691
  66.3425779  61.6542196  29.6964169  66.8913078  61.7771387  28.2911515
  82.9259777  75.3024292   4.7684157  82.6886749  74.5639753   4.2075181
  83.4890747  75.8485746   4.2198905  23.2750440  96.4043236  92.4721622
  22.4407935  96.8628788  92.5720882  23.5061193  96.1312771  93.3600140
  29.0259767  46.5779495   9.0427804  28.6861300  46.6563034   9.9341816
  29.2339993  47.4762774   8.7859356  11.1025560  10.1685727  55.3465033
  10.9073317   9.5888895  56.0827684  11.8469810  10.6914818  55.6442070
  67.0155048  61.7597485   1.4637220  66.4086676  61.0791922   1.7549643
  67.3135138  61.4629316   0.6038849  62.1400976  43.0446720  30.3400493
  61.3580465  43.5945368  30.2923298  62.8326225  43.5789394  29.9512053
  33.7540698  42.4114847  21.2392259  32.8511786  42.3566246  20.9261656
  34.1284537  43.1519938  20.7620311  47.7111721  44.5309019   9.0057778
  46.8896675  44.0877151   8.7937629  47.9075623  44.2557573   9.9012995
  19.8043144   2.0517221  84.8381519  20.4553580   2.7524120  84.8756886
  20.2355623   1.3499561  84.3505287 105.1770878  48.6089373  13.6346757
 104.7637749  47.7455711  13.6332870 105.4529572  48.7409592  14.5417023
  62.8043270  78.5045528  23.5786843  62.3901653  77.9124880  22.9508615
  63.6853123  78.6438894  23.2312870  45.2145529  35.5149651  21.6673827
  44.9455166  36.4292073  21.5778899  46.1425352  35.5143046  21.4326859
  47.9892826  12.8659630  -0.0032784  47.4573660  12.2587895   0.5111462
  48.6322355  13.2070291   0.6184318  77.3665285  59.0681934  47.6505613
  76.7268515  59.0015888  46.9416142  77.7341938  59.9472761  47.5596094
  69.1269684  36.5563655  28.6238575  69.1107655  36.7574167  29.5595646
  68.2376671  36.2622881  28.4266329  83.2868958  55.5388737  36.1242986
  82.6607323  54.8653460  35.8587503  82.7929497  56.1044168  36.7179370
  83.5454369  76.4201880  18.9675272  83.4652233  75.5183220  19.2780709
  84.3882942  76.7174339  19.3102562  53.6817551  39.3572235  12.4625361
  54.4482899  39.8072600  12.8176725  54.0210104  38.5202456  12.1453536
  87.7624226  78.4075689  88.7851143  87.5597095  78.6432219  89.6904373
  88.7025928  78.2278252  88.7891865  36.2058949  33.2282543  43.1074905
  36.9390416  33.7179899  42.7348137  35.6915641  32.9526711  42.3487091
  23.1526065 109.1576004  51.2351561  23.6431313 109.9741459  51.3293171
  23.8165712 108.4708691  51.2967157  56.2647533  18.5979748  20.8769751
  55.8149815  17.9938722  21.4677334  56.3370466  19.4116199  21.3759613
  35.9393263  36.9224977  34.2434478  36.6934752  37.4471641  34.5121717
  36.2089705  36.5210295  33.4174061  52.9885340  37.0454168  26.9743896
  53.2714033  37.8676677  27.3745394  53.2403421  36.3722897  27.6066279
  60.4586935  51.0445023   3.1522471  60.0205469  51.5750647   3.8176510
  59.9001694  50.2732658   3.0548871  47.7570963  52.0419168  10.1710689
  47.1857405  51.2905216  10.3297830  47.2873926  52.7844238  10.5509353
  66.0936642  52.2839546  15.8265102  66.9592524  51.8755770  15.8411324
  65.8655453  52.3948860  16.7494893  84.3246460  52.9754925  34.6100688
  85.0119686  53.4074259  35.1172781  83.5106373  53.2291222  35.0451422
  62.2659111  41.6139889  14.5277131  63.1866455  41.8641663  14.6044636
  62.0620966  41.1917019  15.3621995  63.4816551  55.5601168  29.6063662
  63.2576799  55.3151751  30.5041838  62.6366806  55.6747866  29.1715097
  39.9032092  21.2954021  22.7526116  39.0936017  21.7371678  23.0087614
  39.7489595  20.3736854  22.9596734  90.5069447  62.2222185  21.5748525
  91.0862160  62.9270840  21.8644023  89.9240589  62.0703983  22.3187780
  29.4548011  31.3189793  29.5605803  29.7895241  31.1978912  28.6720228
  29.3747067  30.4312062  29.9094033  21.0224366  29.8217869  31.4930630
  20.6961918  29.4185781  30.6885648  20.2500033  29.8976278  32.0532656
  60.9451199  17.7910674  14.8494446  60.7610083  18.4432209  14.1734040
  61.0155344  16.9644475  14.3719792  28.3034205  83.9379120  13.0289733
  29.1037107  83.9549923  13.5538328  27.7103329  84.5411301  13.4768546
  39.8091960  58.5411835  30.7363939  40.3534079  59.1274691  30.2107167
  40.1297045  57.6640940  30.5261183  62.1650791  78.4692240  28.3006811
  61.5257454  79.0895033  27.9503417  62.3506069  77.8785372  27.5706816
  44.4930744  57.8428745  32.6214814  45.4144192  57.9075718  32.8728151
  44.4841623  57.2076702  31.9054770  21.8790078  12.1610117  79.1646147
  22.3512912  11.6549706  78.5034800  20.9995747  11.7831624  79.1723680
  25.7227373  47.3006725  19.4992006  24.8617125  47.0869446  19.8586237
  25.9396267  46.5560818  18.9381504  28.8962960  37.2804689  31.7964745
  28.4172416  37.8979564  32.3491478  29.7255874  37.7202511  31.6091228
  26.3778281  20.8938217  81.1204338  26.0501647  21.2469101  80.2932739
  27.2698998  20.6087327  80.9225273  47.1495008  38.2704544  22.1817684
  47.4084949  37.3841381  22.4339509  46.5861654  38.5677934  22.8962398
  58.2513571  52.3439789   4.5956346  58.9075947  52.9154873   4.9943447
  57.4303579  52.8295040   4.6759704  67.7388477  57.2229910  29.2249346
  68.0117178  58.0822134  29.5466614  68.5213232  56.8645144  28.8060570
  55.2866125  48.4644604  31.6603398  54.3310785  48.4145832  31.6340160
  55.4756927  49.0528440  32.3912859  96.2822914  82.9581356  89.1423321
  96.3839149  83.7579536  88.6263847  95.4032040  82.6453876  88.9287186
  68.5008717  49.0717793  42.7959013  68.8167095  48.4513998  42.1389341
  67.5827742  48.8349247  42.9271603  23.8173914  59.6049118  12.5186551
  23.1810308  58.9161539  12.7107096  23.3564591  60.4195309  12.7190900
  75.1272631  74.7879744  32.8357482  75.0900650  74.5489883  33.7618876
  74.3452501  74.3893480  32.4539328  63.0011320   9.2552656   4.5802519
  62.7485371  10.1392150   4.8468319  62.3106384   8.6927944   4.9310803
  40.4319000  38.2142329   4.8620015  40.8688211  38.5923910   5.6251067
  39.8214912  37.5742817   5.2281922  76.4193439  36.6393065  20.7321215
  76.9166899  37.0959282  21.4106274  75.5181837  36.6392422  21.0548282
  56.8896580  59.1795778  32.6759195  56.3354063  59.9126101  32.9436779
  56.3210917  58.6362410  32.1302533  89.0832996  99.7553349  84.1237068
  88.5283661  99.9744415  83.3751869  89.2431927  98.8156319  84.0363789
  64.0058756  56.3849926  13.4192550  63.1665850  55.9825802  13.1959081
  63.8256836  57.3250294  13.4291625 108.1857204  15.1466095  86.6189861
 108.5218620  15.8868575  86.1137486 108.4527779  14.3748462  86.1196995
  63.6917019  60.8332491  23.4509945  64.3084431  61.3203907  23.9973974
  64.0852976  60.8429384  22.5785136  56.8138123  54.6164560  24.2644572
  56.5421152  54.0610027  23.5337830  56.4202642  55.4685879  24.0767813
  66.4425659  35.7130384   5.9882784  67.3045874  36.0773516   6.1893386
  65.8524323  36.1357331   6.6122240  37.5772810  71.5594006  10.3179169
  38.1612492  71.9023895  10.9943581  36.8430948  71.1833429  10.8034921
  40.8720922  33.1511593  79.8133516  41.8171358  33.0071187  79.8620462
  40.7696199  34.0990901  79.8979759  35.6320000  35.3259134  18.6947656
  36.3528800  34.8922515  18.2381487  36.0581803  35.9806752  19.2478371
  16.9198525   9.8755068  67.8405952  17.2815287   9.1375858  68.3314037
  17.6093626  10.5390608  67.8630257  40.6215763  17.3350537  20.6507206
  40.1334333  16.5719819  20.9600210  40.4551268  18.0090761  21.3096762
  63.2035065  59.3015194  13.2560396  63.6616898  59.4473410  14.0837073
  62.3304176  59.6673298  13.3979225  85.0535202  87.9986763  88.1158352
  84.4738197  87.2442722  88.2210350  85.8642483  87.6305866  87.7644539
  71.8983030  59.2066813   0.8303647  71.5718937  60.1051426   0.7807978
  71.1172581  58.6765003   0.9888146  36.0822487  36.7794514  28.8067174
  36.0427880  37.5453877  29.3794441  36.5538144  36.1219811  29.3181801
  71.1610794  18.0864024  53.3667278  71.8676281  18.3458686  52.7753735
  70.3592014  18.2781780  52.8804779  53.4060478  80.6071091  17.2147620
  54.2564535  80.3894806  16.8330860  53.2074833  81.4798260  16.8753827
  23.7179232   2.2688945  85.1830292  23.5470843   2.8061688  84.4094753
  24.4845438   2.6722524  85.5902481   4.2501774   4.3734086  21.1718798
   3.6342850   3.7802148  21.6020298   3.7169030   4.8549992  20.5394864
  24.3538809  43.0962610  25.1165938  24.4622350  43.7529278  25.8045459
  23.7694573  43.5094357  24.4810081 106.3470173  92.0390129  87.4162388
 107.2865295  91.9542122  87.5786018 105.9376431  91.4945889  88.0887318
   9.9989986   4.8803243  91.5337276   9.8619765   5.0106126  92.4720669
   9.5155430   4.0797088  91.3299656 115.5958557 103.3784485  68.6780882
 116.0626793 104.2137814  68.7010241 114.8187733 103.5234451  69.2178583
  66.6876602  57.8399897  26.3613486  67.3935366  57.5025606  26.9128156
  66.1488247  58.3627272  26.9551778  15.3136981  15.5239403  90.1332569
  15.0050151  16.3522482  90.5004787  15.8998203  15.7811213  89.4215393
  47.7324486  36.9728446  58.6832142  48.1411886  37.8122616  58.8942719
  48.1886864  36.3385415  59.2361546  48.1878614  43.5309172  11.6266799
  48.5141182  42.6606750  11.8557310  48.4799004  44.0927792  12.3444915
 102.2220230  47.7716827  15.0794828 102.4397087  48.6882973  15.2487946
 103.0568409  47.3094368  15.1545870  10.5787909  45.8513737   5.8788538
  11.2393272  45.5282259   5.2660728  10.5008471  46.7838478   5.6772339
  65.7831669  51.2372303  26.2234759  65.3339863  50.6575346  25.6083155
  66.7066336  51.1765862  25.9790087  14.3351865  78.3166361   6.4724684
  13.7636852  78.5970211   5.7576233  15.0206447  77.8039360   6.0440791
  48.3110809  59.3263483  18.2631767  47.4289417  59.6939707  18.2091343
  48.8691521  59.9798822  17.8416562   8.5122025  19.3960118  93.8981819
   9.1962022  19.9272096  93.4904957   7.7614933  19.4798684  93.3102703
  61.8646908 102.8138161  75.8644390  61.8604851 103.3646107  75.0815964
  62.7920151 102.7024269  76.0739374  34.7941256  49.9742174  27.7813935
  33.9208865  50.3661489  27.7900076  34.6900678  49.1685486  27.2751331
  43.7342501  24.6525335  43.0504990  42.8247023  24.9055600  42.8926086
  43.7616634  24.4249010  43.9798355  79.0420246  36.0200405  30.5204511
  79.1940260  36.2553453  31.4357424  79.7439766  35.4036093  30.3118682
  75.5590057  45.0448179  10.9124160  75.0877285  44.7316551  10.1403677
  76.1229229  45.7439375  10.5815601   5.3943664  20.0987792  74.2691135
   5.4221630  21.0513735  74.3587017   4.4615152  19.8899472  74.2200184
  48.4738445  81.6079140   9.4424087  49.0008974  82.2622013   9.9010432
  48.0151987  81.1385250  10.1392269  12.9477656  50.9110308   0.3219964
  12.2628379  51.5627480   0.1724468  13.7553477  51.4214945   0.3808796
  61.4579868  67.1068525   1.9942164  61.1662483  66.2023687   1.8800761
  60.6730127  67.5783253   2.2730684  87.0972633  41.7593479  24.0912676
  87.4730778  42.6361322  24.0122271  87.8352928  41.1681509  23.9428473
  58.8707209  75.1292706  31.7413259  59.3444204  75.1090527  32.5728512
  59.3423176  75.7729197  31.2126088  31.5577292  43.6965752   3.1778577
  30.9695435  43.0862999   3.6226380  31.5557194  44.4775486   3.7313133
  87.2711277  98.0047321  86.7220592  87.9850197  98.1464958  86.1003685
  87.6615524  97.4772167  87.4188614  95.6410980  53.0942822  27.3414636
  94.7179985  52.9280233  27.1504593  95.9184265  53.7113571  26.6643071
  53.9644480  64.5422173  25.3248715  54.4624805  64.6612215  26.1335945
  53.3313131  65.2601147  25.3256464  53.0128527  36.5611410  24.1393566
  53.8813496  36.6311669  23.7430716  53.1541538  36.7656922  25.0637078
  86.1993313  40.3759480  11.1812198  86.6551971  40.0212431  10.4179335
  86.4707661  41.2931442  11.2174606  62.1805191  41.3945103  41.3445568
  62.4454212  42.2881174  41.1265516  62.9908609  40.9643364  41.6175652
  25.7681513  16.0533595  89.8339844  25.8711267  16.9987762  89.9426842
  26.2129021  15.6752062  90.5925560  27.9172683  54.2402649  19.3290031
  28.4792972  54.9052858  18.9313841  28.2542706  54.1432285  20.2196479
  34.4149137  53.1427240  28.6525559  34.8855472  53.4847879  27.8924727
  34.6668863  52.2202635  28.6950636  54.6994638  54.4013548  26.7799950
  55.3809881  54.6568203  26.1583066  55.1796627  54.0933323  27.5486064
  13.3499873   8.1026691  85.9243011  13.3451080   7.2858846  85.4252338
  13.2194316   8.7859100  85.2667618  26.3443518  51.1113596  12.4093759
  26.2980986  51.4680338  13.2964385  26.2220263  51.8705034  11.8393123
  21.8359566  26.8398023  56.0135412  22.0025182  26.9194674  56.9527674
  22.6567125  27.1089721  55.6010628  56.3376999  60.9394455  44.2388439
  55.8080769  60.9191275  43.4417772  56.0762453  60.1544857  44.7202110
  25.9953904  31.4552259  28.4999156  26.2229538  32.2191763  27.9699850
  26.7577386  30.8804631  28.4313250  20.3909254  36.5472507  14.6938050
  20.0541711  35.7492638  14.2863166  19.7758818  36.7315865  15.4037154
  69.0722799  82.1042156  39.5321441  69.8828030  81.8171215  39.1115999
  68.4191132  82.0832825  38.8327360  59.4450617  42.0671272  16.8137014
  60.3715324  41.9676638  17.0327723  59.4122839  42.8472424  16.2600064
  18.1736851   0.5119314  73.2014322  19.0488386   0.7343613  73.5190248
  18.3162987   0.1920432  72.3106098  60.5561686   4.8024929  17.9221427
  61.2825537   4.2782250  17.5848818  60.4827642   4.5466092  18.8415802
  36.3650751  28.9927578  22.9428124  36.4141488  28.0422950  23.0450082
  37.2480845  29.2511630  22.6787019  58.0099440  96.0883999  87.0610523
  58.2192326  96.9866657  87.3171043  57.0866060  96.1196804  86.8106556
  84.1109276   7.1890658  13.6618030  84.6292400   7.8599757  14.1061687
  83.9318275   6.5370041  14.3392766  32.4246383  17.6606560  80.5386829
  32.0255804  16.8108225  80.7251453  33.1576443  17.4586487  79.9571991
  16.5847278  44.0585661  32.6909113  15.9911191  43.3469105  32.9305029
  16.5619934  44.6523285  33.4413505  58.5171366  34.9400139  10.8287024
  58.6146545  34.8199701  11.7733252  58.7893486  35.8443570  10.6728268
  79.7447014  21.6080236  22.7362323  79.5906782  22.1162343  21.9398475
  78.9907217  21.0213161  22.7955294  79.5587826  91.5392780  67.8748560
  79.1696644  91.3766670  68.7341404  80.3901958  91.9731045  68.0666447
   8.5978270  93.7270069  87.4053097   7.9705650  94.0511799  88.0515957
   9.2566228  93.2635498  87.9224396  49.2736816  33.7016392  57.8236818
  49.7956181  33.1223965  58.3789253  49.9105835  34.1077709  57.2357655
  68.3986998  37.4764371  36.5520811  69.1615391  37.9679990  36.8565083
  67.6486778  38.0042839  36.8260884  47.5216722  33.8266850  81.8953228
  48.1694794  33.2338190  82.2762299  46.6781902  33.4226298  82.0990562
  44.3502474  59.6170425  12.8632712  43.5331821  59.3619108  12.4348533
  44.9991560  59.6191025  12.1596038  97.4443531  53.7009478  19.7906125
  97.8467464  52.8484154  19.6247625  97.9377174  54.0591764  20.5285144
  46.1234999  16.9130373  29.3573809  45.9720755  17.5647545  30.0418997
  45.2464199  16.6593814  29.0699363  47.8150558  13.4369946  17.9646313
  46.9246626  13.4261250  18.3157873  48.0109596  14.3652296  17.8372264
  31.1702609  82.2962475  12.0868909  30.2449274  82.1328545  12.2693491
  31.1722755  83.0891800  11.5507162  26.1620474  29.4393682  22.7677107
  26.9782448  29.0513206  22.4523187  25.8996534  30.0430799  22.0727897
  13.7090755  14.4806886  83.1813812  14.6587169  14.4752276  83.0614567
  13.3809161  15.0300395  82.4695110  12.1771443   3.0845860  86.4446545
  11.7966580   2.8103131  87.2790623  13.0918908   3.2773286  86.6503716
  55.1279068  58.4373093  26.2165070  55.4003620  59.3391228  26.3859916
  54.2628622  58.3685112  26.6204882   6.4504468   6.3871115  39.4768000
   7.0306039   6.8575537  38.8781905   5.9024864   5.8488011  38.9056683
  54.2781830  45.0082779  26.2829661  54.2197084  45.2116776  25.3494573
  54.9807453  45.5716896  26.6073132  49.2748833  19.5004320  14.0325797
  49.9775457  19.6270108  13.3950233  49.6326637  18.8745046  14.6622157
  55.2677155  52.9226589  22.5961542  54.6717072  52.8453350  21.8511534
  55.7513857  52.0966768  22.6026773  74.8746300  80.6705475   9.7661483
  75.0876999  79.9852180   9.1327751  74.9822092  80.2500534  10.6192875
  59.4645309  84.6770668  84.1224766  58.7616444  84.0273094  84.1213703
  60.2556276  84.1744614  83.9280891  10.1665461   6.4377785  79.2570066
   9.5837706   5.8071464  78.8340330  10.1928580   6.1623907  80.1733589
  69.2078686  44.7412109  42.1079826  69.0882397  45.6315613  41.7775345
  70.1413822  44.6848440  42.3119545  50.5742407  48.3966064  52.9509592
  50.7514286  47.4875307  52.7092552  50.2966356  48.8117981  52.1343899
  35.2575970  42.2784090  31.5369081  35.2804494  41.8855238  30.6643558
  34.4306588  42.7598810  31.5612030  44.1392040  48.0818367  34.0110803
  43.2623816  47.8905106  34.3439627  44.7278357  47.8025818  34.7123408
  43.2120371  48.3283281   5.7805222  43.4961081  47.5322676   5.3312707
  42.3122168  48.4630251   5.4831886  61.7995405  49.5572281  27.9053736
  61.5934992  48.9290619  27.2131395  62.3947620  50.1825476  27.4919510
  87.8395653  86.5157700  92.6126194  88.2892704  86.5409374  93.4572315
  88.3997822  85.9717178  92.0591068  76.3624144  10.3188467   3.0963859
  76.1093616  10.1978111   4.0115625  76.0696363   9.5192468   2.6591727
  28.9964056  87.8843689  19.2123044  28.1750989  87.3965263  19.1515136
  28.8256860  88.7003422  18.7419116  67.7223969   7.7277613  36.3165808
  66.9611073   7.1776444  36.1320829  67.3551178   8.5241175  36.7001915
  64.6836996  42.6103449  45.8747482  64.5487404  43.1173658  45.0741529
  63.8003635  42.4363375  46.1998177  69.8722982  39.7428536  18.5039878
  69.3573856  39.7156596  19.3104339  69.9835110  40.6760263  18.3221781
  74.1644239  56.7718697  23.4346318  73.5326290  56.0555458  23.3718157
  74.6222210  56.6157150  24.2606258  44.6648359  55.8555174  30.6441641
  44.2357349  55.3613710  29.9456477  44.9128914  55.1928282  31.2887931
  62.3154974  72.7838612  36.0720730  63.0772591  72.2704506  35.8030868
  61.9899368  72.3377514  36.8538880  48.4748602  25.9729433  37.0643163
  47.5708914  25.7192993  37.2507024  48.8434267  25.2217150  36.5995049
  67.2661781  45.6906557  26.1486983  67.7599859  46.3477802  26.6391778
  67.6570368  44.8557425  26.4063501  28.9696312   7.1112424  80.7138348
  28.8133836   6.9736212  81.6481209  29.9010181   7.3242152  80.6555843
  46.7828226  54.3272543   2.0572357  47.1805143  53.4741974   1.8829590
  45.9318447  54.2884636   1.6207004  55.0556946 106.1998272  13.9310241
  55.1645136 105.3675842  14.3912053  55.0667095 105.9638405  13.0034351
   8.0833554  92.3488808  58.3429098   7.9395580  92.1151066  59.2599201
   8.7028956  93.0777931  58.3758688  25.7035184  62.7568483  35.0166607
  26.5295720  62.6180649  34.5534086  25.1159501  62.0885229  34.6640468
  55.2542067  65.1285601  37.5548959  54.7701979  64.6080303  38.1960034
  54.7140121  65.9074879  37.4218941  55.8063459  47.9540634  16.1184037
  54.8584557  48.0488253  16.0248303  55.9785223  47.0387793  15.8973968
  52.3935652  77.5154686   0.8494679  52.3309660  78.4377813   1.0977669
  51.4850473  77.2347689   0.7397563  27.8139019  44.3379307  45.4036331
  28.5442710  44.5231819  45.9939528  28.1550479  44.5351267  44.5312977
  77.4986029  17.3551881  34.4600749  78.2896090  17.2511685  33.9311838
  77.1185064  18.1817555  34.1625142  24.2555404  49.9469566  61.5151453
  24.0612125  50.8708620  61.6728592  25.1369429  49.9479294  61.1418343
  36.7828965  32.5190616  11.1104298  37.5490642  31.9996572  10.8666265
  36.6738081  32.3594952  12.0479107  66.0013580  61.5291119  17.1529651
  66.3568592  62.4153519  17.2195077  66.1607885  61.1418438  18.0136847
  13.1035089  39.5185256  71.4132833  12.9794872  39.8317170  72.3092556
  13.2871604  40.3094339  70.9063578  77.5348330  77.0633030  86.1547184
  78.1300831  76.3164425  86.0906315  77.5533581  77.4597740  85.2836895
   9.2723501   0.4033050  70.2507257  10.0253570   0.8447579  70.6435776
   9.3599725  -0.5095641  70.5249929  50.8306742  59.4442654  40.2754879
  49.9533749  59.0657949  40.2177048  51.3418341  58.7919998  40.7545424
  23.6538839  76.5072536  92.1838856  23.4295607  75.7884455  92.7748299
  24.1104746  77.1397495  92.7385902   7.5978875  12.9579258  65.4438353
   6.6439247  13.0349076  65.4600048   7.7636504  12.0181811  65.5189037
  65.7610464  17.2582054  21.1623430  64.8173332  17.4144864  21.1274981
  66.1234283  17.8283286  20.4842067  29.0270829  36.2348509  15.4433560
  28.3879375  36.8993258  15.1860642  29.3783903  35.9071636  14.6154451
  42.7653503  73.0920792   4.6166945  43.4771061  72.8154993   4.0395129
  42.1475172  72.3611164   4.6022794  26.5155339  27.7076936  26.9898820
  26.6449022  26.7664576  27.1063828  25.6806660  27.8899026  27.4211907
  87.5851536  93.5355759  31.6526055  86.8044853  92.9821014  31.6739774
  87.3332024  94.3237495  32.1337795  93.9111233  92.9134560  92.4238110
  94.7656822  92.5854015  92.7037144  94.1037369  93.4705925  91.6696644
  84.9950218  66.5821934  34.5846581  85.8240032  66.3146877  34.1878271
  84.8352909  65.9309292  35.2677178 109.6772766  37.0040417  91.1213017
 110.4966927  37.4982810  91.0986805 109.0618610  37.5811791  91.5734291
  77.3349190  95.5335808  10.8779252  77.6114655  96.0388374  11.6424346
  76.3957167  95.4002953  11.0058701  25.3738022  57.0480013  22.8032327
  24.8634815  57.6127243  22.2228098  25.0596881  56.1638069  22.6141167
  52.1361065  65.6348753  28.2298303  52.0925760  64.8034763  28.7021852
  52.7456188  66.1684370  28.7397742  46.4960814  76.5138865  77.8792143
  47.0081186  76.2999201  78.6591244  46.9685030  76.0945463  77.1600485
  54.0073204  34.2724466  15.8847451  53.7347317  35.1900077  15.8878517
  54.1549206  34.0633154  16.8070853  55.9071445  67.6345634  32.0210648
  56.0344696  67.0105505  32.7356458  54.9816656  67.8732395  32.0735550
  63.6173868  47.4295092  36.3961291  63.8506460  47.8388166  35.5628896
  63.5376501  48.1610298  37.0082951  15.5166554  21.3135624  93.6712170
  16.1439407  21.2495303  94.3913841  14.8272824  21.8880010  94.0044117
  40.4031754  82.4211025  23.1134129  40.6665087  81.8406105  22.3993230
  40.2085686  81.8315411  23.8419580  37.7295399  37.0755625  12.2750294
  38.4530950  37.2885609  11.6856825  37.6367331  37.8499413  12.8299677
  88.0946350  59.3363094  38.4289098  88.8194466  59.8194981  38.8256669
  88.5184193  58.6876440  37.8668761  90.1805592  63.2710552  34.0624905
  90.5323219  62.4046850  33.8578153  90.1727200  63.7308264  33.2229781
  76.3262415  66.0507250  28.7474346  76.7043018  66.1548471  27.8742456
  77.0752954  66.1055851  29.3408489  77.9417801  98.2310486  45.9963751
  78.0987263  98.4001350  46.9253588  78.5379696  98.8253212  45.5407047
  79.9153662  55.2508211  41.8995523  80.7147694  55.3994131  42.4046326
  79.7102833  54.3267775  42.0420933  48.6635733  62.2392797  28.9491582
  48.0144930  62.7109432  29.4711375  49.1919184  61.7676640  29.5930982
  25.4435587  41.5995789  34.8967433  25.0909376  41.0306406  34.2124915
  25.3258204  42.4860573  34.5553851  54.7225714  58.2056952  30.6063199
  54.3636990  59.0891504  30.5229521  53.9659548  57.6587820  30.8176208
 105.1044369 102.8236580  91.9523716 104.4059563 102.9958248  91.3209438
 104.8880577 103.3741760  92.7049255  66.3142776  47.5000811  16.2372386
  66.7645168  46.6690493  16.3885784  65.4972172  47.4230003  16.7298853
  57.7990818  85.4684544   8.5084933  58.6333656  85.5641747   8.0491102
  57.4891710  86.3656712   8.6316907  57.6600122  50.3464746  13.7313545
  57.0884323  50.0892591  13.0079126  57.5597143  51.2966156  13.7896836
  35.8688378  24.7283530  84.5883751  35.6985545  25.4957294  84.0421391
  35.2858353  24.8352313  85.3399849  61.4564085  77.4324799  21.3753390
  60.7744646  77.0958853  20.7940602  62.2360039  76.9254017  21.1487699
  72.6713419  52.2356129  32.2851324  71.9024563  51.6923618  32.4581242
  72.8926229  52.6152325  33.1355166  41.6333818  42.5852728  18.6458743
  42.5518513  42.6965952  18.4004021  41.5607023  43.0100918  19.5005548
  18.5926557  39.0443420  91.9079494  18.3457148  39.6675587  92.5912189
  18.0235434  38.2890153  92.0556736   4.5620120  30.0916147  84.6707821
   4.8860747  30.9067559  84.2876911   3.6273184  30.0850248  84.4645405
  75.9267950  56.4601803   9.6901286  75.3981352  56.1785841   8.9434981
  75.3535223  57.0488787  10.1810694  80.8078766  73.2624102  24.2237639
  81.5635395  72.6943016  24.3735838  80.9569263  73.6350536  23.3547664
  35.4902196  33.1861424  21.7199349  36.0304284  33.7720752  22.2501135
  35.6800532  32.3118734  22.0602989  79.0164185  52.7831173  38.6866522
  79.6968460  53.2419872  38.1940150  78.2069540  53.2413912  38.4608626
  59.5307684 100.6498909   6.6074532  59.9562311 101.5065956   6.5719229
  60.0447798 100.1023960   6.0139215  32.8411722  24.1887379  34.9006176
  33.0966735  24.2770553  35.8188486  32.4855065  25.0462675  34.6674252
  47.7968836  61.7285919  23.9491224  47.9905605  60.7941341  24.0233421
  47.5172234  61.9857502  24.8276973  26.6118598  52.3601866  46.0912180
  26.9271660  51.9225788  45.3004456  26.0171390  51.7275524  46.4940977
  74.3234873  70.9487677  38.7201262  74.0934706  71.8766403  38.6714101
  75.2805758  70.9395361  38.7314177  74.7903299  82.9770184   8.2636470
  74.8514032  82.2011566   8.8209093  75.1639795  83.6818600   8.7926233
  55.4331970  67.4720573  26.7104077  55.1753616  66.6318703  27.0896649
  54.7271824  68.0711269  26.9530773  64.8401833  49.1133118  11.0823774
  64.5791769  49.4845581  11.9251597  64.0855598  49.2599392  10.5120528
  14.2372358  35.6727076  89.3791485  15.1844835  35.6622672  89.5164204
  13.9887726  36.5900207  89.4933224  53.0199862  74.8801422   9.6957272
  52.2625542  74.6888256  10.2488375  52.6534271  75.3315830   8.9354199
  52.4206877  64.7307968  34.9037552  52.3148727  64.0696430  35.5877900
  52.7314520  65.5080843  35.3679585  76.0878944  93.5567570   8.1835288
  76.8040466  93.6599064   7.5568539  75.3189468  93.8978004   7.7267587
  58.6268663  66.1177349  42.2891426  59.1755295  65.4026270  42.6113558
  57.9151297  65.6813049  41.8209648  59.0474892  73.1739902   4.7508171
  59.0467501  74.0150547   5.2078092  58.1283903  73.0189896   4.5329377
  85.9915733  81.2776470  39.4218159  85.5228329  81.8183422  38.7860799
  86.6937447  81.8422699  39.7449231  96.0872936  25.8956242  12.2912753
  96.6614914  26.6374922  12.4814367  95.2455521  26.1393857  12.6763499
  54.9872589  91.1550045   9.7240424  54.9370861  91.0543537  10.6746125
  54.4513750  91.9255638   9.5361680  41.5119076  24.1266060  16.2054443
  41.8930721  24.3360162  15.3527474  41.9048738  23.2869554  16.4437652
   9.1467154  30.0184345  86.3289070   9.5380557  29.3260574  86.8615341
   8.7255436  29.5547318  85.6051445  31.3138342  84.5636177  17.3530447
  31.7909002  85.3827858  17.4856937  31.2547016  84.1767311  18.2265759
  69.1257763  23.2504439  17.4507451  68.6517000  22.8272724  18.1665742
  69.0325356  22.6481414  16.7126608  36.4634585  37.2356200  20.1215148
  36.6301608  37.9600263  19.5184588  36.8299055  37.5292015  20.9556365
  34.7159410  46.4210272  22.8885102  34.2654705  46.5009212  23.7292981
  34.5485902  45.5201101  22.6117802  88.5734367  61.9602108  23.3290911
  87.8475380  61.3654900  23.1403947  88.2111263  62.8341389  23.1834555
  17.0685112  98.2978630  38.2423186  17.8108966  98.8807964  38.4013152
  17.4459481  97.4184418  38.2623172 115.6057453  67.4135971  17.3552525
 116.0644436  66.8237591  16.7569840 114.9163914  67.8080702  16.8210161
  67.1056652  57.1440268  14.0047956  66.5113688  56.4129734  14.1739440
  67.2456360  57.5425816  14.8637438  50.8768415  55.7222366  45.3010178
  51.7810059  55.9705925  45.4934597  50.4298353  55.7717657  46.1459780
  43.3286428  89.5702362   9.5737535  42.4116850  89.4810295   9.8334867
  43.8126469  89.0633774  10.2257240  49.3015003  64.0529251  21.9644523
  49.3844938  64.4761562  22.8189826  49.5329189  63.1383944  22.1266365
  43.1178427  55.9208441   2.5308162  42.5636435  55.8493042   3.3079767
  42.5011635  56.0126448   1.8045133  59.3918705  77.3310328  30.3389072
  58.5127735  77.2101498  29.9800086  59.5458889  78.2740927  30.2827954
  74.8138380  89.3366718  94.0396881  75.5246067  89.9052238  94.3359756
  74.4715595  89.7690487  93.2573032  41.9461393  59.3664598  11.4810419
  41.0935974  59.1096830  11.8324220  41.7659998  60.1532173  10.9664583
  71.7381048  57.9961920   7.6314086  71.5178967  58.6449814   6.9629699
  70.9780312  57.4151134   7.6607883  36.5671563  52.3224068  18.1752133
  36.2975430  52.6018095  17.3003006  37.5041103  52.1451712  18.0919194
  56.8564939  73.3964968  31.1108422  57.2199297  72.5182724  30.9973836
  57.6227999  73.9670801  31.1695480  22.8331637  10.0442469  86.7365360
  21.9148350   9.8934156  86.5125847  22.8580165  10.9485793  87.0492649
  76.8164015  81.2211227  72.2963572  76.6269445  80.4807568  72.8727245
  76.0466385  81.7852497  72.3701954  48.1335211  63.5940504  35.1370716
  47.7619505  63.6492109  36.0174823  48.3520937  62.6686764  35.0268936
  82.2569370  68.9592981  11.0194504  81.5013790  68.3809805  11.1239779
  81.9137383  69.7191000  10.5491924  59.5944309  68.6774063  21.9142675
  59.8031855  69.0791225  22.7576399  60.3337479  68.0960464  21.7363405
  78.8860893 105.0485039   8.6034030  78.7531614 105.4040527   9.4821239
  79.7180605 104.5783901   8.6585718  91.1865330  58.4973621  44.8838377
  90.8475113  59.3803358  44.7366714  92.0609283  58.6342096  45.2484512
  19.9944568  20.3635240  91.9451714  20.4055762  20.8604836  91.2378979
  19.5727015  21.0274506  92.4906635  52.1772051  85.9332180   8.6851168
  51.9707155  85.0034142   8.5899198  52.2296047  86.0713196   9.6308506
 101.0581589  74.0021896  23.3511281 101.9933033  74.1652441  23.4741998
 101.0037899  73.5388136  22.5153303   2.9535660  15.8007991  50.5388117
   3.5252005  16.4997482  50.2211094   2.4368195  16.2107122  51.2324762
  85.6701279  71.9070053   6.1161464  86.0337830  71.9892597   6.9977468
  84.7766685  71.5924358   6.2539959  98.4971523  31.0198259   9.4967806
  98.4094334  31.7568994  10.1011491  98.2833576  30.2504992  10.0246632
  90.8642292  63.6692905  43.8415051  91.0322952  64.4364071  43.2942200
  90.6722546  64.0300274  44.7070932  76.3099527  72.1967649   2.9964176
  76.9588137  72.7159929   2.5214356  76.7453432  71.9603348   3.8154215
  72.4825478  88.8249683   3.1374523  71.7796564  88.5388756   2.5540766
  72.9019499  89.5477581   2.6706514  94.8592377 108.8666725  68.0434513
  94.1652393 109.1056061  67.4290371  95.1577663 108.0074883  67.7452707
  78.6974287  94.1819859  26.7776823  79.3395853  94.3489075  27.4676108
  78.8303518  93.2633305  26.5439320  37.2495222  67.8269482  18.3845770
  37.4735451  66.9491291  18.6935675  36.3319063  67.7609062  18.1202769
  53.3285618  22.6592398  13.5231996  53.3737278  23.5146356  13.9503872
  53.3113098  22.8595042  12.5873423  57.8275537  65.5060911  38.6935997
  57.0344687  65.5021477  38.1576610  57.5080204  65.4574251  39.5945787
  18.6047828   0.9208916  89.9979973  17.7482247   0.6248426  89.6899509
  18.4218049   1.7328988  90.4706478  78.8621902  93.1349850  10.8484733
  79.7519732  93.3536339  11.1254442  78.3534908  93.9249229  11.0313439
  90.7553291  76.4331484  25.9240294  90.9492302  75.5203199  25.7110095
  91.4788818  76.7063999  26.4879751 112.5553799  48.1232119  64.9448252
 112.7496052  47.2056961  64.7533321 111.6575146  48.2472515  64.6371126
  54.9587011  48.7812567  27.2882867  54.0680027  48.6858654  27.6256204
  55.1465988  49.7163391  27.3692012  68.1646442  80.4986572  44.0807772
  68.4382105  80.0684738  44.8909235  67.5976515  79.8591900  43.6496973
  68.5071421  87.2608376  34.3247175  67.5580978  87.3341751  34.4255853
  68.6543608  87.3365593  33.3819413  98.1505299  51.8587399  45.5641031
  97.3767185  51.4155102  45.2162600  97.9143238  52.0817518  46.4644957
  80.9214973  87.8237915  45.7559204  80.2419186  87.8943825  45.0855303
  81.5431309  88.5192013  45.5409718  60.1658535 107.1975708  26.1764407
  60.0821257 107.2528553  25.2245140  59.8801613 106.3095093  26.3908291
  86.3545990  96.2526989  32.9671383  86.6114330  95.7057476  33.7095046
  86.8621445  97.0570087  33.0753112  43.4610987 102.2010231  10.9985220
  43.4293604 101.3509750  11.4374352  42.8796005 102.1031189  10.2445281
  88.8897705 102.9716015  30.0986528  88.5846806 103.5500050  29.3996549
  89.8442364 102.9968929  30.0309777  46.8500233  57.7823639  34.0031815
  47.7741528  57.5329208  34.0032554  46.5933943  57.7509689  34.9248028
  45.2927589  17.0632029  46.9271994  45.0479507  16.5793967  46.1383867
  45.6010437  16.3907182  47.5346184  57.8622055  77.3032236  21.4702654
  58.0638599  76.3918638  21.6823745  57.3406267  77.6118135  22.2111821
  64.7197819  73.1035185  39.5489383  65.2994013  72.3455143  39.6244287
  63.9125443  72.8322315  39.9859834  65.5095005  75.6784058  54.6582174
  66.1168003  75.0620461  55.0675106  64.9175262  75.9363127  55.3648138
  89.8149586  63.9995623  13.7129092  90.3046703  63.1940222  13.8787889
  89.0684605  63.9533567  14.3102658  41.0444593  27.9266644  87.4630547
  41.8948889  27.6836777  87.0970440  40.4221344  27.3404026  87.0326519
  62.9169798  57.9021835  26.2432933  63.3714867  57.0602703  26.2722087
  63.3796358  58.4461451  26.8807006  69.0430784  83.7714195  32.4224806
  69.7484636  83.1859207  32.6979041  68.4435701  83.7916088  33.1684089
  48.3924055  57.6116896   7.7280736  48.9616537  56.9738102   7.2976124
  47.6044655  57.6343870   7.1850574  55.9496689  69.1452456  22.1093297
  56.2084770  68.4754944  22.7423239  55.8510923  69.9420404  22.6305127
  50.3640938  67.9002476  30.8188581  50.2793980  68.7879038  30.4708362
  51.2860012  67.6785517  30.6877971  41.0180664  44.9377155  26.9223619
  40.6599903  45.6589985  26.4049053  41.2594843  44.2752695  26.2749720
  53.1979990  66.9065809  35.9821796  53.0691767  67.8392839  36.1545157
  53.9473629  66.8741560  35.3875089  93.1052971  52.7706099   8.8344127
  93.7408447  53.1766081   8.2449436  92.6866722  52.0921087   8.3046734
  53.6648607  45.3710270  42.7595663  53.9539909  44.5123672  42.4507952
  54.1865253  45.9951258  42.2549868  76.8150711  57.3190784  14.5006740
  76.1792612  57.0917368  13.8222218  77.1686745  56.4776659  14.7891557
  96.8555737   0.4205748  27.7713275  96.7402554   1.1115196  27.1190023
  97.4672699  -0.1931304  27.3646021  71.5191889  49.6347570   6.7810029
  71.7667294  50.1399803   6.0065979  70.5882645  49.4489098   6.6582346
  80.0309277 100.8147240  90.8129787  80.6060028 100.0649261  90.9656620
  79.4436455 100.8239651  91.5687943  77.3202848  57.5940514  19.0311325
  76.8492842  58.0328894  18.3227468  76.7267132  57.6440525  19.7804046
  83.4041023  73.6625767  25.6886768  82.7234840  74.1696501  25.2461100
  83.6080360  74.1698885  26.4743447  72.0464230  78.3298063  55.8197927
  72.5929880  77.5785923  56.0503769  72.3218203  79.0204144  56.4226580
  70.6704760  65.4689503  28.2109332  70.1748657  66.2827158  28.3024812
  71.5740585  65.7152891  28.4086514  54.0047550  79.0657902  22.3216200
  53.4634399  78.3157110  22.0754695  54.0694427  79.5873070  21.5215755
  58.3277988  77.9697371  33.2310438  58.8080549  78.3302212  32.4856305
  57.4758005  77.7237654  32.8707242 100.6129551  53.1763697  45.8774233
 100.1759624  53.8329840  45.3350925  99.9320602  52.5309849  46.0674191
  75.2398586  71.3018799  18.1460142  74.7360373  71.7643976  18.8156962
  75.5576801  71.9932365  17.5652885  84.6032143  98.3516216   9.3301624
  84.2213535  99.2286301   9.2945462  83.8541794  97.7608776   9.2513758
  64.4187021  90.8244991  36.0384560  64.3047428  91.7208576  36.3543463
  63.5352373  90.5380440  35.8067942  68.7237549  71.0011387  21.1451626
  69.6294785  70.7290888  21.2930870  68.6737633  71.1653852  20.2034855
  47.4002027  59.7051950  -0.1384146  47.1773677  60.1381279   0.6856935
  46.8313729  58.9358510  -0.1662524  54.8348570  62.7359962   8.5181844
  55.0268364  63.5197592   8.0033153  54.2426348  62.2256947   7.9658324
  44.0626574  50.9428501  15.0943446  43.9658880  50.3480339  15.8380270
  44.9282598  51.3342333  15.2117336  55.6385756  59.8472738  20.8253145
  56.4126635  59.5527077  21.3051558  55.7717276  60.7881689  20.7103300
  29.3010330  76.5540266   6.3908452  29.7970343  77.3459530   6.1833185
  28.7007952  76.4471006   5.6529343  75.4726410  43.0099487  16.7082775
  76.1717415  42.5193644  16.2760532  75.4183006  42.6280260  17.5842988
  69.7230577  68.4505320  24.4809341  70.3615427  68.6425066  25.1677489
  69.6982002  69.2453146  23.9480829  83.9249706  47.1943474  40.9967279
  83.5554790  47.1775770  41.8795776  83.5444164  47.9741383  40.5925846
  18.6420166  31.0652447  82.7708054  19.0428567  30.2579355  82.4485970
  17.7006316  30.9187508  82.6782513  73.6817551  36.3767338  27.6760626
  73.4496546  36.3094306  28.6022544  74.1578150  35.5676484  27.4890399
  71.5971613 108.6477757  94.7544384  71.3768911 108.3810616  93.8619232
  72.5409079 108.8059711  94.7311115  64.4827271  66.2126207  24.9316883
  64.1050148  66.7950630  25.5907249  64.8858976  66.8018579  24.2941284
  44.4986439  35.1465821   7.6532823  43.6343384  35.1330233   8.0644089
  44.8690796  34.2852664   7.8460002  69.8807669  39.4148707   6.0505009
  70.7917929  39.6860552   5.9376919  69.5508909  39.9711919   6.7561352
  47.2535992  71.7908430   8.7335736  47.5658846  72.1788168   7.9161465
  47.9845142  71.8951273   9.3427700  56.0293245  71.0905361  23.9782977
  56.7191696  70.7440805  24.5442581  56.2326002  72.0222569  23.8957977
  63.4611511   3.6473137  48.0415344  63.7104559   4.2458904  47.3374176
  62.6019907   3.3154789  47.7808428  74.1269827  52.0073462  35.3462362
  74.5452642  51.2134504  35.0130582  73.9411497  51.8127012  36.2648296
  51.5636444 100.8880329  14.6812487  51.7163038  99.9822426  14.9504268
  52.3199558 101.3686180  15.0177956  31.6089249  41.6183949  44.9025011
  30.6981087  41.4282990  44.6777534  32.0652056  40.7863188  44.7772360
  65.3951645  65.8701611   3.1144670  65.6736612  64.9658394   3.2589358
  65.3088522  65.9452772   2.1641305  45.1337004  52.0350218  30.7513237
  45.2257156  51.1329556  31.0579801  45.5732870  52.0449781  29.9010921
  73.2430840 101.5282345  14.9885678  73.3122683 100.9772015  14.2089438
  74.0936613 101.9628048  15.0509632  60.7867098  74.7817612  39.3812776
  60.9915686  75.7166147  39.3635559  61.2774563  74.4431782  40.1301146
  54.0060425  47.7146387  10.1891255  53.1683254  47.2569609  10.1184857
  53.7719917  48.6019230  10.4614794  40.8742189  91.1254406   8.1834590
  40.6486320  90.8695316   9.0778047  41.2636328  90.3393936   7.8004181
  96.2035370  77.8149319  31.2496543  96.9994545  78.1226206  30.8159757
  96.3930130  76.9056129  31.4808846  59.2420912  83.7312603  -0.2243725
  60.1177979  84.0544605  -0.0124728  59.0610552  83.0727196   0.4462870
  92.9684448  27.3158717  16.3848913  93.7571335  27.8545284  16.4485800
  92.4606228  27.7171779  15.6796956  29.6523142  51.3577271  18.8212454
  28.7687969  51.2406206  18.4720850  29.9404311  50.4729080  19.0455592
  99.2936134   3.2050869  43.3917999  99.6741676   4.0666804  43.5622978
  99.6420670   2.6474461  44.0873957  77.0233107  33.5373759  13.0572295
  77.6250601  33.5058260  12.3135018  77.4881363  33.0844259  13.7607956
  44.6817160  44.0613556  34.0411854  45.3857183  44.4010258  34.5936704
  44.9693298  43.1804657  33.8013053  32.7254558  51.3958263  86.1750507
  32.8246188  50.6857109  86.8091965  31.8935895  51.8090343  86.4063168
  56.3835144  56.9080877  12.7877069  56.9250870  56.2460232  12.3580599
  56.0808516  56.4852667  13.5913539  93.4446907 108.8527775  85.4900265
  92.7273273 109.4816494  85.4116726  94.0799427 109.2840767  86.0615921
  47.8363419  58.8260841   2.5890702  47.7032900  59.7483110   2.8082305
  46.9524384  58.4625959   2.5359300  66.9885111  51.0140753  32.4675512
  67.4718428  51.0069466  31.6413736  66.1060905  50.7281685  32.2312760
  75.6260681  63.1142473  43.9168739  75.5144644  64.0645552  43.8905001
  76.5673590  62.9868269  44.0350580  80.0637245  26.2879586  18.2046926
  79.1459751  26.3815069  17.9493046  80.0345516  25.8036017  19.0297866
  92.4970245  93.2110786   7.6764292  92.6661587  93.6852455   8.4905475
  92.7091885  92.3004150   7.8811443  38.7312436  29.2513657  94.2403984
  39.2564631  28.4511304  94.2391586  38.0205917  29.0723872  93.6246300
  87.1212387  72.5168371  18.0920851  86.7159843  73.1665087  17.5176966
  87.9440403  72.9208946  18.3677089  94.8080444  54.0953302  35.7272267
  94.6625042  54.5846987  34.9175549  95.4682827  54.6032858  36.1987138
  60.3342962  23.6846399   4.9919519  60.2266884  24.5958376   5.2646637
  60.0968218  23.6825132   4.0646803  59.5239782  84.7733402   3.5865688
  59.4147682  83.9129639   3.1815287  58.7156487  85.2411461   3.3768365
 106.8803787  34.8043776  11.8175220 106.3117790  34.7111487  11.0531688
 106.4129257  35.4115701  12.3911393  56.7169762  45.8367348  27.2363949
  56.6239834  46.4020205  26.4695597  56.8275642  46.4429617  27.9688478
  85.6341648  76.3216209  39.2109513  85.2066231  75.6447935  39.7356844
  85.5087471  77.1277380  39.7116303  64.1321945  58.8137770  10.4991388
  63.8295746  58.6704397  11.3958585  65.0692940  58.9877272  10.5875254
  87.1367645  72.3047638  23.5353088  88.0694389  72.1436405  23.3925033
  87.1103477  73.0895472  24.0827084  32.3640585  62.8191042  28.0382586
  33.0122471  63.0352736  27.3679209  32.0950794  63.6663151  28.3933830
  82.4501896  68.2139969  23.5673404  82.1255684  68.3961678  22.6854849
  83.2523155  68.7313938  23.6389279  60.7078552  43.5391712  59.9267387
  60.3302479  43.0917120  60.6839848  60.1726913  43.2514572  59.1871071
  63.2827663  48.4415579  22.0284247  63.5521221  47.6928473  21.4963436
  62.4086761  48.2101154  22.3424864  73.4363031  39.0739870  14.9605060
  72.9971886  39.4566512  14.2009139  74.3098402  39.4653034  14.9544775
  58.3577108  39.1726565  20.6907964  58.9426661  38.4149861  20.6904078
  58.8363218  39.8445034  21.1763716  80.8675194  74.3834877  21.6696167
  81.2763882  73.7734604  21.0556793  80.9383869  75.2370071  21.2421632
  66.7912722  75.2686739  45.0876760  67.2480488  74.4965267  44.7539473
  67.4887371  75.8962059  45.2773523  55.5962944  63.9977312  30.6728029
  56.3853598  64.5162058  30.8302569  55.8818102  63.0898762  30.7753539
  79.9822617  97.1450901  19.0292978  79.7257614  96.5334129  19.7194278
  80.8695889  97.4149513  19.2660761  59.3591928  55.4558134  25.2316999
  58.7970161  55.8080769  25.9217000  59.0275383  54.5706224  25.0811291
  90.2401924  53.3719873  12.0758140  90.6867695  53.8203812  12.7939689
  89.4175816  53.0669498  12.4585629  90.0366592  59.0885019  52.1112299
  90.6935501  58.8652992  52.7707100  89.2242146  59.1897488  52.6071215
  93.6014080  83.1522465  21.1506557  92.9581070  82.7377415  20.5756950
  93.1299686  83.2997131  21.9705558  30.3421783  48.1200457  27.1753979
  30.8595443  47.3359346  26.9917440  29.7642374  47.8628445  27.8937721
  59.4980907  75.6928921  19.2853200  59.9512720  74.8968554  19.5631480
  59.5568609  75.6809282  18.3300006  58.7788963  35.9235430  87.4178600
  57.8315306  36.0562658  87.4512482  59.0899992  36.2000203  88.2798386
  89.6047401  48.4467077  35.6284881  89.5531178  48.2573891  36.5653586
  89.0818214  49.2404222  35.5153537  51.0546780  76.4073277  16.1005485
  51.6238737  77.0515203  15.6795132  50.2778673  76.3729620  15.5423212
  68.2581758  48.0111790  24.8586202  67.5821495  47.4683905  25.2643299
  69.0648651  47.5065088  24.9625206  49.9091864  93.9394855  37.7557063
  50.4171371  93.2049465  37.4112248  49.0028477  93.7311554  37.5290322
  63.5657310  47.6800823  26.0837650  64.0209103  47.8609419  25.2613711
  62.6824999  48.0236530  25.9492445  70.9853125  54.2247534  17.8496766
  70.3886461  53.8337708  18.4879208  70.4779005  54.9301815  17.4482596
  69.4807434  66.3498306  14.6498501  69.0974808  65.5332136  14.3297291
  68.9818192  67.0375490  14.2090046  11.6649234  12.6014841  92.7393341
  10.8194065  12.5662875  92.2920227  11.6558516  11.8470371  93.3283710
  93.4206772  55.1978970   6.7050171  92.8763962  55.9559250   6.4919621
  93.8334942  55.4259777   7.5379598  74.9587822  73.2594442  10.4987383
  74.0998554  73.6141872  10.2693129  75.5251503  73.5131836   9.7699887
  64.5590448  58.3862114  34.2652702  63.7610245  58.3340836  33.7392664
  65.2238750  57.9454231  33.7361741  67.1280098  88.1151009  10.7094169
  68.0302715  88.3466339  10.4890931  67.2068214  87.5471401  11.4758635
  61.8867159  83.1336212   2.2307326  62.6430845  83.1575298   2.8168768
  61.9506168  83.9432526   1.7241213  79.5052481  99.6922684   8.8899547
  80.0039959 100.5078411   8.9379984  79.9137592  99.2034340   8.1755376
  25.8385205   8.2661283  45.0256681  26.3245869   8.6907911  45.7325125
  24.9256921   8.5062641  45.1847649  67.7205944 103.4186554  10.0138795
  68.1504965 103.6035252   9.1788697  66.7931747 103.5883141   9.8485231
  73.3943319  72.3809195  14.8362613  73.4245634  72.3512125  15.7925224
  73.1483221  71.4930344  14.5767069  44.2601681   9.2330498  92.6926804
  43.8152266   8.5478514  92.1939182  44.1657829   8.9638424  93.6063766
  89.4634533  25.6407642  25.7835698  89.5803070  26.0573316  26.6374135
  89.2167950  26.3575625  25.1991129  11.9094586  52.5149250  19.7753870
  12.1597803  52.1433783  20.6212735  10.9961724  52.2528028  19.6594894
  92.1130562  78.9470816  22.6306081  91.8536949  78.0924606  22.2862458
  91.3311386  79.2730951  23.0761909  15.3427732  28.0647850  19.1380548
  16.2774205  28.1400871  19.3304002  15.0390255  27.3526287  19.7009087
  73.3076286  62.4139595  23.4421182  73.7264538  61.6154289  23.7633181
  73.8206053  62.6605558  22.6725221  64.7174644  59.4055319  15.3830683
  65.3446388  58.6918688  15.4995382  64.9700356  60.0557184  16.0385835
   5.0712848  89.6585941  75.7027054   5.6684941  89.9125290  74.9990797
   4.4498479  89.0618038  75.2856970  86.6368675  52.6214695  19.2586339
  85.6908894  52.4965000  19.3344438  86.9325161  51.8895769  18.7171924
  90.5564976  65.5204296   7.1597552  89.6169758  65.6330013   7.3041290
  90.6491756  65.4779673   6.2079990  38.8838339  49.3389893  89.1044426
  39.0651393  48.9342070  89.9526787  39.6972895  49.2351484  88.6107445
  54.3122149  71.8739700  12.0182383  54.7483444  72.6503420  11.6671371
  54.3352509  71.9950056  12.9674745  86.9303894  60.9700394  56.1545181
  87.4235439  60.6760740  56.9204330  86.5498924  61.8068504  56.4213562
  72.9539108  68.2013130  15.9399748  73.5726595  67.4718666  15.9041190
  72.4243307  68.0281353  16.7182982  65.4179335  94.6082687  33.0837774
  66.3559818  94.5958805  32.8936672  65.2339220  95.5167675  33.3225417
  57.4788380  51.1781693  23.6558199  58.2116890  51.2444925  23.0436373
  57.7535152  50.5131197  24.2870831  68.5952568  71.7244196  18.5719347
  68.9128876  72.5356483  18.9684820  68.6730385  71.8720865  17.6293981
  80.8270264  49.2279434   3.0465257  80.2884007  48.7895584   2.3877934
  81.7185974  49.1720963   2.7027071  68.4110785  86.1002827  16.1995697
  67.6458406  86.5818501  16.5137887  68.6295509  85.5040359  16.9158089
  94.4482899 101.9612217  13.5511708  94.8935032 101.9484329  14.3984365
  95.0640774 102.3991966  12.9636204  66.1029243  77.5028896  35.8274555
  66.9768572  77.3195648  36.1722231  65.8156109  76.6719723  35.4489541
  85.8572197  50.7850170  47.0166397  86.0154533  51.4893389  46.3880444
  86.1228085  51.1522961  47.8597307  99.3576813  83.2659054  42.7056551
  99.3982124  82.3098278  42.7278757  98.6711597  83.4617805  42.0680380
  23.6220479  21.5560412  84.9327278  24.2559814  20.9886050  84.4941235
  23.9416742  21.6215825  85.8326054  57.9230642  73.6489630   8.3664644
  57.6519823  74.5106888   8.6829776  58.8749886  73.7112713   8.2877821
  52.9462242 101.4539814  31.9124722  53.0186081 101.3894558  30.9601951
  53.8203669 101.2340927  32.2345686  91.5953541  59.3684196  39.5405650
  91.0355282  60.0427818  39.1557789  92.1833038  59.8490381  40.1232719
  81.0328007  72.9151392  47.7473068  81.4669514  73.2976866  48.5097980
  81.1235619  73.5777569  47.0625162  83.1600285  76.2698030   8.3893186
  83.5134983  76.6332340   7.5774008  83.2711983  75.3236151   8.2965493
  75.7246876  83.2089710  15.8896339  75.2707672  83.5009384  15.0991023
  75.9136486  84.0156174  16.3690615  61.6610527  40.5259800  20.2262044
  61.6095924  39.7124410  19.7244740  61.6463518  40.2445507  21.1409807
  41.3286066  98.5599899   1.0583413  40.7105350  98.3393097   1.7551355
  41.7423058  97.7268982   0.8324295  86.6382980  58.5561180  12.9395664
  86.0095406  57.8508472  12.7863145  87.1450520  58.2647085  13.6975300
  52.6347017  78.4379148  15.3693759  52.5440073  79.3188953  15.7325220
  53.2523441  78.5397577  14.6452379  45.4288912  96.5236378  15.0402188
  45.5408001  96.9966125  14.2155969  45.7345963  95.6365395  14.8509133
  60.5013227  74.1655922  33.9473414  60.9091330  73.5698700  34.5758629
  61.0283470  74.0737677  33.1535888  83.6571121  81.3966846  53.4015322
  83.1311131  82.1399593  53.6966372  84.4527340  81.7925072  53.0458117
  63.0864477  98.5680485  32.0460248  62.7874708  98.4534168  32.9480815
  63.0831718  97.6842308  31.6784763 115.2577877  40.7955360  25.5479598
 114.6906090  41.0138702  24.8084521 116.1320400  40.7208586  25.1654077
 106.9631863  60.3608894  40.8149529 107.2551727  60.0127506  39.9724698
 107.1284962  61.3018322  40.7555485  42.7693748  92.4832153   1.2926584
  42.1584892  92.9765224   1.8401112  43.6201334  92.8901482   1.4565384
  46.4207220   5.0266176  93.6193562  47.1321154   5.6647325  93.6737347
  46.6850138   4.4325647  92.9168701  70.1720142  94.7317791  42.8215456
  70.3504372  95.5694294  42.3940611  69.6860313  94.9652386  43.6124659
  68.8005686  82.7362728  50.6905079  68.6782932  81.7871666  50.6684732
  69.1990089  82.9461002  49.8458481   2.7705821  49.4022846  83.1705761
   1.9987470  49.6432114  83.6828804   2.9341987  48.4874535  83.3997917
   5.3493881  11.3370693  77.1727896   4.7402626  12.0604300  77.0246410
   5.0162327  10.9001064  77.9565620 102.7501392  -0.0317953  11.4295924
 103.2640743  -0.6123463  11.9908941 103.2645130   0.7741546  11.3837695
  92.6509857  67.5595713  18.8253284  92.8677082  66.7777205  18.3174181
  91.8114281  67.8510475  18.4697866  57.8098440  97.6730156  16.8929660
  57.6114416  98.3832932  17.5031888  57.0214128  97.5909615  16.3564265
  62.6504374  62.4921417   9.4832385  63.4097385  62.0601082   9.0920329
  62.0830822  61.7733288   9.7619081  97.7567577  57.1019697  39.5547295
  97.3814774  57.1415854  38.6750507  97.1267605  56.5891075  40.0610065
  74.2242289 106.5431976  31.0493350  73.3640623 106.2228966  30.7777548
  74.0447378 107.0963478  31.8096256  86.7758274  61.0718250  28.2977962
  86.9144726  61.9453669  28.6637688  86.6771603  60.5046511  29.0625238
  69.2443180  38.0621815   9.8130018  69.3877888  38.7557888  10.4568624
  70.0430250  37.5356865   9.8461294  79.8260546  58.7049007  27.8304577
  79.2871952  58.1506538  28.3949661  80.5735397  58.9481306  28.3766627
  65.5292940  83.4423447  29.4381666  66.4778042  83.4803295  29.3152213
  65.2224874  84.3190098  29.2067337 100.6542587  84.9573231  40.8311844
 100.4506779  84.3953037  41.5787983  99.8962688  85.5366898  40.7536650
  67.1390820  50.1793003  20.4869676  67.0379877  49.4133520  21.0520673
  67.3920107  49.8183489  19.6372771  73.4860754  53.3267832  17.6364517
  72.6461077  53.6674595  17.9440665  74.0653563  53.3969641  18.3952248
  80.8633137  65.1061821  13.4932923  81.3708687  64.3005276  13.3956671
  79.9882126  64.8092079  13.7427759  71.2841606  70.1553726  21.0917568
  71.8597746  70.3793764  21.8230057  71.8442583  69.6699333  20.4860568
  66.4874697  70.3893232  26.4641953  67.2570515  70.2881289  25.9040785
  65.9357643  71.0200357  26.0015345 100.5819511  74.7743320   5.9429264
  99.9290085  74.1723585   5.5858201 101.4103508  74.3004990   5.8689970
  76.0968924  17.9947507  86.8759155  76.7035103  18.0739379  86.1397266
  75.5876541  18.8049746  86.8548679  85.5151844  99.2383862  29.9793839
  85.4731083  99.4700527  30.9071732  86.1829567  98.5541344  29.9334145
 104.3367481  87.3555279  30.6790686 104.0516281  86.5309429  31.0727501
 104.3078327  87.9868031  31.3980150  34.2763877  23.6050200  90.2680779
  33.9288163  22.7194953  90.3742599  33.8969827  24.0999126  90.9942818
  55.0240469  88.4877014  11.2818754  54.3640757  87.8206062  11.4706945
  54.7657394  89.2383099  11.8167543  99.0317249  52.7206707  61.7156267
  98.6013603  52.3151684  62.4683475  99.5895195  52.0299482  61.3578653
  39.9497581  77.6170826   4.9150580  40.8376932  77.9710245   4.9653563
  39.4291306  78.1963730   5.4714733  69.9798250  68.1402397  28.9136314
  70.3446865  69.0242386  28.8729835  69.2114639  68.1718206  28.3436775
  86.4079285  94.3482113  73.0983257  86.5861511  93.5648823  73.6187744
  85.5088329  94.2322063  72.7910948  53.2994699 107.4468803   7.9571897
  54.1949224 107.3750782   7.6266700  53.3926725 107.4188232   8.9094281
  14.3563175  18.8617408  33.5396457  13.9182878  18.0641842  33.2425523
  14.4894540  19.3733299  32.7416587  79.6488285 101.6255379  23.9475513
  79.4510365 102.5500679  23.7980509  79.2303514 101.4233398  24.7843456
  43.6499119  95.1551914   2.9342389  43.2344246  95.7710266   2.3306228
  44.0906763  95.7105732   3.5772830  59.4011927  88.0204010   6.3417828
  59.9053812  87.2805309   6.6803277  58.8553190  88.2953548   7.0784360
 109.6133614  78.8629436  45.4109716 109.4078541  78.7167311  44.4875956
 109.8643398  79.7854900  45.4573202  96.9283676  73.6408710  35.8687878
  97.3710442  74.4358015  36.1660266  97.5798702  73.1907225  35.3310680
  84.0109158  71.7166138  30.8478618  84.4194317  71.5988016  29.9902678
  83.7260056  72.6304054  30.8539438  72.8729868  75.7818747  30.1140356
  72.4657011  76.2109518  30.8665276  73.1754971  74.9395323  30.4534101
  96.0227776 100.1389217  18.0735660  96.6661644  99.5017815  17.7631867
  96.5317631 100.7574558  18.5975826  81.8123245  92.4068928  30.7415056
  81.4255238  92.8371429  31.5040684  81.0640621  92.1796894  30.1895022
  36.0029268  20.0296092  83.6544228  36.1642647  19.6770871  82.7792549
  35.1043296  19.7685230  83.8558960  26.7950439  43.8557720  83.8301945
  26.8924236  44.7689629  84.1000557  27.2709942  43.3576012  84.4946671
  73.3228493  94.2728806  15.1526439  72.3932552  94.4896984  15.2238643
  73.3944750  93.3975697  15.5333483  86.9306087  76.8137217  17.5713003
  86.6756153  76.7169666  18.4888232  86.6177559  76.0131454  17.1500647
  71.6262627  83.0205822  19.8616660  71.9561768  83.5561275  20.5831790
  72.2998381  82.3530865  19.7313678  30.6213951  61.4962912  85.7716465
  31.5342426  61.5532351  85.4893398  30.3775787  62.3987675  85.9773731
  63.6685133  71.3935900  10.0773835  63.9296579  70.4935360  10.2721632
  63.4246111  71.3772678   9.1519243  75.6709814  77.2370958  31.8735290
  75.4168320  76.4586496  32.3691750  75.7658815  76.9271660  30.9728789
  81.6850376  29.6113610  25.3471255  82.0424557  29.8255539  24.4853830
  82.2066307  28.8657594  25.6441855  81.0185051  44.6107769  16.4328206
  80.3931236  44.0197372  16.0135186  81.4349937  45.0737095  15.7058680
  72.1992922  83.5371113  11.0203922  72.8207016  84.1639137  10.6499743
  72.2945309  83.6367130  11.9676208  44.0349197  37.7296925  54.3838501
  44.7722960  38.3323622  54.4803143  44.0374327  37.2168469  55.1920700
  76.6925812  77.4675512   5.2663404  77.2237444  76.6738844   5.3310394
  77.0854521  77.9606342   4.5460933  89.1589165  89.1477966  30.7735801
  88.9956188  89.0208054  29.8390007  89.4754314  88.2976723  31.0790944
  49.7646046  68.7482023   5.0628698  49.2590523  68.4539509   4.3052012
  49.4054556  68.2514286   5.7980287  52.1918774  82.6195621  14.5641136
  52.6092768  82.3164272  13.7578130  52.9210663  82.8633785  15.1342666
  64.6854305  87.8215313  48.0471277  63.8343239  88.2439899  48.1628180
  64.6150970  87.3670387  47.2076511  16.2354136  19.2830873  85.7355881
  16.7133141  19.6699786  85.0019932  16.5168965  18.3683097  85.7490349
  13.5068202  70.0629854   1.2996636  12.8901017  70.4162788   0.6585139
  13.8308787  69.2555380   0.9006010 105.0838852  35.5624461  44.5578003
 104.6174335  35.7541847  43.7442350 104.9765778  36.3525772  45.0873375
  73.7859249  99.5403767  12.9140246  74.7114658  99.7369099  13.0588830
  73.6962843  99.4977188  11.9619870  92.5685883  89.3838978  11.3465762
  93.2540894  90.0231171  11.1523294  92.4646282  89.4256115  12.2971988
  72.9158878  80.4524803  81.8189526  72.7941513  81.1792278  82.4298954
  73.0352211  79.6857977  82.3794746  88.5496902  84.4927883  16.5991652
  89.0858173  85.2843761  16.6460598  88.3020973  84.3170738  17.5069404
  63.7052298  87.3750782  34.2686391  64.5568943  86.9544315  34.3867612
  63.3230543  87.3927116  35.1460576  22.4696016  17.3692191  86.9918060
  22.1535802  18.2551444  86.8143272  23.0823445  17.1863234  86.2795353
  93.8998032  72.4377537  15.2975392  93.1067944  72.3866367  15.8311749
  94.4225025  71.6844893  15.5725133  62.2090197  77.0661879  39.6990395
  62.1657610  77.8102541  39.0984344  62.9773664  76.5720320  39.4132257
  94.6023273  91.4361477  45.5577946  95.1920414  90.9124947  46.1002541
  94.9239159  91.3111782  44.6649361  23.8391876  21.1327887   1.2455547
  23.8626742  22.0892930   1.2176590  23.9598703  20.9171081   2.1702975
 107.3447514  63.3616972  33.3418727 107.0592785  62.5321817  33.7248111
 107.1490955  63.2747269  32.4089289  67.4066353  72.9151487  42.7724314
  68.3034658  72.6026678  42.8919363  66.8690872  72.1246338  42.8210163
 101.4693737  96.0319424  20.7087755 102.3723030  96.3353920  20.6145930
 101.4529324  95.1862717  20.2606630  51.2997484  82.8207779   1.6047505
  50.5680704  83.4149170   1.7717087  52.0686102  83.3901501   1.5748295
  79.1325808 100.9724426  38.9547491  79.4376707 100.1073837  38.6812139
  79.1534805 101.4977741  38.1548572  48.4933901  86.3254929  25.3065324
  48.3192015  86.6953564  26.1720324  49.3726206  85.9537888  25.3774381
  68.7247705  86.2942219  75.9350157  67.8203440  86.5862846  75.8212376
  68.8032579  86.1175060  76.8724823  47.3526525  57.2760248  26.1757088
  46.5943098  56.6930866  26.1392117  47.5453520  57.3601580  27.1095276
  64.9812508  72.9035425  17.0116389  64.1983366  73.4505701  16.9480383
  65.4045296  72.9909468  16.1575735  94.6231461  15.9895241  12.1566975
  94.6109104  15.3168857  11.4757872  95.5428314  16.0527396  12.4144125
  92.2719669  82.6414967  10.0085223  92.1526909  81.9031239  10.6058526
  92.0044041  83.4068394  10.5173457  97.6491737  22.2205067   3.4916309
  97.8060246  21.7319846   4.2997006  98.4179592  22.0411944   2.9502910
  56.1651802  77.9377270  23.5802531  55.3549433  78.1928158  23.1390309
  56.2452698  78.5534382  24.3087578  57.6519108  71.4226294   9.9822086
  57.6760483  72.0886421   9.2951339  57.8860903  71.8944311  10.7814550
  90.6125832 100.4485607   7.6327044  90.8627319  99.5246983   7.6442838
  90.5466747 100.6904507   8.5564893  89.6811485  20.9004784  52.6115990
  89.6037674  21.0135365  51.6642570  90.6196976  20.7900429  52.7637672
  73.3185339  79.0282869  15.3390813  72.8766108  78.6736345  14.5676184
  74.0036821  79.5943356  14.9835575  97.5862980  93.8989258  51.3178682
  96.9797516  93.5579109  51.9751787  97.1779823  94.7090626  51.0126066
  63.8530302  76.3426828  21.1703467  63.8079834  75.4487896  21.5096879
  64.7857189  76.5574455  21.1842823  63.3305120  36.3898635  32.8623319
  63.4583473  37.3307228  32.7411890  64.2023134  36.0547090  33.0717731
  62.9813957  30.1317382  90.1807880  62.6370764  29.3283963  90.5710697
  62.8812408  30.0018954  89.2377377  60.5024338  94.3724632  44.3355227
  60.1413393  94.1063690  45.1811218  61.4459944  94.2387867  44.4252682
  58.9808178  77.0773268  39.4668078  58.9194441  76.4548111  40.1913309
  59.4616318  76.6061974  38.7863064  16.7085004  13.4411597  85.3520489
  17.4257469  12.9573703  85.7616043  15.9242857  13.1418800  85.8121300
 102.2725487   6.4682108  32.5241375 102.6533222   6.2965029  33.3853912
 101.3873959   6.1077982  32.5774240  45.2800083 107.8911114  28.4845948
  45.3482866 108.7880230  28.8118911  44.8356199 107.9771042  27.6411772
  92.9571915  98.5301304  29.9430847  92.3840618  99.2591476  30.1803493
  93.7578678  98.9482117  29.6262884  60.8501768  69.0153313   9.6529573
  61.4997339  68.5297585   9.1445088  60.1067495  69.1155529   9.0583944
  89.8709869  97.5231838   4.8915407  90.4866314  96.8042850   4.7487402
  89.3791485  97.2659779   5.6713927  29.3243718  12.2816777  79.9242163
  29.9684215  11.8281209  80.4680157  28.9814830  11.6030562  79.3427277
  43.9477348  47.4543810  90.8096600  43.4529543  48.0167055  91.4056587
  44.4299269  46.8608093  91.3853359  77.6904392 108.4402943  41.1298704
  77.1394920 109.0351486  41.6386318  78.5756207 108.5911751  41.4614105
  93.5714436  80.0052071  20.1971126  93.3933353  79.4462204  20.9534478
  94.5164013  80.1548195  20.2270889  94.6545696  60.0071573  20.8888721
  94.5059776  60.7230520  21.5066457  93.8404942  59.5039225  20.9051061
  66.7882109  91.0323906  17.2280240  66.9282484  90.1459312  17.5608909
  66.1796618  90.9206390  16.4976728 101.7467785  26.8555093  81.6351414
 101.0631084  26.3270617  82.0469379 101.9478321  27.5326252  82.2811508
  56.5096331  93.4723568  59.2878342  56.9127893  93.7434387  60.1125860
  55.7412910  92.9661942  59.5518112  90.4182434  92.2006226  70.3186893
  90.0272560  91.7542458  69.5676184  89.6920872  92.6809406  70.7164764
 105.9216690  67.7247572  47.7661467 105.6437874  68.6370134  47.6837254
 106.8637943  67.7750206  47.9277086  44.3274212  24.7089291  85.6690311
  45.2488565  24.9237895  85.5240440  44.0367746  24.3289208  84.8399639
  36.0201979  80.3184605  20.3730130  36.9532394  80.1984406  20.5498099
  35.5825090  79.7248745  20.9831882 109.4015026  48.2672024  23.3128881
 109.4336224  47.8892517  22.4340534 109.1536236  49.1809130  23.1717491
   2.1985090  78.7375212  16.3727558   1.6159707  78.8134384  17.1284795
   1.7526598  79.2208481  15.6771624  99.3349934  42.7628851  92.9275417
  99.7497272  42.4812460  93.7429619  98.4799957  43.0983639  93.1971169
  87.0518398  66.7158937  26.6016173  87.5668430  67.5095463  26.4563036
  86.2815762  67.0152807  27.0846057  92.4254990  50.1171064   8.3003646
  92.1009064  49.6395588   9.0637916  91.6468143  50.5305815   7.9276311
  26.2349129  29.8593283  84.5778847  25.9257984  28.9576507  84.6654034
  27.1352839  29.8363805  84.9019718  64.2864847  81.1789799  19.6954978
  64.0775537  81.5670109  18.8457870  64.8862028  80.4617214  19.4902968
  70.1349354  42.8376532  31.3880372  69.2762566  42.8267527  30.9652066
  70.0214767  42.3038197  32.1744084  70.0509405  21.0566974  78.4445620
  69.9268103  20.7081866  77.5617456  70.2373934  21.9860363  78.3111620
  52.0861959  83.9072895   5.7724935  51.4519835  83.3137703   5.3703111
  52.2655821  84.5602894   5.0960040  66.1925888  66.4805555  22.0509005
  67.1363449  66.6121244  22.1417284  65.8016777  67.2082949  22.5344419
  62.3351574  76.5592051  34.2099380  62.6742792  76.1385918  35.0000691
  61.6953993  75.9372902  33.8632965  99.2270660  50.1335144  33.9774632
 100.0732803  50.0600386  33.5361528  98.9412308  49.2281914  34.0996027
  81.7288685  85.3606701  13.7627351  81.9810486  86.2545204  13.9943838
  81.2291813  85.0495434  14.5175529  79.2681408  79.0496778  14.4154298
  79.4470263  79.0682554  15.3555810  78.7647390  79.8471594  14.2515993
  82.0791054  74.6871042  45.2945137  82.2060871  75.4083586  45.9108686
  82.8589535  74.7059727  44.7397995  96.0243130  69.1622782  43.6550236
  96.3781929  70.0433207  43.7765360  95.1646996  69.3021107  43.2578373
  68.0508137  89.8142147   3.1635919  67.2493029  89.6726418   2.6598358
  68.5989428  89.0564919   2.9595372  46.7548609  70.0636673   4.5239437
  45.9324646  69.5877171   4.4083333  46.9639635  69.9585915   5.4520953
  61.1357641  67.3903179  37.4620223  60.3659248  67.9249287  37.2676539
  60.7847023  66.5144968  37.6230359  68.2906151  81.1648464  25.7803345
  67.4170971  81.5254974  25.6282496  68.7991476  81.9027138  26.1167526
  58.8675070  24.2714787  85.1179218  59.3838263  24.8407125  85.6885433
  59.1640329  24.4863200  84.2335224  55.2347183  82.7301979  26.2941241
  54.7785091  83.4631824  26.7074466  55.7272673  83.1286049  25.5765605
  10.6461847   9.1940886  86.9222164   9.8562020   9.5915926  87.2884750
  10.7694221   8.3930230  87.4314690  92.8122616  13.1767666  28.4642410
  92.3511696  12.5839424  29.0576959  92.6216221  14.0513182  28.8034272
  95.9873295  88.7009716  33.0722976  95.9727383  89.6306324  32.8448033
  96.7852211  88.5935783  33.5900402  77.1374607  34.0325928   6.8760663
  77.8748322  33.6262441   6.4206558  76.7387867  34.6064901   6.2219018
  60.4550648  61.6245747  27.5176668  60.0367975  60.8661127  27.1102095
  60.8093405  62.1259880  26.7832971  95.5906105  68.2010269  53.3415842
  96.4833164  68.2833529  53.0061150  95.5341244  67.2976589  53.6529684
  66.8874884  97.1763706  33.3381081  67.2694826  98.0326271  33.1453919
  66.4753675  97.2853756  34.1951418  87.6438141  67.3906279  13.4699917
  86.8773746  66.8303061  13.5918009  88.0858994  67.0281744  12.7022493
  73.6276150  92.0217419  16.5805018  73.0976772  92.3434162  17.3098350
  73.8247871  91.1136055  16.8099511  84.0612698  93.2804394  21.1518574
  84.4297123  93.8866711  21.7944789  83.6333370  92.6048183  21.6778207
  87.9212570  85.1371193  28.4472871  87.3395920  84.8629665  27.7382469
  87.3493290  85.5965137  29.0621829  67.8992367  94.4784164  11.5474021
  68.1505585  93.9732552  10.7741737  67.4284506  95.2345371  11.1968935
  52.9436684 100.2344704  12.1132541  52.3034620 100.7302475  12.6237130
  53.4014702  99.6973896  12.7599323  80.4343700  40.2099466  25.3089476
  81.0654449  40.3557587  24.6041632  80.4311085  39.2610908  25.4350162
  92.4180317 109.2988873  89.4764328  93.0928993 108.6614227  89.2431545
  91.5963268 108.8121700  89.4120502 111.8061829  32.7478552  84.1102695
 112.5560093  33.1405044  84.5572948 111.0881233  32.8192353  84.7391796
 114.5900536  17.6341712  26.2598586 113.7715816  17.7485561  26.7428184
 114.4797421  18.1666243  25.4721045  52.7858162  94.3169022  23.5151434
  53.7278557  94.1804981  23.6160374  52.3917866  93.7914562  24.2114758
  82.6949024  69.8671579  46.3369226  83.2395363  70.4260445  45.7826185
  81.9093418  70.3879976  46.5038061  35.5453873  56.2804890  21.0094571
  36.3463616  56.5748167  21.4430928  34.8589587  56.8443775  21.3659358
  66.7876530  79.1704082  31.8148041  65.8916569  79.4137478  32.0476317
  66.8581247  78.2489967  32.0643425  54.1004372  54.1965342  34.7210693
  54.0345812  54.7937107  35.4662371  54.9512434  54.3946886  34.3297958
  54.1734505  90.8310986  12.5688958  53.8072872  90.5810642  13.4172082
  53.5460901  91.4605999  12.2133923 109.5053005 107.5842953  86.3016891
 110.2945042 108.0835819  86.0916901 108.8587856 108.2480431  86.5418530
 100.8492661  91.5034294   9.2038745 100.0090027  91.3730812   9.6434146
 101.5026379  91.2531185   9.8570883  84.3323708  94.8847485  51.0354662
  83.6333561  95.4885960  50.7845306  84.5713711  95.1507187  51.9233704
  32.9669237  84.4538403   4.1432425  32.0516396  84.6822929   3.9810863
  33.3530498  85.2525139   4.5027727   4.7994715  62.6757050  82.3014545
   4.5051220  61.7831993  82.1197319   4.0218177  63.1203794  82.6387215
  90.0068378   1.5165752   3.9039770  90.8706284   1.9289707   3.8980311
  90.0540829   0.8718790   4.6099278  49.8526096   7.2967422  78.3893013
  50.4622889   6.5612245  78.3298349  50.1273251   7.8925115  77.6922894
  17.2079921  10.4657495  79.2644501  17.9832220  10.5028903  79.8246908
  17.4327087  11.0079885  78.5083342 104.4163513  77.5555944  42.6189613
 104.6674156  77.9700947  41.7934990 105.0798321  76.8800688  42.7592850
  74.5267439  84.0524578  27.6988459  74.0689659  84.8449326  27.4183941
  74.6027279  83.5255337  26.9033527 105.8226585 103.1106091  26.8924713
 105.3141880 103.5526371  26.2125468 105.6990337 102.1780109  26.7158079
  20.2266002 106.9008923  14.0873206  20.7202291 107.0518589  13.2812369
  20.1820421 105.9479713  14.1659796 105.0256348   6.1945468  61.5319395
 104.9210453   5.9975630  62.4627924 104.9851704   5.3410566  61.1004877
 103.8859844 100.1356602  59.6089268 103.9963818 101.0777092  59.7376966
 102.9857063  99.9603558  59.8827744   2.4501115   3.5760656   3.4837985
   3.3199325   3.9633605   3.3855876   1.8485743   4.3173334   3.4137499
  80.8244991 101.0849667   2.5460386  81.3266087 100.8922386   3.3378544
  81.0882092 100.4067326   1.9241934  79.9953079  82.2374535  40.8670759
  80.5347157  81.4514256  40.9533167  79.1680765  82.0078754  41.2904167
  60.8760738  89.5580006  18.5115170  60.9083891  88.6109829  18.3760226
  60.5151463  89.6617985  19.3919659  85.6542683  99.4360065  13.1501484
  85.8582592  99.1261482  12.2677600  85.3048801  98.6664009  13.5994506
 112.2643375   6.3614929  31.3377619 112.7141094   5.5212474  31.4267969
 111.3728046   6.1892110  31.6406155  20.6383848  23.6267090  87.4708843
  19.7865963  23.2567716  87.2388649  20.4298806  24.3797851  88.0237293
  68.8275671  92.9079342  41.0550690  69.2180490  93.5276413  41.6712809
  69.5262003  92.7214241  40.4278851  96.3022518  82.5855446  55.7606506
  97.2312737  82.4002171  55.6235075  96.1284828  82.2901344  56.6543865
 115.5756760  83.3611870  38.1727386 114.8020840  83.4182262  37.6119018
 115.3074360  82.7913857  38.8935757  71.9113731  89.1308594  30.2667403
  71.0572624  88.9670849  29.8668671  71.7411184  89.8000336  30.9296560
  18.3861160  28.4581304  92.3774719  18.2687807  28.7356544  91.4689350
  17.7676201  28.9944506  92.8735161  39.8380613  43.8150501  93.0209351
  40.3701544  44.6107101  93.0269337  39.9221206  43.4774208  92.1292114
  83.7859154  86.6197395  21.9316220  82.9094696  86.2605095  21.7936826
  84.3309689  85.8557701  22.1200371  34.7823191  19.7731447  92.1203327
  33.8251328  19.7695732  92.1240139  35.0204754  19.3101192  91.3171387
  17.9908919  70.7310104   6.2978661  17.1248484  71.1098003   6.4485961
  18.3359301  71.2135696   5.5466545  63.4578419  89.0419483  23.9187145
  63.8361549  88.7311363  24.7412181  62.5202370  88.8703632  24.0063953
  89.1013908  68.4316683  47.4995470  88.5691452  67.8347015  46.9736385
  88.5269928  69.1783381  47.6692343  63.8093901  76.8839169  31.6580319
  64.4581366  76.1888075  31.7684340  63.2247829  76.7875242  32.4098134
  49.1155243  17.3510993  51.5037012  49.1887999  16.8378699  52.3083496
  49.2122746  16.7090106  50.8004284  99.2987347  69.3645430  21.1309218
  99.3411827  68.4837770  20.7585216  99.7705746  69.2966223  21.9609737
   0.0114778  99.0137196  19.6541822  -0.6323381  98.3235550  19.4947577
   0.7927851  98.5481453  19.9525559  87.3184681  44.8657513  29.9009275
  87.9887962  45.3348351  30.3977680  86.8271637  44.3785381  30.5623460
  65.4935122  79.3562126  13.5226333  66.3254070  78.9605284  13.7826729
  65.5375481  79.4004726  12.5674725  81.4554501  81.3397598  17.6049066
  80.9244156  80.9647179  18.3074570  81.7920589  80.5811405  17.1280289
   1.5263781  54.6313524  11.0184884   2.2608741  55.2312279  10.8885062
   1.5017706  54.1060066  10.2187145  74.3669796  93.8749027  37.7913070
  74.4502163  94.4466877  38.5544324  75.2233362  93.9172363  37.3657560
  88.4799767  90.2178001  33.4262872  88.5729027  89.3471146  33.8129330
  88.6366081  90.0827980  32.4916887   0.6086488  11.2232161  26.5875387
   0.0648990  11.8189406  26.0720968   0.2171047  10.3608644  26.4487052
  12.6705849  22.2271109  12.2206867  13.4256220  22.7950740  12.0671713
  12.0265126  22.5034523  11.5687370  79.4773197  88.7148285  41.2432289
  79.3304300  89.1876984  40.4240561  80.0421047  89.2932606  41.7557335
   8.9312100   2.5778750  25.0072885   8.3722496   3.3461374  25.1237702
   9.3661427   2.4677058  25.8528233  68.0505657 105.8536625  12.5536847
  67.5504827 106.0468102  13.3466816  67.3989773 105.5269814  11.9332421
  68.5416317  81.9401360  11.6302371  68.6511135  82.2400284  12.5326300
  68.0366325  82.6343060  11.2067568  84.9995804 102.4033356  11.5407348
  85.7572460 102.8513145  11.9168937  85.1130676 101.4871788  11.7937326
  74.4871140  85.6200123  31.1961865  75.0844240  86.3650322  31.2625217
  74.8461008  85.0876808  30.4862666  80.8881569  93.3405209  33.2576370
  81.6496754  93.1416321  33.8024020  80.1704979  92.8529739  33.6619949
  62.4876595  68.4089899  21.3650084  63.0945206  67.7579021  21.0128260
  62.6894903  69.2104292  20.8821082  74.1251183  12.8648996  77.2788906
  73.9713240  13.6536610  77.7989244  73.6652231  12.1720505  77.7529049
  81.3539410 101.0442352  27.2975230  82.1295071 100.5172062  27.4897957
  80.6170750 100.4596424  27.4749970  23.7631369   4.2568883   4.8268825
  23.0270147   4.6130177   5.3244019  23.5170698   4.3844450   3.9106882
 109.9295616  81.4351368  20.4796314 109.6694374  82.1657276  21.0407114
 109.5689487  80.6609726  20.9118915  75.6343889 102.8921223  14.4499302
  76.2891960 103.3223057  13.9000237  76.0898113 102.7192497  15.2739084
  60.0768757  90.6280613  34.2350149  60.3746605  90.6481647  33.3255363
  59.9923086  89.6966457  34.4388175 106.0092449  83.6434841  22.1359158
 105.1204967  83.9841080  22.2376180 106.0154438  82.8340626  22.6468158
  93.7441921  53.8924360   4.4724628  93.6047745  54.3317986   5.3113639
  92.9029942  53.9648151   4.0214720  84.8490810  92.2237587  11.9881189
  84.7780418  92.3858070  12.9288244  85.3949738  92.9393864  11.6623592
 110.7965851  24.8171592  27.8764868 110.9856319  25.5844784  28.4165931
 110.5265522  25.1790047  27.0324612  79.1435099  94.9107838  16.5110815
  79.0575075  94.4689178  15.6663382  78.7413692  94.3094826  17.1379435
  99.6002007  38.5047340  36.9571233  99.2225361  37.6496792  37.1632433
  99.8925114  38.4248710  36.0491538  76.9774342  87.5197983  42.0052433
  77.3236895  86.8366623  41.4310789  77.3724127  88.3288288  41.6801500
  82.0177937 107.5140953  24.0648389  82.2185040 106.6667080  23.6674881
  82.8382874 108.0041313  24.0112162  68.0090809  93.9020157   6.2913197
  67.8713369  94.6980953   5.7779902  67.5948477  93.2099724   5.7758468
 113.0711746   0.8283985  42.7520037 113.9677715   1.0253777  43.0231667
 113.1543064   0.0561138  42.1926355 113.0383492   8.9194423  30.0908017
 112.9474640   9.2395449  29.1933012 112.2976494   8.3248097  30.2091670
  78.3495140  89.8237991  26.6308427  77.5537252  89.3027306  26.5238667
  78.3271170  90.1105595  27.5438023  67.7720213 105.1682377  36.1192346
  67.0397663 104.5804310  36.3050103  67.3856735 105.8769608  35.6047630
  48.6778307 101.4054966   4.6173438  48.1579208 101.5251255   5.4120886
  48.5755014 100.4786015   4.4014457  69.5095062  91.9114685  17.5053108
  68.6593390  91.6858292  17.1277785  69.9247074  92.4669743  16.8455672
   8.5507470  14.2799175  14.2624879   9.1232634  14.3278313  15.0280988
   7.9203331  13.5924661  14.4774783  72.7101040  84.9691963  75.3622675
  73.3492565  85.6400871  75.1222229  72.4493980  84.5775795  74.5286608
  55.5898523  37.0780015  92.1044636  55.5118704  36.1263371  92.1714401
  54.8677397  37.4153876  92.6345062   6.0346228   3.5473791  42.4232626
   5.2409554   3.3555508  41.9237375   6.3850641   2.6874822  42.6556396
  15.9032452  15.7480907  49.8182297  15.9378242  16.3575506  49.0809393
  16.8165123  15.5062044  49.9720621  32.5857353   3.7316832  45.6410360
  31.6473055   3.9020431  45.5600548  32.6782584   3.2991117  46.4898920
  54.5220089 102.1578789  52.0325327  54.3922520 101.2408257  51.7908430
  53.9828062 102.2781563  52.8142166  85.2864075  75.2157497  32.6275229
  85.7816315  74.5164299  33.0540633  85.9220123  75.9216309  32.5093746
  62.7163076  87.8579998   1.6590135  62.3181725  88.7212753   1.7706782
  62.4871778  87.6023293   0.7655002  94.7277927 107.1033001  36.2958455
  95.3727150 107.0684528  37.0023108  95.2495956 107.0786095  35.4937601
  66.0313416  93.4404755  18.4280062  66.3987160  92.7562618  17.8684378
  65.6607199  92.9673004  19.1729712 100.4415607 100.9340477  11.5286767
  99.8667908 101.4904118  11.0030115 100.3988075 101.3089561  12.4083626
  20.9455109  11.4635587  93.3020210  20.7062316  12.0888221  93.9861488
  21.8729281  11.6329885  93.1364250  93.2853317 104.5236397  33.5472226
  93.6202717 104.1812515  34.3759656  94.0560150 104.5797825  32.9823065
  94.9195576  91.2504578  35.1872849  94.0445709  91.2557316  34.7992110
  95.4559708  91.7545795  34.5754385  43.6783504 105.2150726  29.6910763
  43.1837893 105.9361839  29.3016648  44.0856314 105.5964756  30.4688215
  29.8573518  20.7447028  91.0025120  29.3506289  21.4870048  90.6731892
  30.6828403  20.7851362  90.5196381  85.9455299  76.1984587  77.6004601
  86.2087250  75.4005861  77.1418047  86.4151573  76.9000244  77.1493578
 108.0232620  37.1690750  34.1257787 107.5008583  36.8114018  33.4078693
 108.8093472  36.6232419  34.1450477 111.9345760  75.8066511  23.0857849
 111.5989208  74.9248743  23.2471156 112.4838448  75.7151222  22.3072171
  28.7859249   2.2052276  72.8241730  28.7000990   3.0231100  73.3140039
  29.3939853   2.4135242  72.1148729  69.7041035  79.6388674  23.7812400
  69.2916298  80.1817513  24.4530845  70.6348658  79.6474743  24.0044808
  93.4433365  95.4693413  54.4690800  93.8216400  96.3143539  54.2260408
  93.9688301  95.1769638  55.2137947   8.6995417  32.3052025  31.1229920
   8.7876737  31.5307069  31.6785312   8.0151772  32.8253698  31.5440655
 109.9064922  19.8004365  42.2907925 109.3144703  20.4098248  41.8498993
 110.7825661  20.0966811  42.0438766  54.8577070  98.8374710   7.2205263
  55.5029249  98.2651520   7.6357055  54.3976355  99.2497730   7.9516703
  70.4402781  78.0724144  18.1715834  70.6070328  77.4680138  17.4483097
  70.5940342  77.5511932  18.9595675  89.0859604 104.5113945   1.3808675
  89.5397758 103.6759281   1.2700613  89.7763062 105.1286697   1.6230159
  61.6295958  84.4532299  40.9058952  61.2971497  85.1974297  40.4040241
  62.3781490  84.8046494  41.3879681 102.4263668  88.0984116   1.7965630
 103.0780983  87.4466705   1.5382841 101.6036510  87.7718449   1.4322542
  14.3397880  22.0622587  39.7289276  14.4737506  22.0141935  40.6754875
  13.4503508  21.7344594  39.5959568  74.1883039  82.4720669  38.8151383
  74.6530962  82.7252579  38.0175853  74.2472696  81.5168667  38.8337207
  26.3445520  22.4247670  36.3624358  27.2385788  22.7551961  36.2743115
  26.3041115  21.6802692  35.7621717  81.4741993  85.7506180  62.7803373
  82.2572803  85.2815342  62.4922752  81.2848759  86.3609505  62.0676756
  43.8574648  37.8338456  51.5043259  43.1010342  38.1630993  51.0189056
  43.5074282  37.6012921  52.3643398  34.3740058  18.4170234  17.1735573
  34.6474481  19.1861367  17.6734817  33.4364176  18.5456204  17.0299578
  42.5837803  24.5236778   0.6784629  42.9828167  25.0627708  -0.0044580
  42.7790499  23.6236048   0.4177548 113.4268188  77.9558372  92.1716881
 113.1460667  77.3436022  92.8518200 113.3118629  78.8206196  92.5656033
  21.3551521   5.7746035  72.8887892  21.2852550   6.1529309  73.7652683
  20.5231857   5.9906530  72.4676132  78.7099266  29.6171308  12.7241027
  78.4853220  30.2456284  12.0379698  77.9950380  29.6875167  13.3567250
  46.5674734  42.9620457  29.8241186  47.4385977  42.6311970  29.6052337
  45.9839201  42.5321341  29.1989207 110.7953072 105.6379414  82.9864120
 110.7592201 105.4803944  82.0429516 110.4367256 106.5186405  83.0960560
  79.7975588  12.5819767  15.8991969  78.9313698  12.7851570  15.5461133
  79.7124863  12.7281833  16.8413317  60.5810452  74.0829468   8.2515097
  61.1138344  73.4844828   8.7751603  60.9186125  74.9529457   8.4645331
  73.1526899  55.1684284  28.2978034  73.4271908  56.0749531  28.4360027
  73.9674854  54.6939564  28.1328273  65.2796078  46.4358950  23.8672042
  65.6563044  45.7623625  24.4334960  65.2547359  46.0327435  22.9994011
  59.5955133  43.0128384  27.7511239  60.4302883  43.3230543  27.4001932
  59.3262053  42.3183918  27.1499205  59.0261793  33.1391287  28.9481711
  59.3258238  32.2695637  28.6830258  58.3694887  32.9704666  29.6238494
  94.0567017  29.0148687   2.7026844  94.9277306  28.6782455   2.4923876
  94.1195202  29.9569201   2.5451303  51.3798189  20.0553060  12.6217055
  52.0616627  20.1668262  13.2841849  51.5115213  20.7856441  12.0171440
  51.8143702  27.4457216  23.9106727  51.3474369  28.2300162  23.6224246
  51.1392021  26.7688704  23.9580917  86.7801666 107.1934128  83.4117031
  85.9922218 106.8550110  83.8369846  87.2580433 106.4113235  83.1356716
  54.9471474  10.3836787  20.8717155  55.8051491   9.9835443  20.7304645
  55.1183701  11.3254285  20.8670688 110.0479507  63.5864592  92.8208637
 110.0089931  63.3445024  93.7461662 110.7279110  63.0214071  92.4539757
  48.1918097  40.4687214  21.0142493  47.9729366  41.0673189  21.7283916
  47.9088688  39.6093726  21.3268137  48.3983469  18.1413138  40.4575729
  48.5233259  17.5500393  39.7152734  48.0503559  18.9437389  40.0686646
 100.3429031  90.6754208  77.4774837 100.5631065  90.4164410  76.5826797
 101.1425304  90.5122948  77.9776955  37.2098589  98.8345528   4.9762017
  37.0611429  98.9547634   5.9141064  36.6252470  98.1173801   4.7309849
 115.7050323  89.1133404  83.8450718 116.0521984  88.7253761  83.0418301
 115.1322174  88.4382915  84.2089653  23.4041834 104.9581242   7.4574620
  22.8800845 104.9990082   8.2573885  23.5815024 105.8733368   7.2402668
  51.5758562 100.0879097  93.5803032  52.4969769  99.8996544  93.4004974
  51.5521049 101.0301590  93.7471581   4.3348956 100.9731579  25.7050037
   4.9045917 100.2080154  25.6259727   4.6378121 101.5690899  25.0199246
   6.7715728  73.6069679  90.5453777   7.2282416  73.1780720  89.8216820
   7.4647069  73.8328886  91.1656666  63.5244989  39.1377306  32.5307989
  62.8382921  39.8036098  32.5750804  64.2791367  39.5426750  32.9583168
  54.8903179  37.6838541  15.8780611  55.5253839  37.0985365  16.2907684
  54.0596008  37.2112155  15.9305358  28.9614677  36.7047524   9.7148353
  29.9027491  36.7499304   9.5469660  28.6878633  35.8753133   9.3231690
 112.4188137  98.4687424  12.9481101 112.2611046  97.9020882  13.7032652
 112.1216679  97.9551029  12.1970344  67.8848886   5.7881719  42.4097252
  68.3560324   6.3567752  41.8006706  68.5409117   5.1560593  42.7034903
  94.4693184 101.0139847  92.7461720  93.8712025 100.6462574  92.0955849
  95.1831055 100.3786182  92.8014565  91.8395710  69.2453480  83.6507893
  91.4225578  68.4078550  83.4484386  92.3779011  69.4366074  82.8827667
  29.3782663  48.0152416  33.1787062  29.2282939  47.1043730  33.4318066
  29.8407793  47.9584551  32.3425913  94.0024567  81.8963814  88.0015850
  93.1425285  81.4850998  87.9144382  94.1271877  82.3675823  87.1777821
  50.2426815  52.3251057   3.5065156  50.9273338  52.8808832   3.8787997
  50.3495741  51.4837122   3.9502048  88.6698627  21.3945866  16.4766431
  89.5060635  20.9778857  16.6848671  88.0922699  21.1463881  17.1984577
  52.6771069  76.2627602  93.2106209  52.0398998  75.5921125  93.4564495
  52.8848171  76.0719681  92.2959137  13.5766160  11.6733897  24.2094064
  14.0348029  11.5108800  23.3848524  14.0886819  11.2002206  24.8652506
  79.1910887  29.5857596  54.2343092  79.6137571  29.6553016  55.0903130
  78.4598112  30.2018762  54.2775106  72.1175289  31.2079930  20.8090925
  72.8497124  31.3087273  20.2008200  71.3723993  30.9832597  20.2518630
  68.9454889  35.7349539  11.9255662  69.0212774  34.9572206  12.4783945
  69.5548916  36.3638353  12.3120427  40.9036350  30.0432658  24.2495131
  41.5588331  29.3861032  24.4842172  41.2033081  30.8443761  24.6792197
  84.4855404  82.1593094  91.2787914  85.0859165  81.7259216  90.6721973
  83.7831974  81.5235710  91.4158154  23.9097905  97.1450329  79.3253374
  24.5777988  97.7695847  79.0426111  24.1949821  96.3075256  78.9599895
   8.1904119  24.1824245   8.0242395   8.6542338  23.3453965   8.0021936
   7.3400944  23.9956164   7.6263762  74.9545050  80.4610157  44.4186020
  74.6176100  80.8719158  45.2147770  74.5282650  80.9359550  43.7051725
  71.5675545  80.6620312  12.7839959  70.8102942  80.8319664  13.3442795
  71.3169956  81.0133934  11.9295990  78.0295658  31.3311148   4.9500245
  77.6408625  30.8705711   4.2063573  78.8221502  31.7334843   4.5948550
  15.9239233  66.5061951  17.0860791  16.2329638  67.2348070  16.5477073
  15.5761933  65.8741474  16.4569247  74.0705967  13.8149786   4.8268938
  73.6647892  14.5765674   5.2410638  74.6325588  13.4435546   5.5069488
  77.5811195  30.9522438  16.8452847  77.2122240  31.6502810  17.3864818
  77.7677345  30.2443290  17.4619401  77.1119976 104.0819645  92.4327469
  76.5246487 103.6136818  93.0260086  76.5313578 104.6269894  91.9016743
  55.8787870   6.2176585  19.0611875  55.4639149   6.9110662  18.5480618
  55.1525545   5.6622106  19.3445539  53.8034725   7.7336365   6.3179046
  53.4781313   7.6823288   7.2166544  54.2254162   8.5911596   6.2645113
  51.0606050  25.2697539   1.6975217  50.9262514  26.2091804   1.8226579
  51.4360094  25.1962781   0.8200791  17.7517128  29.9515843  15.6636631
  18.1404591  30.0889397  14.7998106  16.9529784  29.4533539  15.4903936
  26.7969084   8.7830412  79.3423367  27.5211191   8.2467055  79.6649742
  26.2122464   8.1607723  78.9096880  47.7219725  18.8393903   0.4355116
  47.6251650  18.4596395  -0.4377864  48.6660528  18.8392389   0.5934473
  66.1316395  78.9514256  18.7551928  65.6665611  78.2883739  18.2450008
  66.7084122  79.3794823  18.1224740  56.4153957  54.4515705   5.1812238
  55.9756994  54.7757959   4.3952322  56.5718269  55.2349567   5.7085443
  32.5932693  50.8306408  35.5558586  33.0011845  51.0700703  36.3880324
  32.3880148  49.9003220  35.6486392  87.0480728 106.1794090  22.3454452
  87.4873352 105.4018211  22.6898885  86.7369747 106.6429329  23.1230021
 100.4864025  82.9775524  84.8876572 100.7483292  82.0642090  84.7717190
 100.8463001  83.2236004  85.7398129  42.1574593  86.1726856  92.8388786
  42.8583479  86.6232872  93.3099842  41.3684177  86.6726303  93.0479336
 102.0922184  30.1496196  80.1477051 102.6959705  29.5160580  79.7600031
 102.4212074  30.2808094  81.0369682   4.3053159  67.6506853  66.8993282
   4.3038782  68.2288170  67.6622105   4.2890182  68.2445097  66.1487675
  22.9951763  17.4551833   2.8120580  23.8606119  17.2024357   3.1335720
  22.4315715  17.4152827   3.5847095  23.3129954  46.3640404  20.6959867
  22.3803806  46.5508032  20.8035874  23.3419323  45.6438971  20.0660753
  72.1233892  53.9522982   7.7566421  72.7699041  53.7322235   7.0859569
  72.4814224  53.5841274   8.5644126  68.3486080  54.2556667  22.4279881
  68.4534740  55.0087976  21.8465877  68.6530447  53.5097980  21.9110441
  28.7358809  10.8337092  38.8402653  29.2860079  10.8258951  39.6235466
  28.9131570   9.9948436  38.4146953  67.3538160  72.2242737  11.8367851
  67.2773600  71.3061953  12.0966423  67.3654222  72.7069616  12.6632869
 100.6018925 102.4396420  92.1473026  99.8528957 102.5236034  92.7373791
 101.3213634 102.1575832  92.7121449  60.1083708  44.3872309  39.4119954
  59.4031525  44.8095846  39.9024200  60.5574369  45.1076794  38.9698124
  66.8186092  49.6790028  17.8178883  66.7500830  48.8911343  17.2786283
  65.9114075  49.9347687  17.9846358  51.4923763  43.1339693   6.6324931
  51.5827656  42.3892689   7.2270370  50.5629873  43.3597660   6.6710079
  97.0247173 101.8462753  81.5462875  96.4098644 102.0873165  82.2391701
  97.8823853 102.0974922  81.8890953  76.6873598  29.1194105  14.6246350
  76.9161367  29.6818900  15.3645742  76.0704184  28.4843183  14.9883246
  49.5721483  12.9916799  28.6549973  48.7069893  13.3991671  28.6960673
  49.9145365  13.2424748  27.7970314  83.8017654  41.7684650  26.7820096
  83.7435436  40.8312464  26.9676399  82.8974819  42.0371294  26.6197777
  45.2984047  22.2164798  41.2103081  44.4756174  22.5809693  41.5364933
  45.2045107  21.2710738  41.3270235  96.9931316  71.6167355  92.2774887
  97.7479553  71.1147833  92.5849056  96.8385696  71.2967205  91.3887024
 115.5886078  73.2245350  72.4270916 115.5126381  73.5715008  71.5382290
 115.6683445  72.2780323  72.3087406  94.7614670  59.4763136  79.8161364
  94.5453072  58.9923477  80.6131840  93.9483452  59.4814873  79.3111181
  84.9406242  20.9671593  25.3312469  85.3145313  20.9501982  26.2122369
  84.0777874  20.5645370  25.4294610  54.2256546  20.7376575  18.6822498
  54.5557833  21.3328147  18.0091715  55.0050306  20.2855253  19.0053391
  36.9443178  72.4772215  83.0986214  36.0318589  72.1951103  83.0348682
  36.8941307  73.3836126  83.4022141  59.7844553  24.8023820  13.6244881
  60.5279684  24.8485065  13.0234134  59.1874409  25.4857612  13.3198571
  61.9259787  17.3953152  56.8602228  62.3242760  16.7046356  56.3305521
  62.1525097  17.1665847  57.7616644  37.9946804  22.2636795  38.4868598
  38.1336522  22.0789671  37.5579882  38.7489486  21.8694544  38.9249206
  47.0889187  47.9724884  20.0829315  46.3501692  47.6483345  20.5981088
  46.8905973  48.8972235  19.9353814  76.2824106  74.7511244  90.4108715
  77.0053148  74.3394566  89.9374104  76.0263109  75.4912519  89.8605537
  58.3011246  38.8167238   3.6532757  57.5818872  39.3583870   3.3284298
  58.3898878  38.1208014   3.0020869  93.2707214  75.8067608  90.1775455
  93.4728718  76.7038584  89.9118614  94.0863228  75.4798841  90.5572701
  36.7634368  18.2139075  36.9296026  36.6987514  19.0947270  36.5605426
  36.1702657  17.6860785  36.3950205  36.8319154  74.1632318   4.4092128
  36.7458439  73.8356972   5.3045028  36.7045784  75.1087475   4.4868064
  54.0773726  67.1959209  29.5779324  53.9370966  67.4452209  30.4913902
  54.0253496  68.0201483  29.0940166  82.9965591  20.5784154  10.5036497
  83.2079029  21.3377810   9.9605769  83.1390285  20.8787918  11.4012611
  23.7874055  45.1666784  33.0140519  23.3199835  45.0432348  33.8401914
  24.6423030  45.5115843  33.2717729  47.1717691  63.0123425  17.1045482
  47.9054737  62.6871681  17.6262450  46.7714739  62.2243929  16.7369413
 102.0823193  72.4129486   8.4508198 102.1261501  72.1572018   7.5294602
 102.5919914  73.2217169   8.4994006  75.1885128  90.9329224  72.2905159
  75.6725597  90.1788235  72.6270676  74.6800518  91.2446976  73.0391836
   0.8383276  94.4733047  80.6898308   0.4043593  95.1560116  80.1781464
   0.2925801  94.3753910  81.4700890   9.0363991   6.5966535  88.6930752
   9.7668815   6.1679274  88.2471752   9.4129390   6.9229299  89.5103836
  39.0943837  28.4111953   7.0917028  39.7140217  28.4514880   6.3632411
  38.6822486  27.5513005   7.0082933   8.7422884  76.8107986  80.9050846
   8.5189110  76.3259125  80.1105881   8.2758939  77.6420784  80.8174419
  55.4568148  73.1294346  28.0499458  56.1314726  72.9990864  28.7163401
  54.7146606  73.4977388  28.5293102  64.4477797  41.8216324  25.2029490
  64.1166401  41.8512487  24.3053412  64.3679190  42.7221251  25.5175352
  60.5124378  51.9578743  10.3460586  61.3284731  52.3698521  10.6299460
  60.4707479  51.1411619  10.8435237  49.2867088  46.6375685   8.8223237
  48.9309072  47.3934937   9.2894620  48.6398268  45.9453917   8.9589274
  94.2838383 107.5670815  88.8405895  93.8968849 106.7308044  89.0996933
  95.2063179 107.3656940  88.6834145  78.4881973  87.2004604  70.3347731
  78.9671373  87.5587082  71.0821056  77.7006578  86.8141556  70.7178879
  40.1993179  52.9889059   1.6442747  41.1070681  52.9825497   1.9478840
  39.7026134  52.6036835   2.3661619   9.3188192  81.9756981  94.4040811
   8.5578729  81.9885536  94.9846189   9.6860124  82.8571316  94.4709577
  37.3473001  26.7348480  81.8600368  36.6622496  26.7169619  82.5283337
  37.2849798  27.6096392  81.4765167  63.1374502   3.9973179  75.1146317
  62.4862862   4.0813264  75.8111668  63.4611559   3.1002247  75.1963091
  60.2973223  76.8699980  36.3028765  60.0457239  75.9728098  36.0838223
  61.1373854  76.9975662  35.8621335  12.4245346  41.2855721  14.2131698
  12.4920237  40.4521942  13.7471676  12.0172024  41.0600328  15.0494981
  56.8220806  58.5375786  17.9456401  56.2957621  59.3367338  17.9695594
  56.7786980  58.1954002  18.8385379 111.2901592  87.1145439  78.2363605
 111.7228222  86.7779541  77.4516726 111.1231899  86.3374996  78.7697840
  34.9390149   5.2638239  82.6674557  34.4329572   6.0290623  82.3944283
  34.2837310   4.6477598  82.9950237  70.8754206  35.4169798   6.5159953
  71.0153151  35.4600549   5.5700535  70.1534843  36.0239363   6.6792297
 104.8488998  25.4517984  77.3861456 103.8960838  25.5361104  77.3505163
 105.0767136  25.6872416  78.2855320  40.8193302  57.9358339  13.9138174
  41.2719774  57.1268368  13.6753678  41.2962723  58.2610273  14.6773684
  51.4972019  22.2603154  87.0672703  51.1334801  23.1382847  86.9527817
  51.4198589  22.0895457  88.0059338  69.5617390  25.7986045  30.5335546
  69.8319817  26.1984944  29.7069430  69.0143681  25.0576615  30.2735043
  64.8262691  16.2855983   7.2932577  65.5642414  16.8520117   7.5186515
  65.1029825  15.8386302   6.4933318  64.3844509  32.1261120   8.4387612
  64.2584515  31.9296050   7.5104612  65.1526833  32.6967001   8.4606689
  57.4407959  57.0831966  26.5704274  57.2756338  57.3825598  27.4644828
  56.6873932  57.3964405  26.0699368  33.6250925   0.7938488  82.8427601
  33.1431222   1.1561920  82.0993614  33.2877517  -0.0971133  82.9356003
  57.9374123  35.6045747   6.6297823  57.1856070  35.3636456   6.0885102
  57.8178406  36.5381885   6.8038499  69.6925354  19.4631362  28.6641383
  69.4380474  18.9818811  29.4514513  70.6464863  19.3894148  28.6362338
 112.3417568  59.5347071   8.1649882 111.6021061  59.9576998   7.7288419
 112.7119637  58.9543056   7.4999207  51.6515493  63.1690979  19.0819013
  51.9557810  63.9382410  18.6001396  50.7076931  63.1456947  18.9243734
  36.6753197 109.4095898  80.6304455  37.4824929 108.9036179  80.7236958
  36.2050056 108.9806557  79.9155617 104.1999912  99.5468616  91.0363293
 104.1619015  99.8353386  90.1244259 104.9198627  98.9163494  91.0582066
  78.1833649  83.3276081  81.3630962  77.5928354  83.2506561  82.1124840
  79.0472794  83.4642220  81.7519665  38.9431190  53.5505867  10.9713793
  38.3028078  53.3583117  10.2863526  38.9035225  54.5011997  11.0762405
  77.7622366  43.0066299  39.8748946  77.9858971  43.5086203  39.0911794
  76.9006538  43.3350468  40.1318979  93.2892227  79.7240877  92.6107979
  93.8264656  80.5161953  92.6237679  92.4127865  80.0251675  92.8504753
  71.9746780  22.7335668   7.2377133  71.8210030  22.0731735   6.5620691
  71.1085987  22.9029679   7.6084459  93.3023930  91.3403034  63.8345957
  93.0771542  92.2612667  63.9661789  93.4773445  91.0083389  64.7151804
  35.5019450  80.2297306  92.9194546  35.6220508  81.1208248  92.5911808
  34.7025919  79.9226236  92.4917316  26.2689471  27.5277328  52.6466656
  26.7611694  28.3252692  52.8413057  26.5272307  27.2987556  51.7538643
  69.9261332  85.9086704  36.2366581  70.0880671  86.6092682  36.8684554
  69.3125439  86.2897015  35.6085253  28.6841774  46.2498569  29.5481372
  28.1219101  46.1663675  28.7779951  28.7358117  47.1925497  29.7059298
  61.7084074  54.4201851  25.1111341  60.9892416  55.0403404  25.2313066
  61.6519260  54.1633511  24.1907644 105.3713036  50.4177046  89.8234272
 105.2406216  49.5149899  90.1137161 104.5822430  50.6248903  89.3227386
  65.1319695  27.8125525  13.3938742  65.7156038  28.2797194  13.9916706
  64.3964767  27.5391579  13.9420843   1.4069304 101.7470932  86.6024017
   1.2964602 102.5497341  87.1121025   0.6443079 101.2139416  86.8268871
  89.2580414  82.9156208  75.6808710  88.9681053  83.7689400  76.0034084
  89.7709656  83.1170654  74.8982096 112.3164463  39.8420238  -0.1764237
 111.9304943  39.1422033   0.3503840 112.0859814  40.6465149   0.2882415
  43.6965752 106.6734314  37.7266002  43.0146837 106.0529613  37.4691558
  43.2881784 107.2098160  38.4061122  74.7164392  11.9872785  14.9646854
  73.8809013  11.7031646  15.3353488  75.3438759  11.8820608  15.6798661
  79.6201992  75.0663328  75.1888275  80.3057957  74.9892092  75.8523321
  78.8354492  75.3055048  75.6819773   3.8174093 102.9874134  89.2856407
   3.6768085 103.0792522  90.2279949   4.7643194 102.8816509  89.1939354
  24.7789907  33.0194163  10.5308950  24.6456194  32.4688339   9.7593355
  25.7153368  32.9487419  10.7166123  96.2810421  80.5485344  90.4751492
  95.5246353  81.0559082  90.7695293  96.7790794  81.1563206  89.9285316
   2.9862708 100.2463245  90.0693417   2.2749192 100.8196735  90.3547859
   3.6575472 100.8436012  89.7393608  24.2563987  92.3129082  81.4307404
  24.7747374  92.2285938  82.2310257  23.5458183  92.9090118  81.6673183
  54.0325260  69.5299911  28.0047584  53.4303808  70.0699377  27.4927902
  54.7986889  70.0876999  28.1396341  49.8418522  26.4747381  92.1680546
  49.8096895  26.4518785  91.2116623  50.1197481  25.5939484  92.4194717
  57.8417015  70.3978443  20.1741385  58.5643959  70.0802898  20.7155252
  57.1897936  69.6978855  20.2103400  80.6750679  96.4623165  75.0809574
  81.1333752  97.1741581  75.5275774  80.4726601  96.8143940  74.2141819
 103.5001087  33.4473252   1.8041399 103.3010769  32.9826403   0.9913143
 103.9966965  34.2165065   1.5248641 105.4089069  69.6469116  81.8110657
 105.8413219  70.5003643  81.8403912 106.1240005  69.0196323  81.7043495
 100.5736542  84.4011974  88.1911087  99.9984932  83.6965084  88.4891510
 101.1717224  84.5482922  88.9238453 105.5281830  66.2012386  76.4738178
 105.7983780  66.5322542  77.3303556 104.5970917  66.4158583  76.4169264
  96.5879250  83.0714226  93.6118793  96.8408775  83.5935974  94.3731785
  97.4099731  82.6986599  93.2932758  82.4047565  91.2966633  81.8161678
  81.4685345  91.1056137  81.8729687  82.5002480  92.1527767  82.2335243
  44.9733400  25.8209181  17.7089739  44.0191031  25.8959317  17.7028883
  45.1707077  25.2172589  16.9928217  23.2713485  99.8919773  92.7207088
  23.3493233 100.8289051  92.5409317  23.7858438  99.7571754  93.5165405
  41.7666101  98.3558083  81.0366726  42.4816942  98.5787392  81.6326427
  41.5443897  99.1829300  80.6092262  49.7506857   0.3735904  92.6103497
  49.8056316   0.8780932  91.7987537  48.8254786   0.4102846  92.8530025
  95.2082729  34.1184759   3.0807450  95.1189137  34.9903893   3.4654713
  96.1513710  33.9549065   3.0745769 113.7168312 106.5158463  82.7167416
 112.8797150 106.1303139  82.9752636 113.7702370 106.3620090  81.7734909
  77.5558329  81.0214901  42.0474100  76.7963457  80.4602051  42.2035074
  78.1806898  80.7739830  42.7289724  57.4032450  40.5517197  63.6336756
  57.0987606  39.6853542  63.3636189  56.8021917  40.8097410  64.3325281
  11.2581730  83.2660007  49.5140314  11.1959350  84.1827202  49.2457533
  11.2189221  83.2930183  50.4700422 107.7601814  81.7372513  71.6932249
 107.0033264  82.0365334  71.1894178 107.9718876  82.4732304  72.2674561
  57.7041721  46.5898085  18.2968760  58.5088396  46.0745382  18.2399690
  57.8390884  47.3130608  17.6845527   5.9948903  86.4772892  63.4490442
   5.9050208  87.3775101  63.7617111   6.9186759  86.2672806  63.5859776
  61.1659765  29.2486906   5.4954910  60.5486965  29.9322343   5.7561940
  60.7484484  28.4319282   5.7689905  94.0791798  84.6778393  93.8121223
  94.4875431  85.0160885  93.0152130  94.8028755  84.2953682  94.3083191
 107.0771885   9.3112695  83.4191418 106.7267704   8.4576511  83.6736488
 107.4299145   9.1729659  82.5401115  72.2856951  85.7889271   5.5571783
  72.2897959  85.1843452   4.8150852  72.1558237  85.2283382   6.3221031
  74.4258928  44.3445730   8.6703151  74.8393822  44.1173506   7.8374743
  73.6221027  44.8011589   8.4219503  70.4902554  33.7296534  22.1779537
  71.1161137  33.4038448  22.8247762  71.0278940  33.9647198  21.4216995
  21.7972207  11.4460623   2.3392956  21.4357901  12.2548413   1.9767003
  22.7145028  11.6528141   2.5184014   1.5212204  72.0628452  93.5942841
   2.3566239  72.5286531  93.6311531   1.5772776  71.5330696  92.7990341
  61.8726397  35.4533458   1.4990743  62.2501993  35.8687067   0.7237335
  62.6285934  35.1340508   1.9918352  85.4098034  96.0309124  77.7325249
  84.4562817  95.9496403  77.7118969  85.6424236  96.3443947  76.8585443
  69.8840141  29.9951243  19.8176038  69.0332651  30.0627589  20.2510619
  69.6806622  30.0362182  18.8831580  63.0882215  78.4115124  14.5526135
  62.5125265  79.1637278  14.4148493  63.9335537  78.6890411  14.1996002
  29.4065237  43.3841372  92.0222187  28.7089944  43.0814457  91.4407825
  30.0200939  43.8377476  91.4442825  70.0564194  68.8936806  33.3196688
  69.2184973  69.3458462  33.2213402  70.3920460  69.1924095  34.1648602
  95.3332043  22.6872253  31.7167044  95.7837486  21.8605852  31.8896580
  95.7126427  22.9995084  30.8952808  50.9693575  17.1672356   6.2685496
  50.1671791  17.2272956   5.7497686  50.6990290  16.7343915   7.0783645
  20.5442262  11.8509281  18.1983638  20.9774566  12.7008843  18.1201375
  19.6929097  12.0509410  18.5875762 110.2905750  93.9435673  70.4951715
 109.7428513  94.7285652  70.4921293 109.9525928  93.4185028  71.2206411
  44.4405222  30.3058624   8.5091102  44.8427391  29.8491073   9.2479134
  44.1656971  29.6065640   7.9160821  61.1403847  10.1812732  78.9828491
  61.4613819  10.5065954  79.8238945  61.6901159   9.4206041  78.7946749
  57.3484564  17.4299550   4.1198322  56.7185116  16.8068862   3.7576315
  57.8599834  17.7198291   3.3644897  48.1784773  34.9435043  15.4352510
  48.4530401  34.7647595  16.3346398  48.1117296  34.0793729  15.0289822
  59.3206453  60.7028484  18.9392936  59.2333221  61.4520788  19.5285809
  59.1891050  61.0692883  18.0648518  51.9908953  52.4029255  22.4713016
  52.2340202  52.2895193  23.3901381  51.0868454  52.7161694  22.4996591
  72.5127029  32.0695710  23.2891989  72.3712683  31.6792989  22.4266934
  73.3448648  31.7007923  23.5854173  67.5744057  71.7253494   7.1022880
  67.2795916  71.7825031   8.0111599  67.9600191  72.5825214   6.9212204
  78.3758068  70.3995800   8.6303782  77.8620005  71.1604834   8.9010394
  78.3008909  69.7873211   9.3623358  42.5119448  23.9647841  87.8485012
  43.1736565  24.0885186  87.1680164  41.8041611  23.4915471  87.4110985
  43.5566664  68.3315468  13.6011970  43.0458832  68.7836266  14.2727304
  44.1371489  69.0055180  13.2476056  23.9725375   9.4383126  82.7766705
  24.7457790   8.8989568  82.9422665  24.0556288   9.7010618  81.8599987
   7.1040356 101.5487099  78.5615253   6.3540792 101.3207722  78.0121231
   7.7359688 100.8464336  78.4075594  98.5622978  49.5756721   4.9127004
  98.4671497  49.9618196   5.7833725  99.4497299  49.2169952   4.9054423
 101.3385582 108.0543232  72.8452015 101.7551327 108.8274956  73.2258606
 100.4609013 108.0426693  73.2270765  61.8851042  57.5053644  15.9270310
  62.7284956  57.1820259  16.2438571  61.2831974  56.7726994  16.0579610
  70.0934076  44.7180748   4.9561924  70.9312105  44.4475174   5.3318536
  70.3142738  45.0317240   4.0792245  14.3922806  94.9862862  81.7189884
  14.1692352  95.7383633  82.2674847  15.2486765  95.2038670  81.3509178
  14.7025096  97.7629185  91.3573265  15.1124096  96.9470310  91.0700226
  14.5709133  97.6464653  92.2982597  38.0715179  34.2356849  17.8353226
  38.2252288  33.5547686  18.4902704  38.4948254  33.9056301  17.0427907
  73.9277935  42.9592419  14.1546643  74.1045475  43.8611031  13.8870168
  74.3873501  42.8624916  14.9887359  98.4920788  11.9228804  12.5988770
  98.5621452  11.2798786  13.3044779  99.2695999  12.4723935  12.6975191
  98.0000687  58.9252949  90.5271816  98.9170837  59.1105127  90.3246498
  97.5327015  59.7199821  90.2697563  46.3028193  79.0335989   9.6214068
  45.9890699  78.7781906   8.7539053  45.7793808  78.5109043  10.2288878
  56.3803816  41.8362284  23.2550621  55.9699202  41.6931534  24.1078711
  55.8501959  42.5200510  22.8457737 102.6994324  98.2934284  72.0942593
 102.9180431  97.8359032  71.2824011 101.8354797  98.6717224  71.9308186
  13.7104154  68.5835838  12.3779905  14.2713511  68.3302498  13.1110704
  14.1205394  68.1812239  11.6123939  95.2476120  89.8157406  91.2012005
  96.1218548  90.0014019  91.5439224  94.9170876  90.6669903  90.9142208
  32.4118853  18.0107749  91.1498833  32.9070377  17.3475981  91.6307640
  31.7696261  17.5113022  90.6456375  40.3273058  46.4697552   3.2839486
  40.5696106  46.6329145   2.3724121  40.0504303  47.3242140   3.6148036
  77.7871561  87.7324581  17.7468991  78.1290150  86.9311237  17.3503768
  78.0827618  88.4326172  17.1649790  90.9046650  74.5580292  90.2693272
  91.8491459  74.7131109  90.2573967  90.6786346  74.3859720  89.3552494
  99.9416542  71.7970896  81.9311237  99.3769932  72.3148441  82.5049782
 100.8306026  72.0044279  82.2192574   3.6861557   5.0320524  78.7237549
   3.8520408   5.9743059  78.6942196   4.1623506   4.7291422  79.4968796
   7.0913202  94.3839931  89.5310116   6.8768543  95.3063297  89.6707821
   6.3026923  94.0118790  89.1362667  61.6755056  66.9187927  27.7818823
  61.3236904  67.8080273  27.7404046  62.4092388  66.9797945  28.3935571
  91.5200901  42.5572586  14.7837281  91.9426250  41.7482233  15.0720906
  90.5982971  42.4413395  15.0141537 112.9973793 105.0343418  89.7598457
 112.3718262 105.6622314  90.1213169 113.4852123 105.5326939  89.1041851
  21.7215228  43.2850122  22.9131246  21.0287905  43.1975889  22.2583628
  21.2573361  43.4686375  23.7298536  48.1511974  35.5797625   6.6622972
  47.2997904  35.9547830   6.8874508  48.3660650  35.9660006   5.8132482
 102.0715809  50.4471540  27.4577236 101.8179321  50.7372427  28.3339310
 101.5258312  49.6783066  27.2926283  85.6473923  87.9968643  92.5345516
  85.6215096  88.0776310  91.5811157  86.4815617  87.5637341  92.7156639
   4.0435150  87.9065323  84.7428513   3.3101371  87.7545261  85.3389072
   4.8104835  87.5925541  85.2218151 111.9050312  25.2763033   0.6687033
 112.2812843  25.4150343  -0.2004472 112.1177769  24.3671513   0.8794553
  32.2287369  42.3443127  13.2690728  32.8636861  42.2469664  12.5594282
  31.3811278  42.3932314  12.8270340  42.4007607  24.2418790  12.9841304
  41.9302082  23.7367463  12.3210669  41.8689919  25.0280213  13.1083715
  72.2495222  26.0340071  11.9181859  72.1474457  25.3968501  11.2111902
  71.5284920  25.8435202  12.5182354 105.7720852  86.6161537   9.5608681
 104.9493885  86.1310387   9.4970632 106.3461971  86.1996651   8.9180851
  44.6485424  18.4178817  80.9341145  44.2659521  19.2225754  81.2838650
  45.1305103  18.7000108  80.1567173  83.8886547  66.1098862   1.1332541
  84.8195553  66.1250639   0.9109432  83.6006737  67.0157528   1.0205027
  62.2759581  55.9645891  20.9301949  62.5311899  56.1666346  21.8303418
  61.7047262  56.6889763  20.6748772  12.7626812  14.7223783  74.9942350
  12.1941471  14.3391132  75.6621504  12.4891734  14.3038285  74.1779995
   4.8819795  99.4160461  77.7338934   4.0867254  99.8075771  77.3726416
   5.0245547  98.6315060  77.2043610 107.6141453  87.9673576  78.0971336
 107.8903580  87.0549297  78.0110168 108.4043217  88.4317684  78.3731556
 113.4073353  81.7207146  91.8754196 112.4598885  81.7921352  91.7593193
 113.5495853  81.9065380  92.8035736   5.2628100  89.7111034  78.8595343
   4.8046798  90.4732323  79.2137909   5.0589609  89.7224331  77.9243612
  73.9015388  12.2640765  41.4166498  74.8416090  12.2637844  41.2363911
  73.5293293  11.6887295  40.7483196  79.3941355  78.6934853   1.1227289
  80.1714230  78.1700993   0.9274783  78.7681389  78.4572029   0.4382325
  76.1270618  75.6335068   0.9348650  75.6818533  74.9149799   0.4857076
  76.7408323  75.9778452   0.2860642  97.8440094  87.0211411  83.7560272
  96.9612885  86.9644260  83.3902073  98.4062004  86.6311646  83.0866337
  92.6166630  46.8963909  22.0211339  92.6205826  45.9408569  22.0774865
  93.3438873  47.1047115  21.4346361  96.5162849  67.5079727  13.0329943
  96.5875053  66.9464159  12.2611034  95.8574867  68.1602240  12.7947032
   6.0392547  93.0882835  79.3924713   6.8204445  93.5948372  79.6146822
   5.3125435  93.6014366  79.7457361  48.9785957 109.2651463   1.3768616
  49.9130869 109.0676212   1.3140637  48.6403847 109.1058826   0.4956806
  61.4913368  57.7142286  30.2454162  60.7236910  58.0450583  30.7117844
  61.8883514  58.4928131  29.8550105 104.6369743  91.5100479  83.8119316
 104.2747021  91.8354988  82.9878712 103.8732052  91.3768673  84.3733120
   4.5596138  59.7673225  82.1930218   5.1106119  59.0915537  82.5879478
   3.8764417  59.9297047  82.8435135  11.1425245   3.9803857  76.7353630
  10.1958787   4.0643275  76.8495846  11.5145087   4.6247363  77.3375845
  32.9664516  66.2221622   7.5747192  33.7596941  66.6974354   7.8219390
  32.7370405  65.7169580   8.3547002  65.6633520  23.4943366  35.4688573
  65.8084345  22.6743579  35.9408879  64.7443962  23.7059164  35.6331491
  55.5548525  67.0006561  34.6558666  55.9975958  66.1647463  34.5093441
  55.9239769  67.3265457  35.4767036  92.5107574  71.7415619  11.3572502
  91.8524265  71.4614439  10.7213521  92.3338985  71.2114668  12.1343923
  41.6476583  16.3490880  90.5114841  41.5820074  15.4046881  90.6530190
  42.5723791  16.4979863  90.3141212  69.6476460  34.4060874  51.8566608
  70.0518370  33.6399198  51.4494133  70.3091526  34.7290993  52.4684620
 115.8392048  73.4658003  90.8322048 115.5150414  73.0462027  91.6291332
 116.0689354  72.7378416  90.2546883 100.0962257  90.6084061  32.1987319
  99.4054127  90.5840302  31.5366006 100.9105587  90.5978012  31.6957593
  52.3604345  22.0705914   4.3509361  52.7281857  21.8319058   5.2018303
  52.2953129  21.2414694   3.8770688  28.2212090  83.4801483  86.1086559
  29.0389657  83.5932255  85.6241798  28.3164477  84.0461159  86.8747139
  72.3792887  39.5504522   8.8760602  72.0234823  38.8781047   9.4570798
  73.2301426  39.7694516   9.2559487  53.0515242  31.0851407  27.6620936
  53.1109619  30.1306939  27.6204801  52.3699570  31.2545443  28.3124781
  71.8168306  38.4306145   2.1131079  72.5529957  37.8188992   2.1231593
  72.1060896  39.1624594   2.6580527  61.2482119  49.3495417   6.8277246
  60.4095507  49.6480227   7.1795547  61.5713263  50.0916386   6.3167286
  70.4644203  23.3558798   3.8239586  70.2254295  24.0542841   3.2145756
  70.0803280  22.5653505   3.4447986   1.8177986  96.9548988  84.0266895
   1.8115561  97.8240108  83.6256504   2.3893103  97.0469761  84.7890091
  58.8690138  13.6837554  15.3110814  59.6248055  13.8921750  15.8602345
  58.3538580  14.4903731  15.2964699  70.5844069  52.3494911  34.6729445
  71.1421967  53.0935287  34.4459677  70.4154968  51.9132376  33.8378501
  38.3579874  89.0503788  82.2609520  38.4505200  88.6966515  83.1455708
  38.9055133  88.4834194  81.7178154  41.0640097   1.0456403  89.1527748
  41.4513922   0.6829500  89.9494076  41.7269039   0.9021915  88.4773254
  71.7213535  98.9130974  20.9385443  71.6539574  99.2836761  21.8185234
  72.2470713  99.5473862  20.4511690  79.4044590  97.7999020  92.1419907
  79.3982601  96.8427467  92.1491337  80.2982426  98.0354977  92.3907471
 109.6955872  21.0956931  92.1259212 110.3925705  21.4439988  91.5699291
 108.8900185  21.2760353  91.6413879  89.8035526  33.9383507  25.8707166
  89.6366119  33.8867521  24.9295998  89.6166992  34.8493242  26.0975242
  87.4587536  68.5289192  76.6535807  87.0392609  68.8771057  75.8667994
  87.6397705  67.6128674  76.4430666  20.7038617  76.5723753  84.6053600
  20.0114059  75.9358406  84.4277000  21.2851524  76.1279488  85.2224636
  68.1445265   2.7342650  22.2086477  67.2955799   3.1310019  22.0134044
  68.5568333   3.3411768  22.8233790 109.2722416  94.9274349  31.6667366
 109.8768330  94.5816040  32.3233294 109.5578098  94.5288181  30.8446717
  28.8433146  60.8183908  14.5980334  29.5552635  60.2041197  14.4190621
  28.0693412  60.4064703  14.2139471  11.1249912  78.0305910  82.6558304
  10.5034614  77.3264933  82.8406906  10.7544029  78.7978411  83.0919838
  48.1246805  62.1393776  93.7008095  47.3767853  62.6121426  93.3356094
  48.8047600  62.2130823  93.0312634  74.3786716  18.1306267  69.7035360
  75.2618551  18.1451118  70.0723267  74.5149136  18.1151760  68.7562084
  15.6276667  17.2011936  17.2108352  16.3101363  16.7614913  17.7179158
  15.0697827  16.4909649  16.8937027  73.3895445  33.4236622   0.3951661
  73.8914394  34.2387128   0.4002464  73.2128239  33.2454419   1.3188754
   4.3312398  12.0230627  94.6543694   3.6148548  11.9803500  94.0209675
   4.7832519  12.8416622  94.4498920  62.5601292  58.1233740  23.3738303
  62.9402876  58.9992476  23.3063245  62.5797224  57.9252815  24.3101025
  70.7483768  46.3423157  32.5225472  70.2039051  45.8502150  33.1370544
  70.9931183  45.7025242  31.8539667  85.2511311  58.8899803   3.8372996
  84.5069981  58.9072752   3.2354766  86.0172558  58.8125324   3.2687211
  98.8486862  44.3236494  23.8816309  99.6991634  44.0242767  23.5602140
  98.2575989  43.5895109  23.7146592  81.2882042  33.4309316   1.1506005
  81.6170597  33.5189795   0.2559864  81.4510822  34.2850661   1.5508026
  54.0611362  71.8484592  26.1293697  54.6038866  72.4289656  26.6629124
  54.6280670  71.5919781  25.4020190  11.2145102  80.1486492  93.4197330
  10.6179488  80.7133389  93.9111233  11.8349075  79.8282957  94.0744972
  88.7405586  75.9150648  20.9239674  88.5750675  75.3463268  20.1720476
  87.9195309  75.9066010  21.4159727  94.3393326  69.0795755   3.3035150
  94.1519165  68.7356234   2.4301299  93.8124466  69.8763275   3.3653021
  86.5471935  78.7309647  46.2878466  87.2345829  79.0700293  46.8612242
  86.9262791  77.9422617  45.8999348  70.7808352  60.4874897  16.4247179
  70.4320335  60.0293159  17.1893382  70.6750536  59.8661566  15.7043111
  17.2091484  16.2047195  88.0830574  17.8981483  15.6614864  88.4656906
  16.9082773  15.7088149  87.3216152  52.3345089  62.8412628  15.6809318
  53.0953932  62.3141098  15.4372108  52.5571012  63.2003403  16.5398538
  35.1699996   1.5520726  66.7239666  34.6608090   1.1321665  66.0306883
  35.8261585   2.0707968  66.2585497  51.1901045  55.7035160  13.8153076
  51.5802288  55.8965397  14.6678197  51.9253302  55.7335806  13.2031238
  44.0485811  40.0783253  10.2431667  44.2776299  40.7720041  10.8616972
  44.7139454  39.4043446  10.3819919  63.6182022  10.3105640  86.5972424
  64.2289257   9.6589255  86.2528324  63.9999104  11.1520994  86.3475323
  73.6021614  73.2764530  34.9536180  73.7025356  72.3484087  35.1654935
  73.0607700  73.2847261  34.1642761  87.5711918  44.3622017  39.6473193
  87.0223141  44.9968719  40.1079178  88.3346748  44.2502069  40.2137041
  36.4204311  18.7501681  64.7183609  36.7924261  19.6111846  64.5273066
  37.0659494  18.3313334  65.2876663  34.0676689   7.9242885  90.4584694
  33.3115935   7.4767154  90.0786495  34.7374439   7.8844059  89.7757912
  23.2224250  94.9135399  82.1773720  23.1770110  94.9974823  83.1297970
  24.1590381  94.9254227  81.9802761  81.9271183  26.2739491   7.7403903
  82.5872993  26.9669628   7.7517658  82.1538544  25.7396317   6.9792557
  64.8083258  52.9013729  33.2475066  64.6304750  51.9881439  33.0225253
  65.1981974  52.8613472  34.1207933  88.7643909  21.9470382  67.5817633
  89.3223190  22.3172259  66.8977308  88.4684372  21.1104965  67.2228098
   0.0406631   4.8521394  88.7269783   0.5318701   4.5853966  87.9499340
   0.1795851   5.7974041  88.7853527  83.9534092  72.1141911  16.9798386
  83.9860439  72.6631165  16.1963522  84.8526764  71.8070078  17.0946944
  40.3668261  61.7618990  13.4025264  40.7729912  61.6228390  14.2580509
  41.0442019  62.1954060  12.8834248  96.3349533  88.3990383  21.4799452
  97.0610332  88.0142879  20.9890270  96.7135811  88.6256123  22.3293781
  70.2443075  39.0568304  37.2471833  71.1172581  39.0647697  37.6397729
  69.8130894  39.8322439  37.6063704  18.5887575  94.6128082  90.3771591
  19.0293336  94.9024773  89.5782661  18.6155045  93.6570358  90.3323269
   7.2522181 105.0862026  90.5988216   7.8993088 105.3511524  91.2525082
   7.1353328 105.8613968  90.0496006  76.6742373  60.7464027  41.4633322
  76.7254591  60.1507378  42.2108555  75.8353949  61.1946487  41.5712976
 114.5106316  72.4781036  14.6799433 113.7178135  71.9636297  14.8315632
 114.2058945  73.3850670  14.6519101  43.8677311  62.7205849   5.2971280
  44.6606731  62.6984644   5.8328378  43.3371401  61.9942856   5.6245428
  11.8299139  21.8499875  79.7946739  12.7680266  21.9453764  79.6301222
  11.7792904  21.3544297  80.6120396  95.0099087  41.8643141  29.7299981
  95.6443310  42.4956512  30.0693393  95.2285480  41.0439062  30.1719928
  67.5616360  30.6413913  20.9022403  67.6422262  31.4299035  21.4388800
  67.2022724  29.9828100  21.4966798  62.3840046 105.3531647  86.4476871
  61.8178797 104.6014214  86.6226673  61.8152142 105.9836483  86.0058880
  86.7120934  52.5734901  45.2409077  87.4365234  53.1198835  45.5456781
  87.1327019  51.8790150  44.7339344 112.5602913  68.6556482  88.0626011
 113.3815384  68.4172869  87.6325321 112.8245926  68.9645195  88.9291859
  57.0061302  80.7675743  22.4979901  57.8580856  80.3660202  22.3272181
  56.4252043  80.3858376  21.8399358   9.9853021  68.8938332  88.5885048
   9.3000436  68.4751844  89.1094494   9.5098186  69.4007778  87.9303551
  68.3382225  41.8428183  11.1278427  68.5127544  42.3300076  10.3225994
  67.7452898  42.4063158  11.6249681  85.5994320  63.2342148  14.5603633
  85.0703812  63.5927057  13.8477468  84.9658203  63.0219984  15.2457249
  55.8126354  56.7064571  16.1304307  56.2165260  57.2056293  16.8403137
  56.4487123  56.0204220  15.9279764  49.8256445  65.3161287   2.6093122
  49.1762114  65.9846258   2.3911783  49.6992397  65.1555157   3.5444355
  70.6539869  70.6554747   6.9660920  71.2271500  71.4213276   7.0006049
  69.9828148  70.8286762   7.6262128 107.4150178   1.7279737  94.9575348
 107.1460935   2.5874155  94.6330745 107.8779432   1.3281219  94.2212942
  92.3937321  32.7800035   9.5492005  93.2432556  32.4497366   9.2568690
  92.0181847  33.1953335   8.7728655  35.5587912   5.6578076  36.1512280
  36.3005972   5.1918989  35.7653713  35.5383611   6.4975119  35.6921959
  64.1414881  66.4368963  20.3155279  63.8500738  65.5300236  20.2212286
  64.9736977  66.3735437  20.7841969  59.8535585  76.5349960  25.1388979
  60.7453108  76.5933466  25.4818296  59.4878149  77.4093962  25.2726531
  61.6050863  68.8338280  23.7529182  62.0238113  68.6393976  22.9144073
  61.8652868  68.1109667  24.3238807  51.4695978  60.1920557  11.7901421
  50.7195425  60.7713604  11.6557872  52.2325277  60.7627344  11.6979814
   5.1083142 105.6078529  76.1246204   4.3502396 105.5515957  75.5429077
   5.0941598 104.7868633  76.6165733 112.0718670  48.8080931   8.2079458
 111.2724781  49.3336678   8.1766462 112.6827526  49.2666721   7.6310980
  97.3819447  46.8300390  22.7963138  97.6895809  46.0432243  23.2463288
  98.1487751  47.1490955  22.3204899  90.7051563  68.1213427  11.2787426
  91.5686321  68.1923389  11.6856754  90.6929016  68.8158655  10.6201696
  61.2602472 105.0141430   2.3550974  60.4778290 104.7384834   2.8326589
  61.1630058 105.9619141   2.2628023  31.7712402  59.5537567  25.3899741
  31.7842436  59.2766809  26.3061023  31.2043476  58.9167643  24.9551153
   9.5301777  97.6048756  76.6269779   8.7649816  98.1256771  76.8708324
   9.1690379  96.8566227  76.1516476  76.8098259  89.9589920  19.3265784
  77.1411705  89.2780685  18.7411034  77.4837017  90.6385708  19.3091702
  72.0746231  18.2470179   8.1428367  72.4550533  18.9932775   7.6795822
  71.8089294  18.6018836   8.9911932  64.5566416  79.2616844  34.4519162
  65.1255608  78.5362434  34.7093940  63.6691904  78.9170599  34.5514274
  47.6574993  53.1638956  19.1896045  47.6974440  54.0373039  18.7999916
  48.5190773  52.7846432  19.0161884  66.3455391 102.6933479  91.6487217
  67.1502924 102.3409557  91.2686825  66.4866066 102.6463223  92.5942993
  57.1791267   1.3564174  90.0554180  57.0421886   1.5362361  90.9855556
  57.0599222   0.4101369  89.9743271  39.8220491   3.6077523  86.4345360
  39.0251827   3.2705942  86.8438816  40.4635525   3.6334985  87.1444988
  72.1895933 100.2425194  46.0956240  72.7270746 101.0250759  45.9733152
  72.4260569  99.9232578  46.9664764  75.7966280  34.5195436   9.4022346
  76.2499237  33.9825249  10.0521326  75.9887695  34.0961051   8.5655653
  85.9076977  57.9039526   8.5721338  86.5925980  58.2709646   9.1310966
  85.5551529  58.6576986   8.0990517  78.6828899  72.1031475  25.7429981
  79.4308949  72.6839828  25.6038809  78.5920525  71.6276407  24.9172401
  52.1532822  41.9979095  11.6680968  52.5749588  41.1752033  11.9162333
  51.5604353  42.1917105  12.3941863  89.7753334  76.6060638  14.6485162
  89.8505306  77.4155521  15.1537931  90.5187702  76.0752678  14.9345171
  57.6495171   8.8972092   6.7074436  58.0137682   8.0687779   7.0192999
  58.3886623   9.3433464   6.2941027  45.8309221  17.1399772  91.9956017
  46.6220665  17.2908640  91.4783478  45.2492952  17.8628004  91.7600822
  89.4744682  69.1892290   2.5362501  88.7249279  69.3513584   3.1090838
  89.6122551  70.0199890   2.0811860  81.6790581  45.2338362   3.5785472
  80.8699131  45.0273228   4.0463817  81.3954258  45.4350519   2.6867554
  45.7149601  59.3619919  26.8737578  45.4452848  59.4192886  27.7903962
  45.7906818  58.4228992  26.7046261  18.2765019 102.9008389  70.1442862
  18.6981273 102.1155453  69.7953129  18.3768404 103.5542679  69.4520569
   1.9600806  93.4090233  94.1615868   1.5907432  93.0822468  93.3411980
   2.4564013  92.6694393  94.5121861   1.8963298  33.6764169  85.6198215
   1.4011326  34.0442848  86.3517284   2.7983278  33.6352921  85.9375381
  51.2809753  34.7487211  31.0599041  51.8477917  34.5829725  30.3065944
  50.5460835  34.1464877  30.9437895   2.9535735  21.3158917  88.2111263
   2.5160393  21.3596535  89.0613556   2.4594764  21.9193029  87.6561546
  74.6394539 101.9483757  22.6991749  74.1717386 102.4140167  22.0058846
  74.7519684 102.5997734  23.3914566 103.2165241 105.8420372  77.7121305
 102.3256969 105.6428337  77.4240875 103.1185055 106.6022491  78.2854557
  99.9453163  99.4385052  86.0463810 100.1926327  98.6959743  86.5974808
  99.1107178  99.7372913  86.4074993  81.1823463  90.7304287  42.2517109
  80.5658150  91.3010406  42.7105427  81.6035080  91.3008022  41.6086435
  69.1046715  78.0108213  30.0880551  68.6678600  78.8363457  29.8784328
  68.5778522  77.6331997  30.7923937  91.0350132  29.5798016  11.7939007
  91.6531467  29.4670439  11.0718071  91.1082935  30.5046010  12.0297194
  80.6187916  80.4020023  34.5391631  79.9412346  81.0781002  34.5330691
  81.4393997  80.8843803  34.4383979 100.9221077  88.5635662  84.4091988
 101.7743778  88.2464027  84.1103840 100.6791306  87.9666805  85.1169491
 112.4014091  12.3786438  58.6414623 112.9595089  12.5642216  57.8862667
 111.6415024  11.9282448  58.2727861   1.8299182  96.4239216  69.6865702
   1.0678408  96.1072350  69.2016172   2.5542465  95.8808136  69.3757343
  60.8919668  88.4727573  23.8436389  60.1380825  88.8551521  24.2927098
  60.8878660  87.5531673  24.1092801  39.0577006   0.0878989  84.3302917
  38.2255411   0.2693987  83.8934803  39.6364331   0.7956141  84.0466690
  65.9628630  34.3733978  22.9884839  66.4679623  34.5232987  23.7876320
  65.1478481  33.9733887  23.2917595  62.4026299  44.9826860  24.4949341
  63.2350111  45.4370403  24.6250558  62.2064209  45.1036167  23.5658979
  80.7581615  85.3356361   1.1855448  80.4234886  86.1735439   0.8659549
  80.3776550  85.2431870   2.0589879  34.2534757 105.0705814  90.5531693
  33.9282203 105.7901669  91.0941315  34.0768552 104.2840862  91.0693645
  66.1395121  67.7800465  13.6939144  66.2564373  67.4403000  14.5811200
  66.9913197  68.1523895  13.4658337  65.1241922  52.1704721  28.8385081
  65.7248354  52.9100132  28.9309096  65.2243853  51.8928671  27.9279423
 115.1386356  68.6069155  30.8815479 114.3255234  68.5339308  30.3817821
 115.8308983  68.5366917  30.2242327  80.1461315  68.1753397  14.5920455
  79.5090914  68.5909319  15.1731586  80.9346676  68.7109709  14.6788788
  78.5754442  67.0446014   5.7324302  78.3437681  66.9312382   4.8106360
  77.8466558  67.5422955   6.1031044  61.4490604  43.6593199   8.3196241
  62.3976088  43.7203741   8.2066739  61.1079264  44.4573689   7.9159206
  25.6625700  10.3448129  75.0558233  26.0149264  11.1289155  74.6348000
  26.4266539   9.9160033  75.4412174  39.4845700  13.6841631  80.9282780
  39.3263888  12.9744613  81.5507984  40.1424360  13.3337831  80.3277111
  55.2300835  39.9060535  20.9669876  55.7266617  40.0413609  20.1599360
  55.7120037  40.3998995  21.6303849  89.3388653  64.2783546   1.0144546
  89.6782112  63.6073685   1.6067797  89.6391392  65.1051378   1.3919479
  69.4808149  27.3021626   0.0485184  68.7443066  27.0414758  -0.5045036
  69.0755081  27.7446747   0.7942663  83.8362694  55.8404398   1.6416205
  83.2540989  56.4786816   2.0538740  83.6962318  55.0334883   2.1370506
  33.7926745  51.7575216  19.5133018  34.0903091  52.5697756  19.9230421
  34.4217730  51.5998793  18.8093019  94.1846371 104.0568829  85.0994110
  94.9547768 104.1008854  85.6661415  93.4416389 104.0898037  85.7019901
 109.1945171  94.7187901  89.8859692 109.4799805  95.6119823  89.6937561
 109.9751568  94.1826534  89.7467136  30.7048941  56.6252661  88.7254047
  30.7537913  56.6355658  87.7695084  30.7793665  55.7000208  88.9590836
  56.9122076  78.8237047   7.9475158  57.4621868  79.5100880   8.3251792
  57.1334267  78.0376482   8.4469265  42.7651167  29.1496539  56.3241768
  42.2865963  29.1011262  57.1517611  42.4058247  28.4356594  55.7975340
  14.0216184  81.7648792  73.4947968  14.3646681  80.8750629  73.4124851
  13.3764529  81.7086029  74.1996574  65.8274746  74.4952202   2.2929783
  66.1321735  73.9805174   3.0402863  65.0752163  74.0077925   1.9571947
  65.2671099  72.3391104  19.5528328  65.0444221  72.7291107  18.7075281
  66.1144876  71.9185686  19.4067895  37.8090692  19.8754919  50.6597424
  37.0357227  19.3997467  50.9627819  38.5198045  19.2366326  50.7140303
  98.4816647  35.2919054  20.1454592  99.0001965  34.4884801  20.1022291
  97.5741386  34.9896359  20.1809239  89.7988701  98.9693165  13.1932545
  89.1069984  98.9415932  13.8541400  90.4027748  99.6425247  13.5068226
  89.7778034  61.3440228  11.2942088  89.3575859  62.1739292  11.5198302
  89.0580559  60.7805777  11.0100842  70.7442045  70.8495474  28.4821582
  71.3758802  71.1767673  29.1225839  70.0341463  71.4912987  28.4966350
  72.6235914  46.9378376  22.3737097  72.3159599  47.0620728  21.4758444
  72.4245119  46.0225058  22.5706077  47.4188757 108.7747097  93.6868000
  47.8577709 109.6251106  93.7070751  46.6168404 108.9309406  93.1882477
  63.1575680  45.4920149   4.9915773  63.7572479  44.8305273   5.3366154
  62.5916290  45.7115793   5.7316715  16.9117272   3.2285833   6.9015998
  16.3727903   3.0868882   6.1233318  16.8321419   2.4149114   7.3994309
  78.1111383  54.4883251  31.0828424  78.0189085  53.6368370  30.6554103
  77.3126364  54.9615002  30.8488894  27.9059792  10.0557649  86.1737156
  28.7048388   9.7032344  86.5658569  27.9842687  11.0036266  86.2817001
  69.1722155  83.4636116  14.2204595  68.8843822  83.5815430  15.1257098
  69.8940420  84.0835190  14.1159630  56.5137339   1.9392617  49.6459246
  56.5065193   1.5455250  50.5183649  55.7030439   1.6340308  49.2386866
  38.5670543  81.7632389  17.1788549  37.9380512  82.2167397  16.6176724
  39.3143153  81.5868378  16.6072643  17.6317406  20.4355264  67.6316547
  18.0211580  20.0972414  66.8253374  16.7183185  20.1518655  67.5938511
  63.6060095  76.8449593   6.6904867  64.1934347  77.4861670   7.0905125
  64.0861368  76.0182190   6.7375100  57.1465969  48.2053518  29.0090966
  57.0576477  48.6410618  28.1614685  56.4195061  48.5453176  29.5306253
  71.9813347 104.2281723  76.1436844  71.8443680 103.4121799  76.6249752
  71.4839602 104.8822117  76.6346788  11.0699224  42.2554064  72.1335840
  10.8691680  41.6323566  72.8319645  11.8733907  42.6881695  72.4223566
  86.1626244  43.9298630  32.3546290  86.6592121  43.5556078  33.0823398
  85.7325554  44.6989107  32.7285814  94.0317535  33.2352471  49.3663311
  94.7776031  32.6390672  49.4335270  93.9314079  33.3883667  48.4268045
  58.3664942  61.3588476  24.3031096  57.9537344  62.1857643  24.5522594
  59.3003368  61.5629005  24.2527723  47.1171331  26.5077090  82.5411797
  48.0277109  26.4457488  82.2526646  46.6948986  25.7332325  82.1695137
  93.4958172  64.0907240  19.4972861  93.9289951  64.4795036  20.2571797
  94.0734196  64.2949533  18.7618327  28.9894319  50.1924944  14.8141325
  28.8231063  51.1254644  14.9488020  29.4054699  50.1451778  13.9533734
  17.9134917  14.1071284  55.6344080  18.5739851  13.9975321  54.9503231
  17.8258312  13.2373202  56.0242558  87.9659462  49.8352671   0.4131475
  87.2686291  50.4701424   0.2490881  88.2441044  49.5543957  -0.4586161
  69.6922541  14.1655004  91.1707783  69.1693068  14.4239092  91.9297123
  70.4976749  13.8086390  91.5451813  12.0644593 103.1695652  88.6150360
  11.2581754 102.6582336  88.6834431  11.8681514 103.8399124  87.9605675
  80.6635857  85.1646328  84.2668915  81.2865925  85.6762314  83.7507820
  80.2444649  84.5851135  83.6307049  76.7634678  29.6925998  10.4232538
  76.0653067  29.9788141  11.0122240  76.4051533  29.8239613   9.5454216
  41.3103819  75.9581709  10.6636059  41.8105650  75.1694536  10.4539013
  41.1422586  76.3678551   9.8150027  55.3544188  38.1727409  23.8307691
  55.1737213  38.8655663  23.1954932  55.9297800  38.5835814  24.4760561
  51.3043547  67.5308371   1.2065636  51.5753508  67.0774031   0.4083194
  50.3965330  67.2584391   1.3403066  69.9821806  71.5016985  15.4225492
  69.8823977  70.5637980  15.5856955  70.2361298  71.5588903  14.5014250
  73.0226898  46.8630838  30.1205444  72.4546146  47.6330090  30.1477075
  72.5610685  46.2446976  29.5542097  43.9069605  14.8568630  87.0318222
  43.7989378  14.0143514  87.4731064  43.3233500  14.8072684  86.2747383
  22.1227741  41.9035864  91.0348511  21.9430304  41.1685801  91.6211033
  22.5822830  41.5110683  90.2925491  74.7973967  75.6718588  14.9673164
  75.2064657  76.0216665  14.1757798  74.1003847  76.2951088  15.1721752
 113.6566162  12.2400129  81.0121441 113.7281799  11.3425732  80.6870079
 114.5363522  12.4527836  81.3236141  78.2640982  48.1101656  15.0850046
  79.0602684  47.5868559  14.9928355  77.6138163  47.4981928  15.4297495
  17.7875304  40.9226322  93.7520504  18.2656014  41.2660408  94.5068645
  16.9708240  40.5845737  94.1193867  66.1099672  22.6461673  15.9511006
  65.5105352  21.9315624  15.7360244  66.9146204  22.2084260  16.2288582
 107.1188927 107.7314281  80.7690525 107.1401310 106.7875957  80.9270573
 107.0092583 107.8132725  79.8216820  72.0119143  52.4151802   0.9484268
  72.8401566  52.0997381   1.3100119  72.0761299  52.2354031   0.0104568
  80.7516956  59.7128487  32.8157878  80.0115204  60.1763821  33.2075834
  80.9414768  59.0028858  33.4291172 106.6050625  66.9086981  26.7259526
 106.6991806  67.0069313  25.7784677 105.6968212  67.1535349  26.9030857
   2.5759917  27.1997142  93.6568356   2.1770607  26.4892411  93.1545258
   2.9574805  26.7678237  94.4211483   9.6798688  45.3680086  11.2616074
   9.5609993  44.8014450  12.0239103   9.9342555  46.2142801  11.6295004
 103.1128216   6.1699802  91.0077286 102.8053761   6.9658303  91.4416981
 102.9235649   6.3143611  90.0805950 102.7308369 108.3234787  94.0467739
 103.1176090 109.1928387  94.1509438 102.6336384 107.9958820  94.9409008
  22.4081635   3.2135254  67.5514507  23.2542777   2.7696273  67.6087093
  22.6233220   4.1453463  67.5920630  25.4301763  81.4258862  94.6343803
  25.3515339  80.5730343  95.0618076  26.1094117  81.3000011  93.9717865
 101.4392281  89.2652607  91.3340282 101.9360828  88.8069439  90.6562996
 101.3270664  88.6164665  92.0288181  77.3947716  71.8025112   5.4329681
  77.2328854  72.0148706   6.3521671  78.3395243  71.9118452   5.3246856
  95.2017593  88.2481003  28.3074141  95.7694149  88.7887859  27.7581835
  95.2277184  87.3825264  27.8995562  99.1952610  93.4589672  88.7835693
 100.0688362  93.8379765  88.6863422  99.3256664  92.5198174  88.6522865
 112.7696705  74.8030043  16.9001925 111.8914890  74.4278097  16.8349063
 112.6786423  75.6884050  16.5480423  56.6268063  58.8524675   7.8085279
  56.8368387  59.0234518   8.7266135  56.6354752  59.7161531   7.3959744
  20.9541082  85.1193905  79.4130373  20.1695991  85.5575275  79.7429037
  21.6579604  85.7535458  79.5496607   8.2112712  99.0559673  78.6340952
   7.2770780  98.8486099  78.6568499   8.5265696  98.8373375  79.5110369
  91.0081387 104.6065521  88.9623833  90.0586033 104.6257877  89.0817833
  91.1355877 104.1536045  88.1288242  12.6322269  15.8717489  80.7791042
  13.0936587  15.1383185  80.3724194  12.8061557  16.6144216  80.2008152
  55.3717899  97.1980286   3.0744508  55.7964563  96.9662952   2.2485065
  56.0628557  97.6124763   3.5910624  27.2598863  23.7799764  86.4392471
  28.0108237  23.5528946  85.8908272  26.6436315  24.2002940  85.8394146
  41.7974186  38.9824629   9.0995806  42.4812317  39.4893193   9.5374483
  42.2699308  38.2842445   8.6463070  84.2410564  23.6445475  28.3178687
  83.7266922  23.8487673  29.0988636  85.1279545  23.9333272  28.5329199
  45.8364344  25.4369950   0.8366926  45.4835463  25.6864333   1.6907904
  46.5436745  24.8246360   1.0393177  18.6461818  17.3934770  83.7911606
  18.7880647  17.3552942  84.7370148  18.7194753  18.3231378  83.5753155
   3.0216739  15.3926730  79.3536997   3.6092177  16.0376084  79.7475052
   2.6620084  14.9102950  80.0981331  65.4152870  41.4712048  14.8937643
  65.5128288  42.3431540  14.5111144  65.9485340  40.9041548  14.3366909
  57.3083448  83.0770016   7.2329980  56.6197062  82.5866508   7.6819634
  57.4676704  83.8353252   7.7949506  68.9006948  77.3638582   8.7690014
  68.9275885  78.2842350   9.0305626  68.0893087  77.0297813   9.1514581
 111.3720703 102.0524883  69.7724056 111.8636608 102.7620125  70.1861095
 111.9928932 101.3252926  69.7277212  87.7366066 107.7630234   1.3437152
  88.1109142 108.1475925   0.5511057  88.4931183 107.4417877   1.8343589
  25.1981783  31.6854286  75.5266428  24.5678782  31.3891506  74.8700047
  26.0397100  31.6798162  75.0705433  19.5934606   5.7283801  86.4715767
  18.8413286   5.5746680  87.0433331  20.2722263   5.1420772  86.8058777
 113.5506153  98.9288139  80.1821041 113.7033749  99.8299313  80.4664993
 112.9135323  99.0065193  79.4719410  96.0023403  53.9149761  32.7655268
  96.0071468  52.9581451  32.7394366  95.2127647  54.1637182  32.2849798
  60.4829311  29.5540977  85.3274918  60.3087378  30.2247381  85.9879017
  59.6155739  29.2837143  85.0261402 104.3228340  60.5372095   9.9559587
 104.8075962  59.8603344  10.4282713 103.9855576  60.0919628   9.1786391
  12.6236153   4.6044305  61.9168615  12.2276473   4.1351199  61.1825657
  13.4809113   4.1937679  62.0292473  98.4241772  75.6893778  36.1608410
  99.3632030  75.5570745  36.2910557  98.3408642  76.6181231  35.9446788
  50.7320690  84.2619133  18.9246047  51.1713171  84.6750641  18.1812346
  51.1589909  83.4096241  19.0115857   9.0162081 105.4014301  92.4987698
   9.4653988 104.5574379  92.5448990   9.7139424 106.0496616  92.5946808
  57.8649282  30.0894570   1.2248327  58.1510687  30.9819007   1.0301463
  58.2783365  29.8828816   2.0630756  96.2707901  44.1447639  31.2141871
  96.2968063  43.9869976  30.2704358  95.9778309  45.0522280  31.2973332
  58.2021332  15.8760929  76.9932699  57.6096487  16.4361084  76.4916992
  57.7947474  15.8091629  77.8568602  75.0256634  31.1042953   9.0758169
  74.7898912  30.9502840   9.9906516  74.3715525  31.7285752   8.7617320
  20.1555347   9.3869460  91.9282055  20.9099030   8.8516062  92.1743202
  20.2279353  10.1688612  92.4755669 115.1489258  69.0862989  63.9918089
 114.3016052  68.7090778  64.2284155 115.1499271  69.9502659  64.4038677
 102.6885891  68.8678980  57.5313520 102.8424454  69.0470409  56.6037416
 103.5274792  68.5387564  57.8540802  77.1753979  56.9906950  39.3902421
  76.4386034  56.8918562  38.7872577  76.7737675  57.0041990  40.2589989
 104.6493626  83.5235119  35.3690171 105.4197407  83.9082813  34.9510360
 104.0027523  84.2292690  35.3754187  91.7341518  74.3081045   9.8982596
  91.8839169  73.7128687  10.6327665  92.5136280  74.8632622   9.8770851
  88.4388351  65.2022028  11.6372740  89.0541840  64.7815895  12.2378290
  88.2289791  64.5238066  10.9954250  75.9619808  47.8231096  30.0800514
  76.1034918  47.5894165  29.1626668  75.0252485  48.0114317  30.1374912
 109.4776630  26.6200614  24.9305248 109.2483425  27.5450420  24.8408008
 110.4330635  26.6035938  24.8740721  92.9537106  50.5698824  38.7611461
  92.6371670  50.9465170  39.5822310  92.6131821  51.1533308  38.0830193
 103.1826210  50.9720707   3.2404530 104.0972519  50.7833529   3.0305353
 102.8590393  50.1676369   3.6459315 110.7904625  33.6208701  80.0541973
 111.1141968  34.4246054  79.6474504 111.1277676  32.9184365  79.4982719
   0.5674236  22.9056311  19.3164325   1.3551810  23.4377313  19.4284117
   0.7157086  22.1387887  19.8697817  14.7597277 102.7956295  77.0697546
  13.9756167 103.3388901  77.1489763  14.5484376 102.1696568  76.3771152
 114.1126728  73.2197332  22.2002602 113.1954288  73.3270645  22.4520087
 114.3330765  74.0329027  21.7459416  86.2311172  90.9561539  28.5988712
  86.9511318  90.6410408  28.0524969  85.8674049  91.6959953  28.1124854
  67.3254728  70.4307842  23.4293985  66.5903997  71.0417843  23.4801888
  67.7441692  70.6289148  22.5917435  92.9946804 104.9112701  94.0273190
  92.7262783 105.5491066  94.6886444  92.2656631 104.8877430  93.4074783
  48.6665916  22.3932862  79.8963022  48.7527657  23.1295347  79.2907095
  48.7037039  22.7924919  80.7654953  52.1639967  25.7571292  86.1376572
  51.4763451  25.1241446  85.9310150  51.7262650  26.4208460  86.6706657
  23.2865047  84.7678852  87.7863503  23.0070662  85.6828499  87.7548313
  23.9729834  84.7041035  87.1223354  47.3355484  87.6607800   7.0825231
  48.0796432  88.2358932   7.2608513  46.7960739  88.1521988   6.4630812
  85.1557732 100.4986763   5.1853722  84.4957924  99.8113823   5.0942928
  85.9564114 100.0317383   5.4244739 111.2424469  99.8161221  27.1902800
 111.1387920  99.2434311  26.4303327 111.7729759 100.5455780  26.8698859
  76.7605162  50.1578999  33.5874343  76.0121393  49.6547985  33.9084530
  76.7423582  50.0349998  32.6383305  84.6151924  41.5800953  22.4587226
  85.3883743  41.3428020  22.9706955  84.1165638  42.1610832  23.0332303
  68.4861422  66.4132071  18.0115461  68.0434227  65.9527111  18.7244117
  69.3327904  66.6664696  18.3793485  21.4446163   3.7464756  83.6839104
  21.1544132   3.2970724  82.8901577  21.7747521   4.5899749  83.3744812
  79.6394920  12.1756220  81.1090660  80.0625706  11.7185700  80.3821945
  80.1876354  12.9458320  81.2592220   6.2784332  13.1465578  24.7551012
   6.5403527  14.0192771  24.4618630   6.2896818  13.2015562  25.7106543
 112.8106022  68.0312109  29.8131084 112.7135468  67.2850466  30.4047561
 112.8485584  67.6410961  28.9398384  91.4454269  62.1835518  19.0773284
  91.0218811  61.9239807  19.8955357  92.1678448  62.7490091  19.3504739
  46.4124012  64.5304441  24.8922396  46.6459799  63.7823725  25.4418445
  46.4897346  65.2875710  25.4727674  71.4264727  66.8760681  19.4875336
  72.1306705  67.4041319  19.1113913  71.7208815  65.9717941  19.3787038
 104.9544621 106.8409824  87.1233177 105.3350925 105.9627151  87.1225262
 104.8756886 107.0687199  86.1969471 114.2860413  71.2854671   1.3129835
 114.7018147  70.4805470   1.6219632 113.3924770  71.2392664   1.6530555
  96.1247349  54.7684193  24.8149300  95.9020805  54.2783642  24.0234113
  95.6204033  55.5789375  24.7446299  28.4096932  26.7885256  83.3990383
  29.0044904  26.2577343  83.9288616  27.9414415  26.1540866  82.8563976
  79.8336935  15.4606330  70.8540106  79.2998838  16.0779572  70.3538179
  79.7746038  14.6407592  70.3635502   5.9778494   3.7346539  30.8123541
   5.6551701   3.8915759  29.9249506   6.9052869   3.9684978  30.7748199
 103.4557438  69.2088699  16.5032077 103.1162739  68.3138895  16.5022218
 104.2823219  69.1509819  16.9824350   3.0265903 102.4158287  77.4123907
   2.8975338 103.1339645  78.0319500   3.4907591 102.8148842  76.6764975
  64.5021009  81.3465118  48.2427359  64.3805599  80.4451370  48.5410357
  65.4488564  81.4375496  48.1350279  86.3951492  48.2918406  25.0091076
  85.7734299  48.8835335  25.4328990  86.3737297  47.4985409  25.5443120
  90.6606293  47.4001551   6.3697773  89.7484112  47.5714016   6.6037887
  90.7854080  46.4698315   6.5572977  99.5906258  46.7874289   8.3176595
  99.7892189  46.2345839   7.5619125  98.6437798  46.9210339   8.2744730
  29.9828029  33.2698870  90.1462746  30.6808233  33.0905628  90.7762241
  29.2071009  33.4235978  90.6856155  15.5629385 102.6952648  81.9825363
  16.1955035 102.3041439  82.5851250  16.0856247 103.2778835  81.4315510
 105.8061600  81.8583775  37.0209026 105.3026295  82.3975658  36.4110255
 106.1940575  82.4856186  37.6311040  48.3648539  45.9636974  91.8970490
  48.4829330  46.6582441  92.5450420  48.4642410  45.1522255  92.3949146
  90.6898022  68.8953400  45.0003672  91.0333157  69.7884083  44.9745607
  90.9729862  68.5542154  45.8487034  40.8686066  47.2366953  82.9515648
  41.2189341  46.8473911  83.7527847  40.8900118  48.1797218  83.1142807
  77.0588684  55.1514339   6.4028895  76.2504005  55.6206417   6.6089380
  77.6695490  55.4123163   7.0922661 100.2217102  77.0716715  40.8178234
  99.3179035  76.7885637  40.6792307 100.2004337  77.5411797  41.6516924
  34.3395042  99.6921921  71.9835424  35.1037049  99.2571735  72.3616743
  33.5904527  99.2601204  72.3939848  73.3147669  73.8888359  22.4728107
  73.2033968  73.0546141  22.9287744  74.0617466  74.3011045  22.9067349
  84.6346474  53.4609079  21.5212655  84.6035862  54.3409634  21.1460710
  85.4967308  53.4066629  21.9337010  40.0395393  17.3155785  88.1537914
  40.5377483  17.6727831  87.4186516  40.6809902  17.2308350  88.8591957
  25.0522447  52.0792055  88.9799976  24.3292618  51.9155169  88.3744144
  25.6307769  51.3243151  88.8719368  24.8311138  18.2173800  80.5563450
  25.6707811  18.1746256  81.0139084  24.8620319  17.4934268  79.9309111
  67.7514696  55.1114893  18.6691892  68.0949688  55.6658030  19.3698871
  66.9362450  54.7558546  19.0229809  76.0526228  19.6183264  19.0281677
  76.9846058  19.4049931  18.9820409  75.6285048  18.9588630  18.4791124
  41.8025017   2.7709356  77.2501945  41.6961098   3.7204352  77.1922064
  42.4025679   2.6415741  77.9846430  23.8365769  84.7726059  15.3652811
  23.1102300  84.4497871  15.8986080  24.2544246  83.9812851  15.0255024
  45.9306049  93.5776615   3.2455486  45.8173084  92.8261280   3.8274336
  45.0947809  94.0421677   3.2887542  31.3602614  61.7924213  23.4098148
  31.3205409  61.1869812  24.1501522  30.6304646  61.5318680  22.8479099
  92.1573830  62.1153927  10.2687204  92.7919674  61.8830633  10.9466290
  91.3874531  61.5830374  10.4688096  93.5405445  34.2990327  16.8790269
  92.6896191  34.1584134  17.2942162  93.7940788  35.1826763  17.1457255
  32.5968456  36.6546488  26.2560105  31.7634296  36.6193938  25.7865334
  33.0618930  37.3933983  25.8633113  10.4878438   1.9881108  27.0359230
  11.0973632   2.7180943  26.9271016  10.7481837   1.5797526  27.8615737
  79.4920206  69.7064590  49.0291882  79.2090702  70.2819681  49.7397947
  80.4071236  69.5101833  49.2299032  21.3463354  18.4185719  82.1167469
  21.9160390  17.6538980  82.0334244  21.6426039  18.8518989  82.9171658
  97.8118324  57.4034500  15.8912516  97.2777081  57.2604609  16.6725969
  98.0390072  58.3327532  15.9231961   5.1746601  89.7882557   6.8180066
   5.7041991  89.2794800   7.4319863   5.7013696  90.5662918   6.6350514
  82.2715378  65.4139376  44.2678738  82.3957634  65.1354790  43.3605385
  81.3592720  65.1985073  44.4617558  76.5652132  79.1455412  21.5336895
  77.1673727  78.4186602  21.3746929  75.6970119  78.7424946  21.5300965
  14.1928399  36.7726898  94.2046452  13.3981276  36.8351078  93.6747742
  13.9853156  37.2544551  95.0053120  65.8222437  83.6530304   5.7442623
  66.5949440  84.0969563   6.0936856  65.5558348  83.0524063   6.4403296
  75.8526754  95.1878262  26.0478950  75.2630234  94.5820427  26.4968657
  76.6839266  94.7164154  25.9929132  79.4196177  13.8557625  84.4221115
  79.5406723  14.0593207  85.3495502  78.5392046  14.1725838  84.2202950
  79.0841532 107.0279408  28.6264157  78.6664677 107.6438808  29.2284036
  78.4293365 106.8781376  27.9445028  94.9828339  99.9315548  20.9366870
  94.3241405 100.4075909  20.4309750  95.7760715 100.4610729  20.8552837
 110.9588432  67.6487589  38.3296680 111.2353611  68.4467936  37.8792119
 111.7684746  67.1555328  38.4618044  88.0912781  63.9665651  15.8127582
  87.4021053  63.3621883  15.5370677  87.6251793  64.6745539  16.2574363
  85.8054161  56.6614437  21.4031100  85.6973839  56.8254900  20.4662776
  86.7154408  56.3787365  21.4933896   6.4407903 106.5901566  78.8698578
   7.0588964 105.9042835  79.1223621   6.7777848 106.9217014  78.0375481
  73.1611252  49.0215969  25.8087158  73.9356041  49.5632601  25.9604526
  72.4463129  49.6496058  25.7044315  73.9958191  87.7813148   8.5354328
  73.5436630  88.6047459   8.7191391  74.6566343  88.0114651   7.8822958
  91.6439438  47.3064423  48.3371687  92.1018028  46.6582966  48.8724375
  91.3212872  46.8107080  47.5845909  69.3531847  75.4953957  38.7007475
  70.0936365  75.4590988  39.3062615  69.0728712  74.5846367  38.6103106
  84.3439388  84.6936798   8.6458552  84.8498631  85.2756310   9.2129534
  84.4043732  85.0928974   7.7779847  68.2080364  64.3181658  29.4200516
  68.3785200  63.4180212  29.1427279  68.9033079  64.8313665  29.0084004
   0.4155359 108.6741924  17.6727259   0.3696905 108.4502697  16.7432177
  -0.4735803 108.9487267  17.8970885 103.4962654  64.8479843   5.3736144
 103.0409241  64.6769285   6.1980158 104.3723011  64.4849730   5.5040604
  63.2563543  73.4502697  21.4415240  62.8161097  72.6518297  21.7329168
  64.1835070  73.2144976  21.4094687  53.2032537  80.4233646  20.3380370
  52.6995039  81.2071896  20.5573297  52.6067066  79.8961639  19.8065984
 108.2473946  67.2182608  28.9352226 107.8124428  67.1551418  28.0848932
 108.3399677  66.3106394  29.2248535  72.4451065  90.0006008   8.5316265
  72.4479055  90.8940220   8.8751674  72.2004175  90.0985909   7.6114327
  76.7378616  29.7606492  91.6143894  76.7527390  29.1226077  90.9010029
  75.8672380  30.1553273  91.5645981  82.1507549  96.1784172  26.8044400
  83.0208874  96.0550308  26.4251375  82.2548294  95.9392738  27.7254224
  91.2849045  54.6718121  14.0663791  92.1802711  54.3589020  13.9373648
  91.2306213  54.8631239  15.0026941  46.1855793   5.2203906  82.6071358
  45.4722643   4.8802376  82.0670414  46.7118311   4.4501552  82.8216839
  98.4803581 101.4820576  17.0281363  98.8898087 101.8071461  17.8299499
  99.1178894 101.6716671  16.3397789  96.5909767  46.1559057   0.4785391
  95.8621216  45.7754898  -0.0116529  96.9403934  46.8340683  -0.0995924
  45.4340124  49.8209810  10.6029952  44.8700666  49.8008633  11.3761628
  44.8888826  50.2097940   9.9189723  77.3455477  76.8766308  16.9793415
  77.7329493  77.6359987  16.5440094  76.8544626  76.4299297  16.2897575
  61.0120249  79.6263885  17.8938985  60.5224800  78.8573742  17.6020169
  61.9215155  79.4312334  17.6681399  92.3698139  40.2128458  31.1242008
  91.7520523  40.6886244  31.6793966  92.1108627  40.4376030  30.2305245
  47.3934984  28.0117512  92.0471001  48.1629038  27.4947882  92.2858429
  46.9805241  28.2268190  92.8834248  44.3144131 103.1076717  28.1635785
  43.9167786 103.7318230  28.7706685  44.0742588 103.4317017  27.2955012
  65.9509802   8.1389266   7.8353018  66.0156107   8.1061113   8.7897533
  66.8261147   8.3956456   7.5446671  74.0637493  15.6276703   0.7467294
  74.6865654  16.2267184   1.1584063  73.4459925  16.1999619   0.2916598
  63.3911324  63.8076401  13.2937133  63.7652540  63.8654423  14.1728759
  63.3365297  64.7158766  12.9964626  37.6145291   2.5399098  87.7318192
  37.5662351   2.6226375  88.6842155  36.7817450   2.8925702  87.4182320
  90.7018471  35.4501891  12.8953552  91.6277599  35.4922938  12.6563144
  90.3613567  34.7026873  12.4038923  46.0289764  16.3841629  13.1518352
  46.7745590  15.9995317  13.6127055  45.2989769  15.7956660  13.3442056
  13.3886826  79.0445089  88.2033348  12.8077209  79.7900248  88.3547401
  13.2635319  78.4839487  88.9690685  60.0265741  34.7653985   5.2850693
  59.2725611  35.1701522   5.7138675  60.4187489  35.4724097   4.7726569
 103.0266762  55.4027510  63.5028505 103.1003571  56.2884283  63.1473494
 102.1366882  55.1289272  63.2810926  71.4320374  68.6676645   4.4307798
  71.5660286  69.5264578   4.8317152  70.9637022  68.1632423   5.0959468
  89.4213772  49.2793798   3.0811656  88.9755440  49.2823935   2.2341372
  88.9273357  49.9024010   3.6140826 114.9078178  75.2731037  88.7186909
 115.5376244  74.9322796  88.0835438 115.0195980  74.7163391  89.4892502
  78.3994722  14.3081546  27.0142388  79.3490410  14.1875470  27.0174623
  78.1806803  14.4618702  26.0951447  82.0489502   2.8034464   8.3641583
  81.3389397   3.0517551   7.7721602  81.6203690   2.6704282   9.2096490
 114.3867683  69.2345476  82.1934032 115.2960777  69.4263697  82.4227142
 114.1232586  68.5514212  82.8099537  65.1823854  12.5316584  18.6861694
  65.2287340  11.5986311  18.4774983  64.6134377  12.9002488  18.0103958
  27.7605295  36.4255190   2.8855029  27.7628303  37.3770952   2.7819106
  28.2248068  36.0995364   2.1145208 112.1257114  61.5069485  67.4110270
 111.8848991  61.8242025  66.5406275 111.2944984  61.4442968  67.8815603
 110.7614040  84.4619560  59.1896725 110.2077961  83.8119602  58.7569332
 110.1500797  85.0016117  59.6909475  18.9298761  27.1647501  73.5873461
  18.2813704  27.1351862  72.8839254  19.7599435  26.9606376  73.1565809
  87.2019005  90.0206089  58.7569523  87.7559090  90.1257515  59.5304155
  86.6236019  90.7832336  58.7710810  95.7063103  77.3378563  92.8905296
  95.3288937  77.5054312  92.0269871  95.4765129  78.1106901  93.4064293
 101.5516567  80.7491589  64.7412205 100.8713818  80.2698326  65.2141857
 102.3731995  80.4297829  65.1144695  12.3367918   0.1347152  77.5417185
  11.6783345  -0.1475089  76.9068813  12.0449913   1.0030000  77.8195047
  76.6150427  20.1560950   6.3854861  76.1625481  20.9743643   6.5902203
  77.5430059  20.3599238   6.5019691  55.1029873  45.6958771   1.6442318
  54.6186066  46.5063953   1.8012913  54.7358513  45.3513622   0.8301378
  63.6022902 102.0199871   3.1572235  63.7249994 101.0941029   2.9476738
  62.7027512 102.0753956   3.4797066 107.6719952  84.1580677  73.4221458
 106.8685246  83.8646793  73.8517952 107.5604534  85.1038551  73.3257961
 101.4130592  78.9793348  67.0480490 102.2436523  79.0110397  66.5733433
 101.3373280  78.0701876  67.3377895  26.4216065  70.5922794  90.1230335
  27.1932697  70.8912039  90.6040955  26.7768359  70.1147938  89.3733311
 100.8574581  76.7468405  84.1974831 101.4294147  77.1421909  83.5396099
 101.4573860  76.3737345  84.8433304  86.1241150  65.1721239  19.3833506
  86.8516922  65.7623339  19.5796108  86.0064316  65.2437401  18.4361172
  48.3475304  18.6653399  31.4349699  49.2224836  18.5983348  31.8173337
  48.4650993  19.2196035  30.6634760 115.0607967  30.9733057   8.2059228
 114.2331409  31.0578918   7.7325642 114.8235035  31.0895777   9.1259253
 114.3527508  55.4677296   1.1095784 114.5733643  55.9409475   0.3073126
 113.4307098  55.6737232   1.2633006 102.5450230  88.3008480  80.2586937
 102.2222328  87.7325630  79.5593405 102.8578663  89.0839481  79.8057842
 101.4445686  28.1787705  15.2047682 100.5570221  28.0124331  15.5222917
 101.3196087  28.6225510  14.3659151 114.5140934  59.1993999  80.3458405
 114.0915394  60.0227022  80.1011848 115.0685120  59.4272566  81.0921192
 110.1054096  51.2220430  65.7398939 109.4637203  51.9190788  65.8763266
 109.5986080  50.4129887  65.8092785  63.9929914  33.4531713  10.9737146
  64.7802591  33.2294178  11.4700842  64.1028357  33.0044699  10.1353610
  74.8552513  67.5592375  34.7419882  74.1993427  66.9790840  35.1285672
  75.4102230  67.8173590  35.4779291  63.8530827  70.3457117  29.3139577
  63.9820242  69.5782471  28.7566376  64.6921635  70.8055067  29.2862844
  77.0175457  93.0972195  93.4544945  76.9171667  92.6995564  92.5896168
  76.9608212  92.3616505  94.0643692  51.1707926  45.4197788  12.6825142
  50.3093529  45.2334785  13.0559349  51.7903662  45.1013136  13.3389723
  34.9495959  62.1518707  10.7004321  35.2639174  61.7687321  11.5193582
  35.1739526  63.0799103  10.7685530  35.4360151  14.9961615  91.1332703
  35.3364396  15.7223105  91.7489147  35.0477672  14.2457676  91.5831566
 111.8893814  71.2101030  92.7669525 111.0303211  71.5931845  92.9444218
 111.7656898  70.2708483  92.9038525  71.6418695  33.3839655   9.0266091
  72.2079420  33.3715606   8.2548332  71.9133377  34.1641164   9.5102400
  11.1563790  89.1086197  58.1983900  10.5814898  89.6271038  57.6354408
  11.7441666  89.7505951  58.5966492  66.0293293  30.1048279   1.2011326
  65.0837040  30.1875782   1.0779454  66.3878345  30.9245205   0.8608219
   4.1790915 107.0411015  80.0216103   4.9374574 106.6758060  79.5659018
   4.3492177 106.8670368  80.9473515  71.5492535 107.9568768  78.4224796
  71.0544968 108.7294960  78.1495142  72.4657679 108.2272148  78.3663416
  41.1578894  16.8768203   0.7669190  41.9620895  17.0790875   0.2888172
  41.4583111  16.4706028   1.5799172 115.2857113  60.4993057  83.8714790
 115.0687218  60.6781054  84.7864532 114.5313740  60.8226109  83.3788490
  87.0264339  80.5853176  22.5351524  86.2530231  81.0288143  22.1867633
  86.7410660  79.6828651  22.6779175   5.8412445  71.0931253  80.2615738
   6.4961481  71.7876387  80.3321743   6.3520306  70.2840233  80.2354622
  82.4887657   4.0189272   4.1411117  82.3127651   3.2519609   3.5961205
  83.3051777   4.3776739   3.7932497  89.8213673  12.7618659  15.1682377
  89.0506554  12.9193366  14.6228671  89.7971821  11.8227077  15.3516233
  41.7859840  23.4679556  22.4869251  41.2786245  22.7170348  22.7950406
  41.2552500  24.2287397  22.7230620  59.8473310  10.8308458  24.8248839
  60.6855631  11.1212921  24.4653845  59.2967510  10.6795931  24.0566325
  99.6693420  80.4820538  69.1889524  99.9942112  79.7767162  68.6293221
  99.2225266  80.0322914  69.9061012 109.4219685 101.0267258  77.2745275
 108.9672947 100.3662395  76.7517710 108.7603664 101.3419247  77.8902912
  61.7071199  51.0324049  33.5796356  61.6173172  51.9517946  33.8304234
  61.9785833  51.0598278  32.6621461   6.9779640   1.0847150  74.8715734
   7.1312708   0.4878731  75.6040382   6.0248178   1.1395512  74.8027515
 101.8812752  35.1980400  36.7406058 102.5580692  34.7168994  36.2644911
 101.2390041  35.4336119  36.0711026  21.9768858  77.7281475  90.0662422
  22.4001646  77.2248983  90.7618046  21.6915679  78.5353613  90.4942894
 100.3173828 104.8078823  64.6578217 100.3318596 105.6281185  65.1510048
  99.7957706 104.2133808  65.1970243   1.9268031  77.2212601  75.6434011
   1.2122988  76.8590403  75.1194620   2.6511762  77.3192263  75.0254059
 109.2879105  32.2186899  17.1417224 109.6003819  33.0961323  17.3623884
 108.5925961  32.0454192  17.7763402 105.0419426  48.6518431   7.7446824
 105.2892685  47.8738117   7.2449577 105.0141811  48.3537340   8.6538529
  62.9873848  12.4943221  16.7781281  63.2657623  12.9319143  15.9736085
  62.3586321  13.0979073  17.1738362 102.7526379  39.3982053  10.2308357
 103.2644653  40.1411915  10.5505860 101.9155025  39.7799444   9.9668026
  84.6795654  30.3472114   6.1825514  85.6287575  30.2237320   6.1776990
  84.3453121  29.6141577   6.6994053  65.9164906  19.6330726  14.4038498
  66.8686199  19.5677567  14.3302786  65.5956888  18.7732875  14.1316593
  58.7071753  66.9162846  16.7735720  59.5465994  67.2473288  17.0929623
  58.9361906  66.1489344  16.2492132  64.6894503  45.1424742  26.4962554
  65.5714178  45.4490519  26.7069101  64.1658401  45.9415865  26.4372015
  69.0322351  50.3752899  25.4820991  68.7430906  49.5139360  25.1809382
  69.7750282  50.5894613  24.9176335  96.5949631  66.4278793  79.3390512
  96.0819149  66.2492085  78.5509586  97.2434902  65.7244301  79.3672419
 105.7913971  83.4936905  90.3068066 105.6630230  82.5559521  90.1640034
 105.6721878  83.8862038  89.4419670  11.6953111 107.2038364  91.6014385
  11.5917110 108.1037235  91.9107914  12.0688641 106.7354393  92.3479557
 102.0906448  73.7521601  29.6767759 101.9033146  74.0080690  30.5799079
 101.6794586  74.4333172  29.1446257  33.7643766  50.1739311  10.8957779
  33.5157609  50.9457350  11.4044416  33.1503153  50.1629591  10.1615846
 113.0524445  27.2844148  63.5051060 112.4866295  26.9778824  64.2137194
 113.1581497  26.5219545  62.9361486  68.1651068  33.6450362  25.0719166
  69.0223598  34.0690541  25.1113939  67.9669714  33.4202814  25.9810162
  38.8621402  35.3183079  26.5157938  38.5690427  34.4519520  26.7981958
  39.7911096  35.3434277  26.7451811  74.5946789  42.8069258   0.3235862
  74.2443609  43.6451054   0.6252024  74.0942383  42.6091051  -0.4680302
 101.4428806  33.6154962   9.7232711 101.2969971  34.5423222   9.9128604
 102.2938919  33.4216928  10.1162720  35.0223589  86.1223412  86.6333771
  34.6062517  85.3257179  86.3040161  34.9490786  86.7468071  85.9116364
  91.2010765  44.4192982  27.4321461  90.7859707  45.2656651  27.2660637
  90.7191849  44.0580606  28.1761312   1.2991451  62.4531078  87.9895973
   0.4374024  62.8180218  88.1907654   1.7536718  62.4339294  88.8317776
  46.0629463  16.1619258  86.0968971  45.2134466  15.8163989  86.3711166
  45.9570360  16.3449204  85.1633358  64.9649191  59.9035835   2.5004089
  64.0881205  60.2323627   2.6988086  64.8457909  58.9615583   2.3794764
  93.9979649  96.6376305  75.4898214  93.0613232  96.5148163  75.3353739
  94.0423870  97.3073101  76.1723089  98.9652348   7.9119068  77.0792532
  98.7316799   8.4866577  76.3503170  99.9163628   7.8228360  77.0187855
  87.8208160  45.0069761   4.0153885  87.3923874  45.3622627   3.2366368
  88.6203671  45.5253124   4.1063961  56.4418745  82.6585007   2.1187438
  56.3552332  83.4262085   2.6838604  57.2598362  82.2469139   2.3976022
 101.7395782  15.1616907  15.9129965 102.2060204  15.8956528  16.3129497
 100.8567047  15.4962647  15.7554412  90.1550484 107.7366638  89.9264240
  89.9281311 107.0623112  89.2861271  89.5674992 107.5737286  90.6643009
  55.9686852  63.9798164   2.3767464  56.6397715  64.2738676   1.7607827
  55.1595068  64.3799353   2.0583622 108.9100361  78.4766388  11.0628676
 109.3722248  78.5262728  11.8996167 109.3542194  79.1157007  10.5056179
 115.2108383  90.5921268  88.4179974 114.7858334  90.5653954  89.2752552
 114.4952202  90.7431602  87.8004932 101.1995888  44.1124582  13.9465499
 102.0688343  43.9623594  13.5749006 100.6530762  44.3384838  13.1939101
  77.2098160  43.8200045  31.7576766  76.3848734  43.5164642  32.1365714
  77.1648216  44.7741747  31.8190479   1.9138122  76.3258886  82.3283005
   2.2707999  76.6936207  83.1367397   2.1782903  76.9438601  81.6468334
  93.9660931  56.7628336  17.8736770  94.2084503  56.5829086  16.9653153
  93.4822750  57.5877857  17.8335798  71.1724138  45.6391048   2.4305724
  71.1940718  46.5468502   2.1276569  71.7882395  45.1809931   1.8586235
  20.4206204  89.8201561  91.9823551  21.2927413  89.9131966  92.3657322
  19.9476457  90.6007290  92.2708607  99.4181156  65.0608063  14.5345497
  98.5600567  65.4836988  14.5683563  99.2730427  64.2652750  14.0223873
 103.7637615  52.3889208   5.4443145 104.4710541  51.8540001   5.8046329
 103.5443115  51.9675970   4.6133173  84.2017746  96.8557453  82.1769524
  85.0134563  97.0947361  81.7294121  84.4785976  96.6086197  83.0593014
  40.1755190  82.8244495  75.7131815  39.9257445  83.1548309  74.8502302
  39.4981480  82.1836948  75.9295988  56.6916656  20.8775902  74.7710180
  56.3791895  20.0385070  75.1094437  56.0308266  21.5103650  75.0523043
  60.6760454  56.1636066   7.0594776  61.5604782  56.5082979   7.1827650
  60.1759529  56.9042873   6.7166460  84.8523712  45.1351643  35.0093293
  85.1611328  46.0155344  34.7952056  85.5774975  44.7377062  35.4914641
   1.4165932  81.2821960  85.2613735   1.1699691  80.3590775  85.3185081
   2.2321971  81.2816429  84.7603512 112.9228401  45.9555292   5.2066439
 112.6363277  45.9661531   4.2933905 113.5351181  46.6881943   5.2741194
  26.0798883 107.2120571  86.9666004  25.3932786 107.1136570  86.3069725
  26.8200445 107.5853920  86.4880371  83.0299282  17.9372978  11.5035129
  82.9980946  17.2673965  10.8205402  83.3879280  18.7093127  11.0652673
  52.8402042  72.9050493   7.0006883  52.8106165  72.5010347   7.8679419
  53.7629509  73.1230450   6.8693686  28.3302641  19.2327559  92.7640820
  28.9370084  19.7250152  92.2111130  27.9048848  18.6188424  92.1654224
  79.4263697  71.0098839   0.4858304  80.0097561  70.3892708   0.0491008
  79.6340847  71.8550110   0.0872773  81.4825916  34.2495990  13.3950651
  80.6270599  34.1349506  13.8087690  81.2966347  34.2487288  12.4561024
   5.4368120  88.3102512  93.3716583   6.1669010  88.6081886  93.9142799
   5.8480793  88.0072498  92.5621700  59.1496897  70.5065584  86.8340969
  58.8859320  69.5929050  86.9431782  58.4226513  70.9108400  86.3605976
 100.8953285 107.9372597  82.4164295 100.0290012 108.3288670  82.5276279
 101.2670612 107.9237556  83.2983971  25.9280968   6.1436385  66.7513323
  25.6531787   6.9057852  67.2610235  26.2360930   6.5086794  65.9218025
  66.8657684  28.9477468  15.2967191  66.2554407  29.0763283  16.0228062
  67.4202490  29.7278976  15.3088915  34.9962211  18.7290359  77.1872616
  35.1715374  19.4063067  77.8405619  34.1277909  18.3964849  77.4141312
   1.2051293  91.0083199  92.5591946   0.7868545  91.1534786  91.7105389
   2.1433763  91.0391903  92.3721886  77.7691650  78.0858612  10.6537402
  78.5348845  78.0047607  11.2223577  78.0750084  78.6099291   9.9134386
   0.1595858  89.2236423  94.0631866   0.5198934  90.0515175  93.7453175
   0.8577392  88.5858536  93.9147282  65.9253597  23.5909748  31.9451213
  65.4633856  23.6399555  31.1082149  65.6638956  24.3858552  32.4099112
  60.3001881  30.3492284  44.8197460  59.8568010  30.1984000  43.9849424
  59.6180916  30.6979609  45.3936434  63.5477209  42.8877115   6.1971796
  63.3184481  42.1110868   6.7075896  62.7053308  43.2648373   5.9434354
 110.0260735  89.4817638  93.3149338 109.3151379  89.5658970  93.9503288
 110.6812382  88.9430332  93.7584972   7.3230392  79.3690109  71.2170124
   6.9055140  78.5491276  71.4810181   6.6330808  79.8543262  70.7646227
  62.4213600  24.4790149  12.1038711  62.4766731  23.7126660  12.6747322
  63.3256388  24.7817659  12.0210719  29.1453934 104.6014690  87.0832253
  29.7397494 105.2846527  86.7729950  28.5165191 104.4892979  86.3703632
  66.1120319  56.1288357   3.1142697  66.4879370  56.7529106   3.7351221
  66.8482113  55.5736065   2.8573850   7.8879660 101.5244102  81.5660667
   7.4044019 100.8066750  81.9750404   7.5111943 101.5980339  80.6892204
   1.0682333  99.4136810  82.5542450   1.1043273 100.3228378  82.8515053
   1.8609172  99.3015957  82.0295334  88.4120560  29.4318199   0.6683081
  87.7957535  29.5863986   1.3842046  88.7172508  30.3050590   0.4222537
  86.7995739  34.1420150  17.2751081  87.4609756  34.3128729  16.6045880
  87.1816444  34.4874501  18.0819106 109.3829918  96.0828114  83.7713528
 109.3022251  95.2553368  84.2456913 109.7702694  95.8399773  82.9303551
   0.0603302  91.8239689  67.1502590   0.0596450  91.6956902  66.2016964
   0.9203521  91.5133858  67.4333334 102.1418381  81.5153503  16.0856342
 101.7661285  82.3604298  15.8388257 102.6173019  81.2278175  15.3062201
  32.8660035  12.6222134  82.2629261  33.7596345  12.8874671  82.0454502
  32.8963733  11.6655719  82.2750854  11.5119863   1.3515611  82.6644039
  11.2185168   0.8164603  83.4018135  12.4358189   1.1252478  82.5569344
 110.4901600  62.0617628  11.1250997 110.0213814  61.7181158  11.8856204
 109.8763275  62.6763964  10.7230163 104.8051453  62.0556641   2.0787430
 104.8153496  63.0117750   2.1231699 103.9007854  61.8161249   2.2811818
  95.9472179  64.6006203  36.5305734  96.5954399  64.9651480  37.1331978
  96.3502407  63.7965822  36.2029696  94.7350502  53.2987928  22.7572727
  95.1938534  53.4232473  21.9264674  93.8638592  53.6658239  22.6070976
  82.3304558  28.6826897  19.9483299  82.4101162  29.5137501  19.4801176
  82.3180199  28.0193138  19.2583954  95.5712986  60.1091051  17.4626970
  95.7777786  61.0320997  17.6099443  96.3472366  59.7566557  17.0268929
  16.9512641 103.1347656  93.4212017  16.4450395 102.6568317  94.0781212
  17.0793819 104.0032291  93.8027573  17.4854195  65.6329632  80.5951118
  17.8139091  66.4452982  80.2098370  18.2564628  65.0693989  80.6593227
 112.7759647  75.7928658  79.3301630 112.5832367  76.1106873  80.2122498
 112.0213604  75.2504683  79.1008139  32.9319119   9.1386896  78.1099606
  33.0478597   9.7926986  77.4207115  33.7633872   8.6650360  78.1330204
 113.6053658 109.4343567  83.2162857 112.7270317 109.7313213  82.9784489
 113.5617352 108.4804249  83.1503010 104.4820118  41.6900873   7.6031274
 104.8435116  41.5824938   8.4828860 103.8456726  42.3997450   7.6907992
 100.1241112  85.0941563  71.6073704  99.7221756  84.2643166  71.8643522
  99.7571373  85.2805519  70.7431841  22.0646548 105.5809593  83.7655067
  21.9744802 106.0756111  82.9510021  21.1698437 105.3276920  83.9922333
  78.5986185  55.7225084   9.2371315  77.6523972  55.6125927   9.3310416
  78.9743757  54.9874306   9.7215825  69.6170187  25.1759911   5.7667089
  69.7961712  24.4393063   5.1823872  69.0904093  25.7770610   5.2398050
  58.2331371  35.4876494  14.2022097  57.8747702  35.5451727  15.0879264
  58.4809303  36.3864040  13.9852548  81.6097069  53.5582924  35.0384974
  80.9517097  53.8761616  34.4202495  81.1149502  53.3586168  35.8332181
  44.0358353  51.7282534   9.5372617  43.5290384  52.2520065  10.1578057
  43.8404226  52.1134949   8.6830729  15.8695066  72.4164295  73.1693888
  16.2019181  73.0953360  73.7566042  15.2691877  71.9041491  73.7110710
 105.0028992  20.9020352  82.9474258 104.4470024  21.6729188  83.0612087
 105.8750725  21.2584877  82.7786255   2.3670007  72.4188805  31.8686748
   1.8885705  73.1785727  32.2006416   2.2927490  71.7661333  32.5648379
   8.9911008  10.8433437  92.6380348   9.0562445  11.4474428  91.8984032
   8.1088775  10.4779232  92.5718403 109.1421318  79.0854406  16.3312840
 108.9321232  78.4282589  16.9947910 109.6793175  79.7290564  16.7932606
  89.4592190  52.7854443  20.2686191  88.7875462  52.1266794  20.0921893
  89.8236275  52.5345755  21.1174417 114.4016838  17.2396719   1.5695912
 113.8469696  17.8987265   1.9869235 114.9510479  16.9052720   2.2785416
  48.6302519  33.8789535  11.0848653  48.0896235  34.6507287  10.9165955
  48.0956888  33.3331752  11.6615796  96.3951302  69.0993118   5.3381050
  95.6278801  69.2500877   4.7859919  97.1242619  69.0317011   4.7216409
  80.1209641 107.4852753  63.8386774  79.2111778 107.7493286  63.9757442
  80.1361179 106.5542126  64.0603256  96.9003391  39.7748518   6.3143671
  96.7248154  39.0787315   6.9474858  96.7863083  40.5849409   6.8113387
  13.1471539 106.7687702  76.3325977  12.2010720 106.8179607  76.1957026
  13.4353757 106.0579395  75.7599878  35.7773805  89.1214848  57.7059221
  35.7277822  89.1982174  56.7530918  36.0426092  89.9919605  58.0028296
  88.0500698  88.6565876  36.3597870  88.1609154  87.7630997  36.0347891
  87.1990871  88.9316940  36.0186529   2.3916705  71.2637186  62.2637653
   1.6252276  71.8371153  62.2600412   2.0764902  70.4401779  61.8913746
  91.6366863  43.9340115  52.8951168  92.2570133  43.2253981  52.7239656
  91.1981487  43.6776924  53.7064266  14.7244549  63.4358311  58.6384106
  14.9411905  62.6292038  59.1059685  14.9293995  64.1349792  59.2592335
  14.9538875  21.3814473  31.9026804  14.9379003  21.5985966  30.9705758
  15.6936157  21.8786049  32.2517753  41.9039059  25.7426429  29.8848772
  41.4791536  26.1704731  29.1413856  41.8101406  24.8065805  29.7081590
   7.1869963  48.2066107  24.7800136   7.9426515  48.0563450  25.3480268
   6.6679585  47.4058628  24.8550653 104.8366070  76.1269760  58.3878231
 105.6631374  75.9181690  57.9525328 104.4695187  76.8454790  57.8728199
  21.6167736  13.2178140  51.1911678  22.0755363  13.9325666  50.7496929
  21.1559105  13.6404777  51.9158649  12.0499671  70.1486492  41.9643688
  12.7818644  69.6182108  42.2793198  11.2705505  69.7003078  42.2925997
 113.9517689  89.9807453  55.2040291 113.4473991  89.8055649  54.4095707
 113.5258484  89.4528198  55.8794022   3.9666891  64.5803308  72.3176956
   4.1305500  65.0141954  73.1550407   3.9086494  63.6504221  72.5370884
   7.6981920 108.0789948  34.9474621   8.4002143 107.6716232  34.4400668
   7.7934790 107.7115154  35.8261633  20.9212112  55.5885839  19.2598069
  20.0591421  55.8862257  19.5504618  21.1821413  56.2245417  18.5936964
   0.9077922  80.8798790  72.6983070   0.0779719  81.3569641  72.7032614
   1.5516363  81.5159798  73.0098724  10.3827822 106.0797977  53.3638048
  10.1730859 105.4722881  52.6544428  11.2931728 106.3289070  53.2045317
  23.2634568  99.9833393  64.6271467  24.0035605  99.6889782  65.1580238
  22.9115081  99.1812229  64.2411852   9.9927008  64.4300032  63.6665297
   9.9901789  64.5680523  64.6137190   9.6506870  63.5432529  63.5528135
  25.6239724  43.4431791  74.4916773  25.5462599  44.1587257  75.1226950
  26.3968778  43.6647511  73.9722919 101.8367386 108.6307716  61.1076641
 102.6785183 108.3252048  61.4456797 101.8550682 108.4032440  60.1780796
  73.2322216  36.8404460   7.2609872  72.9074574  37.6144338   6.8008775
  72.5968122  36.1549497   7.0546287 108.8197136  92.5316620  55.2083683
 108.0719757  92.3870659  55.7882023 109.5354652  92.0423508  55.6139612
   1.3463628  83.3530712  74.5841551   1.1383792  83.6683369  75.4636860
   1.8899560  82.5787354  74.7295904  76.1862850  94.2772961  80.0753593
  76.4607573  93.5130882  79.5685196  76.6529036  95.0107002  79.6745777
 111.8794727  70.8983994  53.6959410 111.2728214  70.5912256  54.3696308
 112.5481796  70.2153158  53.6463356  11.2183714  83.5329151  51.9828796
  12.0610833  83.2528210  52.3401165  10.8303547  84.0675259  52.6756001
 111.9387341  52.5596762  23.0267835 111.2030220  52.6152420  23.6366010
 111.6438007  51.9497490  22.3505902 113.8620758  88.5731506  46.9407368
 114.6098137  88.6597347  47.5320244 114.1761684  88.9187622  46.1051989
 101.3881111  92.7977753  41.9590902 101.7051411  91.9416428  41.6714048
 101.6082573  93.3889866  41.2392044  37.9728937  69.3706942  79.2516565
  38.3417726  70.2183056  79.5000887  37.7998662  69.4504547  78.3136129
   6.7478484   2.4323784  66.4379215   6.0109794   2.0634581  66.9249058
   7.5004399   2.3161480  67.0178604  98.9206314  81.8823910  54.9075842
  99.3943596  82.4355984  54.2864847  99.3206692  82.0769596  55.7551336
  42.3438120  16.1303210  72.9622364  42.4770546  15.2151704  73.2091761
  42.2927761  16.1155224  72.0065117  18.0594099 100.0755596  45.9930372
  19.0019298  99.9384022  46.0882998  17.6666057  99.5090485  46.6571140
 108.8235950 102.5711536  71.2522364 109.1424274 103.1433392  71.9502258
 109.6142101 102.2965527  70.7877493  45.8781624 108.5941887  75.9019566
  46.4310408 108.7728786  75.1412821  46.4283943 108.0643559  76.4788055
   2.8874505  30.6469274  94.3383217   3.0607775  31.3019967  95.0143909
   3.7398845  30.2455258  94.1696072  83.2420540  85.4276180  74.5059681
  83.1948948  86.2271214  73.9817619  82.3861599  85.3687096  74.9304676
 103.5485744  81.5287971  54.5315313 103.0226803  81.6169739  55.3264475
 103.3846760  80.6339169  54.2339516  24.1377544  90.0368690  46.0315275
  24.8993516  90.2234745  46.5805101  24.3604636  89.2216301  45.5820608
  54.8832178   6.3053995  81.4919662  54.9218082   7.2390008  81.2842846
  55.7838154   5.9989905  81.3857937  10.2207875 103.0349827  92.6940250
   9.9318254 102.1532154  92.9290104  11.1669505 102.9530525  92.5744534
  20.4578066  16.8009746  53.6222029  21.3578892  17.1213031  53.6811304
  20.0955439  16.9422841  54.4968653  32.1071815   6.9582540  45.2922153
  33.0155277   7.1832561  45.4934931  31.9124627   6.2148792  45.8629227
  94.9273682  46.0539770   8.7982374  94.5260048  45.2536535   8.4596813
  94.2477703  46.4507437   9.3431699  29.3736482  87.2404575  89.7129250
  28.6801410  87.1411896  89.0606785  29.1098547  86.6666603  90.4322338
  76.8477011  33.1140876   2.2791165  77.2000694  33.2669282   1.4023566
  77.0307493  32.1908283   2.4532253 105.9986401  54.0615654  39.4099975
 106.3293839  54.9108601  39.1175222 106.5144634  53.4217548  38.9192915
 104.6340179  19.5666564  61.3387966 105.4833031  19.8815989  61.6482592
 104.0010929  19.9470580  61.9478321  19.5010328  91.5245819  77.8524160
  19.2029035  92.2374821  78.4173298  18.6960435  91.1485481  77.4962950
  82.8391457  33.4002852   5.6361771  82.9846954  33.9726877   6.3894379
  83.6679363  32.9342818   5.5257964  21.8734550  85.2431583  37.7611566
  22.5296640  84.5537567  37.8629112  21.7797065  85.6158638  38.6378145
 110.2941418 108.7504196  39.5655489 110.8279037 109.3518353  40.0848103
 110.6453609 107.8831768  39.7674584  11.8441463  76.7265701  80.2568340
  11.5403152  76.8536901  81.1555862  12.7985632  76.7647314  80.3189945
  92.6370430  98.1172752  64.6907568  91.9922352  97.6961708  65.2591991
  92.2711468  98.9840317  64.5144701  76.3688374  80.5467510  52.8546762
  76.3920403  79.6123266  52.6483965  77.1232939  80.6843853  53.4274626
  82.2175121  76.9633293  46.6920805  81.4809227  77.2168875  47.2482967
  82.9659271  77.4369669  47.0550919  23.6989641  12.8648460  67.4068499
  22.8515315  13.1791008  67.0916796  23.9269066  13.4634030  68.1181908
  54.7258997  13.5477877  64.6953726  54.0715599  13.6275315  65.3894281
  55.3283405  12.8739727  65.0104380 103.7996864   4.3836787  66.3301134
 104.3300343   4.7871429  65.6429625 104.4228458   4.1880283  67.0298386
 100.5678082  80.9606457  51.9678879 100.1568699  80.3977394  52.6240158
 100.0912189  81.7884254  52.0301628  14.1652262  87.8200912  78.8579273
  14.7311354  87.0482922  78.8406372  13.4190917  87.5579739  79.3971920
   3.5273656  99.6854591  33.7577319   3.9582705  99.1448212  33.0957174
   2.9083797  99.0932465  34.1847777  50.1954985  16.7716241  42.0791817
  49.5231295  17.4024379  41.8218327  50.2386141  16.1557329  41.3477087
 115.1624489 108.2079029  25.8155727 114.9547100 107.6209259  25.0885725
 114.5233250 107.9860210  26.4927077 112.2671413  99.0604591  51.8512487
 112.6175690  99.3212891  50.9995461 111.6077709  98.3975983  51.6461372
  14.3199337  86.9593048  21.8925786  15.1166201  87.4877357  21.8448544
  13.9341974  87.1834850  22.7394438 113.0087757  79.6595669  94.3466663
 112.2814274  80.2707481  94.2298412 112.7064037  79.0539742  95.0234699
  10.6309593  89.6933079  65.2016068  10.1790202  89.7373867  66.0442448
  11.5538621  89.8269463  65.4175282 114.3598747  82.4774647  46.3099289
 114.5000076  83.4012699  46.1021471 114.6192932  82.3963737  47.2277308
  11.6899228  88.2002735  68.2373428  12.0735919  87.3882580  68.5684824
  11.1312199  88.5094261  68.9504433 111.8841934  78.2896090  54.4364738
 112.7151012  77.8362274  54.5788670 111.3265514  78.0000830  55.1585817
 105.7859039  62.0559978  35.0850892 106.3483810  62.8285265  35.1403379
 105.0909615  62.2196245  35.7226682  96.1376190  82.6517105  29.7699785
  95.4225636  82.9002571  29.1841888  95.9616280  81.7363834  29.9878025
 107.4426746  37.7942872  63.0536032 107.4314117  37.0081449  63.5995722
 108.0452251  37.5821948  62.3407316   9.7875595  79.9485779  15.0842488
  10.6497264  80.3476143  15.2011633   9.5544982  79.6228743  15.9536362
  98.7649822  91.8648052  26.1707091  98.7343979  92.7930450  26.4023709
  99.1558743  91.8487263  25.2971077  26.4904666  83.5957813  41.2913418
  25.6314874  83.5756588  40.8694649  26.3145542  83.3665466  42.2038889
  26.7444587  87.2201920   8.9822251  25.8458400  87.3628616   8.6849666
  27.0680618  88.0954647   9.1953129  24.0360641  85.4992580  40.5508518
  23.8453150  85.7966805  41.4404488  24.0990710  84.5470142  40.6250143
  21.2703061  90.4292965  81.4094734  20.3751516  90.1902962  81.6498947
  21.2268877  91.3680267  81.2274456   9.7400135  85.3960896  76.5182877
   8.9357638  85.9083652  76.6018820  10.4367518  86.0007477  76.7735910
   5.9442228  55.8140039  13.9492536   5.2142835  56.4128304  14.1068292
   6.1692977  55.4772902  14.8165464  17.5478101 102.1640968  61.7842484
  17.8228986 102.1046925  60.8693552  18.3100379 101.8701935  62.2831011
  37.9616904 102.3672104  61.4838028  38.1133556 101.9820213  62.3468542
  38.8387752 102.5275803  61.1356115 115.1124287  27.2670531  12.8204191
 115.6804848  27.0976543  12.0688593 115.6437874  27.0300817  13.5805047
  94.2361641  90.7110119  23.0023122  95.0784779  90.2646446  23.0888200
  93.7998486  90.2610588  22.2788382   0.4705049  99.1914082  54.6019506
   0.8200048 100.0663090  54.7711802   1.1620124  98.7482071  54.1103983
  11.9655979 102.7742958  52.1097565  11.2083042 102.9225159  51.5433931
  12.5893641 103.4556007  51.8588066   7.7375013  84.2448235  21.9739628
   8.5766095  83.8799286  21.6929269   7.4857122  84.8387432  21.2667966
 102.5965977  97.1561527  32.5821400 103.4169960  97.5865650  32.3415065
 102.8524590  96.4958763  33.2261968   0.5102758  61.3312864  60.0108051
  -0.3527357  60.9345961  60.1294565   0.5047521  61.6514301  59.1087484
  16.7773747  88.4791756  37.4496174  16.2202883  88.5501194  38.2247663
  17.6596713  88.3547401  37.7993345 113.8271236  78.7765694  46.0296965
 113.5863018  78.6437416  46.9465399 113.5292339  79.6640444  45.8299732
  98.8855076  84.9915695  77.9079676  99.1648960  85.3608513  77.0702267
  98.0871296  84.5057011  77.7012014   8.0384153  76.3601732  50.8874846
   7.5848365  75.5406284  51.0845757   8.5965663  76.5143013  51.6496801
 107.9957199  97.2264481  43.8383913 107.4345875  96.6822433  43.2859421
 108.5334301  96.6006565  44.3236589 100.4701805  79.2310476  73.5357332
  99.9462223  79.5383930  72.7959776  99.8359776  78.8233280  74.1254568
  44.0173817  17.0768714  88.8999462  43.8164806  17.3038757  87.9920101
  44.1907167  16.1357343  88.8787937  23.7471008 107.8602409  26.0615420
  24.2673707 107.0569038  26.0756230  23.4448838 107.9340363  25.1563072
  40.9690857  18.7404597  91.1046124  41.0956669  18.7856591  92.0523262
  41.1833811  17.8356910  90.8772278 115.0103569  73.8997173  38.2014918
 114.7961140  73.7476635  39.1219306 114.7002983  74.7883463  38.0270410
  13.3433819  84.4567490  40.9979248  13.4875941  85.4030037  40.9921265
  12.6486945  84.3163967  40.3545427  89.4324589 103.8411236  60.2513695
  89.7132015 104.7286606  60.4743099  88.5352707 103.7840462  60.5800343
  19.9302769  64.6379423  50.8604431  20.3155851  65.0269032  50.0752831
  19.6979475  63.7474346  50.5972719  32.3363781 106.2911034  56.3826942
  32.8567362 107.0851421  56.2603951  32.9146051 105.6971741  56.8613720
   0.0021227  91.8997192  50.2160931  -0.2078516  92.8255939  50.0940943
   0.5536084  91.8802261  50.9982157  59.1127491   3.8335124  71.2117290
  59.0352058   3.0098748  70.7302332  60.0252581   4.0963295  71.0913515
  28.9597178  91.5406513  73.4012032  28.8255143  92.4640369  73.1877232
  28.5584831  91.0657883  72.6733637  43.3318138  89.9570274  83.1221199
  42.8187370  89.4310570  83.7355804  43.2243347  90.8569431  83.4300804
  17.4669015  98.0849266  27.6365948  17.4304986  97.2099590  27.2501540
  18.1897891  98.0404663  28.2624435  30.7020330  13.6104167  69.7777128
  29.8128676  13.2589316  69.8232365  30.5931139  14.5537782  69.8978662
 113.0006790 107.5772190  92.0157814 113.0848885 108.4190464  91.5680408
 113.8982391 107.2519016  92.0849705  85.4799843  17.5733280  51.3401890
  86.3592339  17.7517998  51.6737843  85.0647545  18.4341252  51.2868452
  10.1434433  80.0555801  80.4146576  10.6631911  79.6029139  79.7504377
  10.3494477  79.6004772  81.2311649 110.4637337  71.5125561  65.8815432
 111.1871624  72.1393299  65.8749199 109.6837044  72.0486021  66.0245228
 107.7870274  66.9519186  15.1876473 107.1951389  67.1258879  15.9195149
 107.2432518  66.5008307  14.5418465 113.6043453  74.8899603  73.6265612
 114.3482685  74.4140863  73.2572985 113.0604076  75.1085663  72.8698730
  31.0291839 100.5183792  51.9282103  30.0738192 100.5174160  51.9874668
  31.2109113 100.4948997  50.9887171  39.5911098 101.8374634  63.8599205
  40.3833342 102.3574924  63.7250900  39.4582701 101.8447399  64.8078299
  92.7994919  90.7245922  40.7583284  93.4247589  90.0216770  40.5817699
  92.1405602  90.6376266  40.0695038  15.8461070  15.0820100  34.9072576
  16.7951202  15.1990211  34.8635173  15.5178499  15.9132051  35.2501774
  36.9519472  83.7736797  73.5806894  36.8188763  84.2545891  74.3975449
  37.8660679  83.9403439  73.3508253  33.3877563  96.7721462  75.1832151
  33.8853860  95.9916782  75.4270935  33.5547233  97.3937416  75.8917141
  48.2501125  22.8291464  49.0197897  48.7641144  22.2010279  48.5123491
  48.5921717  22.7543545  49.9106503  79.7186804  68.5106993  29.2995310
  80.1960754  69.1544771  29.8228645  79.1133738  69.0320635  28.7722635
 105.4872417  82.4131775  62.0690870 104.7734833  82.9823971  61.7814016
 106.1587429  82.5112438  61.3940287  81.1077213   0.9519356  76.8769550
  81.1291027   0.3287607  77.6031971  80.6480026   0.4883231  76.1769915
  17.8833437  83.6114597  24.7903466  17.5437796  82.8229904  24.3669820
  18.1439078  83.3207417  25.6643152 110.3716660  83.9525986  43.2065344
 109.6307373  84.5585251  43.1958675 111.0398865  84.4004631  43.7253094
 115.1875782  64.3543196  54.6309042 114.6558475  63.7530708  55.1524305
 115.9148598  63.8182497  54.3147993  35.1771879  -0.1265522  68.9888811
  35.2320981   0.6507776  68.4330273  34.2439175  -0.2183637  69.1807461
  21.5721178  71.8610048  80.9100819  20.9396482  72.4656153  81.2982368
  22.2875500  71.8227100  81.5448475  27.7416539  71.1927509  61.3945150
  27.4211836  71.7349005  62.1153498  27.5560880  70.2948189  61.6693211
  18.0185664  99.2826748  86.1480045  18.3369493  98.6387825  85.5153370
  17.7041876  98.7590790  86.8850517  47.2237539   0.7789501  93.8103390
  47.0035744   1.5257867  93.2535744  46.4854240   0.7050978  94.4150257
  37.1251726  83.8635063  82.5548458  36.9718909  83.7808228  83.4960651
  38.0689549  83.7395954  82.4540806   8.3612037  68.3851767  56.9368935
   9.2282331  68.1833649  57.2886896   8.0000049  69.0298939  57.5452566
 114.0135098  80.3511524  56.3364363 113.8849926  79.4638729  56.0010958
 114.8205948  80.6507778  55.9180212  42.2259569  22.9880142  57.1723652
  42.3591757  22.2060871  56.6365671  42.0788050  23.6902761  56.5388012
  84.1138935   3.1543139  17.0355296  83.6678505   3.1347689  16.1888373
  83.6233616   2.5376350  17.5789583  85.6338692   3.0774420  88.2568550
  86.4805031   3.1632736  87.8185940  85.6323624   2.1847177  88.6022091
  10.4018378  92.2941303  88.6960697  10.3653491  93.2097244  88.9728260
  11.2923026  92.1795559  88.3641338 114.8157310 105.3119659  58.7618160
 114.3006134 104.5302963  58.9615011 115.6221390 104.9742794  58.3720684
  82.4552631  82.0855522  22.9262233  81.5365410  81.8378258  23.0301857
  82.7376366  82.3332977  23.8066339  24.3356824  26.1946058  44.2267370
  25.1314688  25.8327079  43.8368845  24.0335011  26.8457413  43.5935402
  14.7887993  89.1717052  39.3342662  14.1137874  88.5393238  39.5806074
  15.0423920  89.5850372  40.1595402   8.4705359  89.5930481  46.2595177
   7.9020327  89.4076538  45.5120754   7.8672314  89.7632313  46.9829082
  55.9797621   9.5677829  91.8441963  56.8846321   9.3004668  91.6829967
  55.8173752  10.2613294  91.2047768  11.5496087  58.0753469  81.3556862
  11.2786543  58.5243654  80.5549335  12.4312162  57.7554083  81.1642742
  56.9358206   6.4952749  60.6323099  57.5666714   6.5198082  59.9128294
  57.4671078   6.6072220  61.4206219  15.9339523  85.3744221  73.1875134
  16.7505801  85.1240349  73.6195517  15.6588125  86.1721992  73.6392736
 106.7871189  81.6593552  75.5233002 106.7009544  82.5936127  75.7129812
 105.8964252  81.3167381  75.5976009 108.6332893  84.9944401  63.4637594
 107.8557968  84.9541092  64.0206480 109.3581486  85.1304626  64.0739298
  96.9129848  91.7144108  23.8112974  96.4268208  92.0104599  24.5808625
  97.8170776  91.9775772  23.9832997  23.1883335  99.9258041  84.4087791
  23.6404800  99.5428276  83.6570358  23.8738847 100.0428295  85.0664711
  15.9317756  68.3318615  66.5131760  15.8229542  68.9849138  67.2044945
  15.8161283  68.8227606  65.6996202  42.2809410  66.7157221  68.3490515
  41.4206839  66.4501667  68.6741209  42.3021936  66.4030504  67.4446106
  42.4948788  13.6156440  73.9433289  41.6800022  13.5660982  74.4430828
  42.5061131  12.8121424  73.4232426  85.7289505  95.9893131  53.7181139
  85.7139778  96.8749809  54.0808725  85.7086945  95.4162025  54.4845152
  72.6042271  39.4656992   6.1447161  73.5362577  39.5965385   5.9702647
  72.4983263  39.6979094   7.0672643  12.0764911  74.5155621  72.2124577
  12.7428901  73.8418722  72.0772171  11.2698030  74.0257835  72.3724699
  10.7221544  10.7117116  42.2160339  10.8449352  11.3408351  42.9269218
  11.3580287  10.9749484  41.5507507  54.4157028  10.5166507  70.2457047
  54.2091894  11.2490833  70.8263302  55.1315784  10.0573778  70.6848192
  58.6466551  17.0086026   8.5462904  57.8964567  17.5498068   8.7923318
  58.9533615  17.3851299   7.7214330   4.1826344 105.7754421  64.8643255
   3.4139708 105.6122494  65.4109097   4.0338138 105.2494717  64.0785503
   7.2378772  91.5559578  55.9079790   6.2995076  91.7016983  55.7877541
   7.4109048  91.8378925  56.8062019  63.4390211   8.2896614  79.9559784
  64.0033197   8.0843371  80.7013893  64.0356731   8.3333397  79.2087650
  18.9901221  58.8942337  59.0981531  19.6625662  58.2877445  58.7879562
  18.9735186  58.7685728  60.0469255   3.8211608  94.9729633  68.5342741
   3.9336020  94.0232849  68.5753727   4.0173113  95.1982498  67.6248789
  63.0371284  26.4408684  78.9179564  63.8585997  25.9553146  78.9931488
  62.3876667  25.8799124  79.3419361  95.6639671  86.2018871  42.7869654
  96.2487793  86.4447403  43.5047722  94.8078632  86.0944366  43.2014227
 101.0859966  56.7512846  10.6778383 100.4826450  56.4276981  11.3467860
 101.4563084  57.5492620  11.0551178   4.4828570  80.8594799  35.2287698
   3.7270930  80.3546810  34.9283862   5.2301544  80.2778244  35.0892758
  30.5709553  15.6080604  66.3042974  29.6329236  15.7756102  66.3951540
  30.7528687  14.9143851  66.9382954  42.2364378 102.8556919  74.9133253
  41.6282845 103.0223942  74.1931915  41.7566538 102.2730160  75.5019855
  51.5252638  98.5770607  86.7340946  51.1135960  99.1637611  87.3685551
  51.2539196  98.9176941  85.8817005  45.6707382   0.7949529  69.6014881
  44.9894905   0.6827290  68.9385080  46.3492823   1.3084291  69.1631317
 107.4195194  93.9731693  51.4132166 106.9782448  93.1253815  51.4657164
 108.2766914  93.8220978  51.8115520  18.1671381  93.9811707  46.8206453
  17.6106906  94.5713997  46.3124943  18.9480066  93.8632393  46.2797499
   8.3144593  85.3624535  85.8723450   7.4437642  85.2912331  86.2635612
   8.1606668  85.7639313  85.0171280  52.2293949  24.6153092  25.4874372
  52.5718498  24.9647951  24.6647477  52.9988289  24.2686152  25.9391141
  98.4314919  82.1725178  49.3674564  98.9546108  82.6360416  48.7134457
  98.2135868  82.8407192  50.0172710  16.0609913  89.8263359  70.8654118
  16.1075258  89.3983459  71.7203379  15.2033710  90.2513504  70.8566952
  42.6702976 102.8544235  17.1761167  42.9792833 102.3424435  17.9235363
  42.6906252 102.2415257  16.4411473  98.8908482  77.5953293  49.7007036
  98.1709957  78.1590319  49.4173765  99.2382717  77.2245550  48.8894939
 104.7834492  69.3065596  25.9033680 105.0750160  70.1495838  26.2505436
 105.4169846  69.0982676  25.2167225  25.1683950   6.4669752  78.2867384
  25.0114012   5.7627612  77.6577187  25.9377789   6.1810988  78.7792349
  10.5337751  98.3411598  67.0283508  10.6148160  99.1996479  66.6128254
   9.8295671  98.4499359  67.6674843  83.4024048  42.6734018   0.3188100
  83.6717415  43.5901070   0.3766363  83.1831551  42.4309778   1.2184709
 100.1034355 106.5437698   7.5561821 100.5290222 107.3643017   7.8048360
 100.0240231 106.5942192   6.6036171  14.5418394  82.7738953  43.7365389
  15.4676950  82.9971409  43.8323784  14.2937875  83.1401157  42.8876686
  41.6284657  68.0279398   3.3069766  42.3888397  68.4752512   2.9355228
  40.8965397  68.6221933   3.1415185  25.0702310  89.6886349  69.9658155
  24.6770883  90.4643250  70.3657722  24.7264385  89.6794224  69.0725327
  45.9796476  14.7566414  16.3408470  45.5950832  15.5139732  15.8994985
  46.6723347  14.4612932  15.7499278 104.4299698  94.4724274  37.5761056
 105.1760387  94.8408413  37.1029544 103.6857986  95.0106144  37.3062921
  19.0867639 101.5398693  58.3860016  19.4442666 102.1857071  57.7766466
  18.1530225 101.5056801  58.1781816  47.0797253   0.9517790  73.8852358
  47.8339863   0.9696911  74.4743061  47.2759008   1.6161501  73.2246590
  30.3252983 106.9531441  39.6987844  31.1182141 107.4363232  39.9312901
  29.8007464 106.9541931  40.4994583  47.4481869  86.6885567  72.6211500
  47.7414083  87.5991631  72.5888586  47.9989767  86.2367630  71.9818163
  14.3567324  35.2620935   4.6470979  13.9708579  34.3873453   4.6007168
  13.6588442  35.8476186   4.3532526   9.7722936  57.3623991  44.9198914
   9.7390157  56.8096590  44.1391182   9.0169722  57.9440641  44.8339319
  89.9092865  38.3682847  57.2128057  90.7641697  38.1169033  56.8632078
  89.8569965  37.9249430  58.0595303  15.6888115  65.3445435  60.4209232
  16.4777493  65.8501530  60.2255535  15.0317836  66.0032654  60.6459379
   5.1763815  16.3344812  23.8119221   4.6733701  16.4626038  23.0076838
   4.7475916  16.8989992  24.4551086 110.6505680  34.4572401  18.2896042
 110.0741100  34.7338557  19.0019286 111.4768410  34.2394781  18.7209916
   3.7216827  76.5966368  53.6087942   2.7965593  76.7603683  53.7920189
   3.8594764  76.9558334  52.7323103  38.1725550  52.5324345  32.4953532
  37.8238297  51.6483927  32.6097798  37.4260664  53.0463696  32.1873641
  96.2438679  61.8459940  13.9978158  95.7711315  62.4665928  13.4431839
  96.2515450  62.2555780  14.8629248  41.7708158  23.5108781  38.3890033
  41.4714766  23.0140281  39.1504312  41.6784048  24.4272852  38.6495590
  59.4550037  42.0839071  62.2705126  58.8405085  41.5330172  62.7554321
  59.9049377  42.5922155  62.9453564  96.0248184  71.1577368  62.8780031
  95.9795094  70.5091286  62.1755171  96.0998726  70.6386948  63.6787510
  19.4593239  87.8254223  55.8512974  19.2769635  87.5794125  54.9444056
  20.1266003  88.5084534  55.7846355 106.8050861  52.4385214  32.4398994
 106.8705273  53.2589483  31.9511747 106.7237568  52.7101755  33.3541322
  85.5774784  49.8255396  14.0275562  84.6775532  49.6705055  14.3145013
  85.5697060  49.6194220  13.0928445  11.2702847  58.6368370  33.7914324
  11.4179826  59.0127087  32.9235983  11.1744928  57.6977825  33.6325836
  16.7416406  88.5506344  59.6440315  16.7040682  88.5575485  58.6875916
  15.9385514  88.9933014  59.9184799  99.4760704  78.4971857  46.1363173
 100.2549553  78.4447098  46.6902208  99.2247581  79.4204140  46.1632729
 111.7975807   6.9396544  13.5043585 111.3099384   7.0303881  14.3230164
 112.0159626   7.8375965  13.2548738 100.4952049  79.7714090  36.3048983
  99.5906448  80.0173283  36.4986277 101.0207748  80.2977657  36.9073558
   8.2141286  20.7339954  62.5474977   8.0056548  20.0507307  61.9103765
   7.4504548  20.7652092  63.1237411   9.2390686  77.0004463  41.3697958
   8.7861991  77.4982405  40.6891060  10.1557517  77.2640228  41.2894821
   6.9636589  46.2025309  68.6743307   6.2972164  46.6692781  68.1701183
   7.0463991  46.7050266  69.4848156  12.5746274 106.9186687  65.7215452
  12.6188087 107.5773811  66.4146328  12.4524152 107.4242783  64.9180174
   0.6605859  91.4886570  27.1971440  -0.2752305  91.3100815  27.1044540
   0.7175209  92.4421787  27.2587276   2.6724753  58.8199663  43.3396006
   1.7321770  58.9913416  43.2876110   2.7439642  58.0423498  43.8931608
 107.3468781  30.2164674   8.5895652 107.4207211  30.1351380   7.6386893
 107.8941441  30.9706116   8.8086635  18.2424569  35.3392887  40.0042295
  18.1867433  36.2809992  39.8420334  17.7312863  35.2029920  40.8019495
 101.0969257  50.7027245  60.7721519 101.9008160  50.7183361  61.2915182
 101.1440468  49.8816109  60.2824783  24.6341157  61.6014099  25.7853985
  24.9153447  61.4647484  24.8807073  25.1694345  62.3321009  26.0948420
   0.9547127  48.8266087  42.4428034   1.4653772  48.6098671  43.2228518
   0.9235137  49.7832727  42.4351358   1.1005115  64.6922827  48.8289785
   1.9414341  65.1371717  48.7233686   1.3324706  63.7811136  49.0084171
 102.8196526  44.5537090  21.1491680 103.7490368  44.7306061  21.0035634
 102.4584770  44.4324780  20.2710533  13.5673141  71.8930483  12.9204404
  13.3142352  71.7943430  12.0025945  13.8262117  72.8111219  13.0001056
  92.1354294  66.2660456  45.9606218  91.2307835  66.0578108  46.1940432
  92.6094913  65.4433680  46.0818291   6.6935790  82.9585361  54.3276548
   6.1211759  83.7119007  54.1826248   7.5790930  83.3074188  54.2257929
  12.1551287  97.2963810  15.1300573  11.6651630  98.0508041  14.8029339
  12.4638391  96.8508816  14.3410945  11.5984857  78.2367277  65.4500484
  11.0036719  78.4765482  66.1606169  12.3478186  77.8353930  65.8901167
 111.9534492  61.6143227  30.1015687 111.7232227  61.4003897  31.0057020
 112.8146935  61.2168074  29.9732447  10.3920233  59.7319603  23.1602931
  11.0413623  59.1552401  22.7578187   9.6637869  59.7430086  22.5391817
  97.6441669  62.0909595  36.9525862  97.6987171  61.2860632  36.4374185
  98.2976913  61.9782972  37.6428342  14.8063624  53.6073828  33.8510585
  14.3689215  53.3713913  33.0330205  15.7396984  53.5780001  33.6406970
  26.5022111  63.3393240  66.9268465  27.0488358  63.9692974  66.4572001
  25.7292891  63.2326937  66.3723612 113.4330368  83.2616520  52.9938650
 112.6019573  82.9629517  52.6246500 114.0083599  83.3653450  52.2359180
 111.2672424  87.1840763  70.5846405 111.4060783  88.0406475  70.1806259
 111.7165089  87.2413445  71.4279175  85.7795906  67.7509737   6.3073683
  84.8633099  67.4762154   6.2730020  86.2112331  67.0798111   6.8360031
  11.3278532  45.2332830  46.5098000  11.9128644  44.6494198  46.9925976
  11.9083059  45.7323313  45.9351206   9.2326283  44.6931219  87.4609756
   9.1411191  45.5875969  87.7892780   9.0726256  44.1398382  88.2255077
  12.6716781  87.6506710  28.0476022  12.5029218  88.3532906  28.6753535
  12.0026016  86.9932652  28.2383466 103.7048054  68.8197994  55.0249100
 103.1075954  68.0925655  54.8497009 103.1712055  69.6040916  54.8969221
  30.8801913  99.3333626   9.3562603  31.5411139  98.7006760   9.0749615
  31.3807487 100.0292587   9.7821712  17.8872013  71.0945988  38.6406422
  18.4294367  71.1162806  39.4291472  18.4507859  70.7034874  37.9730821
  80.8361721  45.3989506  27.4704719  80.5274391  45.8947659  26.7121267
  81.3388157  44.6758366  27.0953798 114.4093513  55.5331945  30.7570529
 115.1657677  54.9623346  30.6222296 114.4626045  56.1730289  30.0471163
  93.5722923  39.4907284  52.2266197  93.3503151  38.6683607  52.6632786
  94.2823887  39.2598367  51.6277266  41.6772079  47.3224783  19.2560196
  41.5984011  48.2636499  19.1004109  42.3960018  47.0451546  18.6879861
  20.7086563  57.5817585  52.7670813  20.7033229  57.8405952  51.8455553
  19.9759161  58.0604887  53.1545687  28.0694366  63.8784456  42.5479317
  28.5617685  64.6181917  42.1920967  28.7019777  63.1605339  42.5749350
   9.5628881  59.7909546  55.3250170  10.3479207  59.7023249  55.8654833
   9.0481400  60.4707193  55.7599735  25.8401132  67.8156090  19.8521495
  26.3489819  68.2206964  20.5544257  26.4178348  67.1402788  19.4966233
   7.7723151  95.4733753  79.5044994   8.5800374  95.9805584  79.4233465
   7.6452279  95.3747272  80.4480839   7.7011949 102.0102787  31.4788055
   7.1645945 102.6887035  31.8887162   7.8783274 101.3868427  32.1832085
   2.1464385  89.8919201  67.8501987   2.5245953  90.0467777  68.7157869
   2.2706753  88.9549828  67.6986885   2.4435918  74.3061638  44.7530651
   3.2286745  74.7199011  45.1118135   2.7760684  73.6717129  44.1181135
  21.0491371  98.5965252  43.3666849  21.7127848  98.2601833  42.7644539
  20.6921601  99.3664646  42.9239798  22.3518896  66.7736292  43.8423586
  23.0221391  67.1194458  43.2529449  22.0842481  67.5268602  44.3689013
  13.8848722  52.2004414  47.9216480  13.4236646  51.3871241  48.1266689
  13.3595157  52.6064301  47.2321510   5.8932704  61.0758734  45.2252340
   5.1867533  61.4393187  44.6914053   6.5313554  61.7860794  45.2937222
  11.4306211  38.6472631  65.8766270  12.2894514  39.0444374  66.0211802
  11.6247010  37.7778006  65.5264807  17.5226963  71.1121893  55.2890539
  17.7550519  71.0148716  56.2125111  16.6194141  70.8000803  55.2351809
   4.7453764  79.0481949  48.3517981   5.6524765  78.7510633  48.2802916
   4.7220969  79.5530701  49.1646862  87.9612637  55.5300951  27.9119802
  87.5424862  55.6613302  28.7626481  87.6750755  54.6593952  27.6359129
 107.7232933 108.5126400  74.2337084 106.9240856 107.9976749  74.3445683
 107.4205017 109.4199657  74.1974449  43.4072971  84.6434498  54.1947508
  43.2761812  85.5906963  54.1526937  42.5244999  84.2829227  54.2779207
   7.6591957  76.6678524  48.1193447   7.9536378  76.5375614  49.0207672
   8.0489242  75.9415293  47.6327276 114.3100452  56.9545650  52.5311995
 114.5035744  56.3206816  53.2218361 113.6887074  57.5627470  52.9315567
 107.3946762  32.2001743  87.4959469 106.7577839  32.7891588  87.9005432
 107.1286964  31.3264632  87.7825069 103.5193729  71.2263966  59.9474955
 103.9691448  70.4704142  60.3248882 102.5892925  71.0411453  60.0773859
 113.1260204  57.8546572  32.1658516 112.8520870  57.1587276  31.5684605
 114.0796757  57.8767776  32.0865536   3.5375008  71.4640236  29.7759604
   3.0879062  71.7813540  30.5591559   4.4681588  71.5472174  29.9837708
   6.2040865  38.6911917  43.8322258   5.9230357  39.6027541  43.9115858
   6.8018770  38.6890817  43.0846453  23.8688827  37.3168349  54.8479557
  23.4432101  37.5882506  55.6612015  23.2505631  37.5633979  54.1601181
  88.9881897  34.2543054  15.6947970  89.5230198  34.0354514  16.4578795
  89.6090317  34.2804050  14.9667108 110.9114933  69.2407274  55.9649086
 110.9289932  69.4854927  56.8901205 111.7572403  68.8190889  55.8126688
  34.3358183  62.9304409  26.2145400  34.0004659  63.2218456  25.3666878
  35.2842426  63.0412626  26.1478972  92.4414158  52.4864101  47.5299025
  92.1525288  53.3348465  47.8659582  91.6324711  52.0393944  47.2808743
  99.6476173  68.8155508  55.0994682  99.5632362  67.8883219  55.3216457
  99.7767639  69.2527294  55.9411478  20.5363917  30.8601832  61.8715143
  19.6537280  30.6201982  61.5894842  20.9397817  31.2457895  61.0938168
   4.0320078  37.2763395  53.3766270   4.1807550  37.9725909  54.0164232
   4.3684775  36.4863920  53.7997150   8.8028049  42.8373146  39.4496465
   8.4868038  43.5401487  38.8818407   8.2594383  42.9013395  40.2350664
  12.5654018  46.9149256  44.4239140  12.4474943  46.3032770  43.6971331
  13.5096216  46.9212151  44.5808840  18.6907935  66.4230585  15.7035959
  18.4501243  66.1161900  14.8294437  19.3264651  65.7795572  16.0167480
  25.5095100  62.9697323  45.5818462  24.9640560  62.1922302  45.4626656
  25.0525808  63.6590385  45.0998688 110.4678631  52.9223299  29.5805144
 111.2914848  52.9635239  30.0665092 110.7090855  53.1442451  28.6811805
  91.3215065  87.2415829  44.6573353  91.2992954  87.9941082  44.0661907
  91.2861538  87.6244736  45.5339050   0.2012604  40.3031445  46.6134167
   0.6584372  39.6149302  47.0967150   0.1231316  41.0235596  47.2388220
   7.1750224  75.7412052  11.0764849   6.3030559  75.3509283  11.1364019
   7.1720850  76.4362383  11.7346311  14.7925270  48.1350088  45.5786848
  14.3025577  48.4026766  46.3561916  15.7110083  48.2003498  45.8401346
  76.3996172  62.0826912  58.5381746  75.8470535  61.5948677  57.9274893
  75.9370041  62.9100323  58.6712885   6.5821606 101.3727379  27.6008987
   6.3579607 100.4458427  27.6835465   5.9865320 101.8179035  28.2036352
  12.8920269  74.6071434  30.9007263  12.9974747  74.9554157  30.0153923
  13.3021331  75.2617264  31.4660263   6.1265522  47.8712749  55.2484655
   7.0129871  47.5238991  55.3474522   5.7000208  47.6809025  56.0839653
  22.7651644  69.6950150  44.6053410  21.8094516  69.6588707  44.5661068
  22.9533982  70.4372835  45.1796532  36.3927126  97.5931263  54.8879290
  36.7180538  97.3667240  55.7592058  37.1157789  98.0680370  54.4782066
  14.5770693  54.0047312  21.8229127  14.6853971  53.9706659  22.7733517
  13.7383080  54.4473124  21.6931605  29.0924573  85.3793049   9.3128669
  28.4335852  86.0563755   9.4668287  29.3773484  85.5231476   8.4104365
  17.5222766   3.9767116  73.0165434  17.2680688   4.0470427  73.9366865
  16.6924608   3.9497325  72.5401926  60.8796978   0.8993019  74.9304628
  60.3460455   0.1349556  75.1477671  60.2610207   1.5232542  74.5507908
  29.8632503  50.4836178  53.2454872  28.9824152  50.6415462  53.5852289
  29.7704029  49.7099257  52.6896000  13.0968845  85.5068302  59.3059111
  13.6114681  86.0071373  59.9392557  12.2075593  85.8491802  59.3960428
  13.7582660 103.3565140  46.7276001  14.0135682 102.6156902  46.1778450
  13.1507003 103.8592243  46.1850405  39.3330979  91.8340492  13.5141098
  39.5246959  92.2446251  12.6709294  39.1564846  92.5676441  14.1030836
  28.7872863  61.1276770  30.0514102  28.0760098  61.7597628  29.9475527
  29.0140200  60.8731461  29.1569638 115.5800152  59.2842054  38.3221674
 115.6014252  58.7263155  37.5446463 115.7235813  60.1689243  37.9861784
  85.7777691  23.6611080  17.6945221  85.5201054  23.9285231  18.5767519
  85.4086494  24.3342519  17.1228111   3.4645206  72.9954672  42.5625515
   3.1835738  73.0207062  41.6478586   4.3584883  73.3372879  42.5480461
  10.4242909  48.2166290  45.5004644  11.3316071  47.9132509  45.5316448
   9.9332559  47.4687910  45.1600885   4.7507375  63.5163403  33.1877398
   5.2594161  62.8353453  33.6278844   4.9679887  64.3202877  33.6596560
  19.2141652  48.6618853  20.9781289  18.4760880  48.7994719  20.3843760
  19.8025966  49.3962526  20.8029580  24.0101290  82.8282452  52.0973349
  24.3786645  82.0787621  51.6296816  23.7451673  83.4351254  51.4061642
   1.1846463  73.7116575  10.9147656   0.5858646  73.3154678  11.5477955
   1.9337323  73.1163263  10.8885670  65.6717634  16.0841656  27.3182702
  66.4648390  16.4189446  26.8997169  65.9062433  15.2012455  27.6041102
 104.7660065  69.8408794  44.3230963 105.5688477  69.5396662  44.7484779
 104.5448971  69.1425228  43.7069464   4.7139412  56.2491465  51.2036753
   4.1001314  55.9419823  51.8708467   4.4217509  55.8259201  50.3963709
  34.0407372  44.9524260  20.1141310  34.5998287  44.5509768  19.4489324
  34.1430616  45.8941317  19.9764657  59.2603159   1.2732784  18.2557404
  59.5115614   2.0090578  18.8140750  58.5557556   0.8380383  18.7357318
 111.9263744  76.9758368  40.9244585 112.8017616  76.9511557  41.3108873
 112.0821857  77.0220900  39.9811602  29.8580527  82.1297359  89.2301178
  29.0252304  82.4361992  89.5888805  30.4937196  82.2935295  89.9267673
  18.6315882  56.5116644  19.9663007  18.3625066  57.1260357  20.6492186
  17.9803205  55.8112001  20.0041366  20.2966070  71.5462494  61.0057974
  20.0234294  70.7517385  60.5471420  21.2531686  71.5159655  60.9883785
 110.5628967 108.6248207  53.1093645 111.5154552 108.5879803  53.1960344
 110.2394676 107.9906368  53.7492323  55.3831720  76.4023685  69.5814657
  54.6312284  76.4526176  70.1716232  55.2306223  75.6103325  69.0660620
  28.4170198  56.5137053  36.0772157  27.8841496  55.7935476  35.7400894
  28.6070323  56.2676573  36.9825268  95.6666851  33.7753105  15.3679729
  96.4457035  34.3081808  15.5273545  94.9929237  34.1630054  15.9265184
  10.0882983  86.7449379  28.2906651   9.7865194  87.6447105  28.1658673
   9.7415823  86.2691689  27.5359035  34.2339373  42.4195910   8.3047640
  34.3093419  43.3643532   8.4388143  33.2954073  42.2675562   8.1939512
  99.0431881  71.9699192  61.8254471  99.3141079  71.7884493  62.7253914
  98.0907249  71.8757391  61.8384457  26.9105959  57.0240021  17.7745271
  27.0158172  56.2624788  17.2042274  25.9631705  57.1379185  17.8496146
  22.4436688  71.8208408  70.9066677  21.9794917  72.6320171  70.6998587
  23.2468271  72.1084785  71.3407612   4.6898293  45.0092268  82.6199245
   4.3825045  44.3944740  81.9536972   5.4240286  45.4632854  82.2063828
  53.9028120 101.9201851   0.4394214  53.8196707 101.7288208   1.3736065
  53.8394165 102.8736496   0.3836747   0.9189072  65.3069353  61.5847254
   1.6357014  65.9165764  61.4092875   1.2881537  64.4434500  61.3995790
  53.6264372   0.0487844  37.7568865  53.2721472   0.2753345  38.6167622
  53.7777233   0.8922478  37.3303723   3.2598156  55.6952477  38.3723044
   3.1477353  56.5126562  37.8870034   3.3495858  55.9690237  39.2851114
  20.2319670  56.8032646  40.6080198  19.5087206  56.2407875  40.8850861
  20.1011801  57.6179886  41.0931492  17.9472589  99.0312290  13.3570492
  17.8060496  98.9736843  14.3020260  18.8942325  99.1335583  13.2621789
   1.0931510  81.5583706  21.6804171   1.8213895  81.4288139  21.0728669
   1.2556145  80.9323025  22.3860168   7.0378852  88.7466812  35.2277231
   6.4939851  88.1105232  34.7632718   7.1670324  88.3632851  36.0952258
   9.4775867  94.5046234  69.7405052  10.1425540  94.0647793  69.2108059
   8.7978154  93.8431358  69.8692417  29.7156143  57.3001480  79.2849398
  30.1215577  57.6395130  80.0826073  29.7792125  56.3488483  79.3698931
   0.1232871  84.6326733  43.6191702   0.5250904  85.2987671  43.0614042
   0.8521912  84.2707920  44.1231298 104.7583008 101.3446331  49.6311951
 104.3853569 101.5887451  50.4782772 105.1359558 100.4772186  49.7767973
  33.2533121  87.2234058  79.0858841  33.4185314  87.4747658  78.1771755
  34.0804148  86.8447685  79.3838215  14.5603049  96.9997406  32.8580379
  15.0612152  97.6295090  32.3396730  15.0970781  96.2072086  32.8561449
 107.8605843  77.3609304  18.6965501 107.7243710  76.8823957  19.5142794
 107.0069218  77.7465916  18.4996736 103.1117153   8.6489457  79.0894079
 102.1876431   8.7483788  78.8604212 103.2615662   9.3045503  79.7705555
  23.3752584  63.8360882  49.2492819  22.7928329  63.1488132  49.5728064
  22.9060888  64.2180967  48.5075426  28.3436084  81.4343452  36.6580009
  27.7743459  80.9845734  36.0336041  27.9222322  81.2991142  37.5067568
   4.7938475  72.0549297  17.6216829   4.4165009  72.4736643  16.8480527
   5.7345259  72.2149229  17.5457966  95.7925510  77.3818064  59.0406561
  94.9566174  77.4826384  58.5853720  95.6043339  76.7730570  59.7549629
  90.2587414 102.4905014  66.1512947  89.8396778 102.0686245  66.9013929
  89.5962238 102.4645424  65.4609156  22.6081157 106.7589855  32.4571466
  22.2073293 106.5613079  33.3036256  22.4547029 105.9745598  31.9304848
 110.7885170 107.4745750  76.4078140 111.4103222 107.8187943  75.7666397
 111.2668610 107.4885941  77.2368002  26.2292671   1.8004717  76.2047577
  25.9506893   2.0877616  75.3352213  25.4736185   1.3283518  76.5545225
  23.8024497  75.1285601  45.9092617  24.7165418  75.4125834  45.9088659
  23.3371687  75.8181572  45.4357576  37.3052502  38.9686728  30.1447749
  37.9445648  38.2824469  30.3360915  37.7406931  39.5294523  29.5027876
   6.3767493  72.8426886  49.2255974   5.8763367  73.5996389  49.5303059
   5.7757831  72.1038723  49.3216085  38.2695389  84.8046303  33.3120012
  38.5966444  85.2893734  32.5542068  37.4309659  85.2181149  33.5170674
  32.1939492  71.4379406  73.9928007  32.6810670  71.8647051  74.6976566
  32.7547216  70.7119131  73.7195826  18.7419105  57.5467825  28.2467771
  18.7235761  57.1469641  29.1162825  19.5431173  57.2104168  27.8453350
  39.0434933  89.5258427  50.6641769  38.8150334  88.6268902  50.4276991
  39.6457028  89.8088455  49.9760723   9.9977136  56.6823959  75.1001310
  10.3206885  56.0594130  74.4491196   9.5985055  57.3827553  74.5840311
  20.1926470  69.7344065  44.9054718  19.5876861  69.4945526  45.6074142
  19.8135614  69.3431139  44.1184425  21.6372824  76.4001322  27.8423595
  22.2389650  77.1208906  27.6560330  21.1738181  76.2556791  27.0173955
  16.6445327  80.6692505  44.4784689  15.7141030  80.5214500  44.3090963
  16.9073951  79.9328899  45.0306416   9.9310935  45.7827091  27.9575109
  10.6139636  45.2289915  27.5789380   9.4270086  45.1922750  28.5174346
 114.0854263  93.8864326  47.1116257 113.6735725  94.0857220  47.9523945
 113.4836960  93.2732487  46.6895342  78.7336969   4.6596786  57.2464514
  78.9527607   5.3400397  56.6097784  79.3005180   3.9238244  57.0152235
 100.0435829  25.7399607  91.2459946 100.4800606  25.0468040  91.7412186
  99.9305058  26.4505363  91.8772793  48.1026030   6.9725633  19.4824064
  49.0240002   6.7767984  19.3122971  47.8387833   6.3298249  20.1408267
  57.2204018   3.6973524  47.5283480  56.9716740   3.3181113  48.3712864
  57.2432899   2.9522544  46.9279003  21.8856239  85.0867748  28.4428334
  22.2583771  85.5072212  27.6679087  22.4370527  85.3854561  29.1659856
  14.0252852  56.5418291  87.8161430  14.6163785  55.9129953  87.4021244
  13.3988190  56.0009575  88.2969952  55.6992579  15.2086079   3.9382702
  54.8905945  15.5167270   4.3473703  55.4075432  14.5991373   3.2602736
  28.8103032  27.9406691  18.4263563  29.0697503  28.8523293  18.2929552
  28.4171581  27.9287696  19.2990112  87.1332645  76.5154552  44.8333120
  86.7537689  76.1680174  44.0261555  87.7777958  75.8587360  45.0969982
 104.9510002  86.6615582  38.9919519 104.6716118  86.2713051  38.1637764
 105.7051182  87.2031689  38.7591529  77.1224451   7.0544463  38.1393838
  76.9437075   7.3886013  37.2603917  77.8439617   7.5959831  38.4593606
 110.2891445  94.3092537  34.3001080 110.1229954  94.8657322  35.0610018
 111.2240219  94.1096020  34.3489671   9.0223998  87.7001953  67.2122192
   8.9397925  87.0796490  66.4881086   9.9529970  87.9234791  67.2313166
  94.9307156  86.5293026  61.6065502  94.2021942  86.7337608  61.0203028
  95.1588917  85.6233597  61.3981247  17.5187814  71.7086601  49.2338467
  17.0249188  72.3695469  48.7484932  17.2036946  71.7875576  50.1342487
  88.4047413  82.3420811  58.2927656  89.0307713  83.0581665  58.4002113
  88.0559635  82.1949196  59.1719294 104.6258354  75.5783796  28.3181190
 105.0071239  75.4729033  29.1897416 105.3726387  75.5239964  27.7218246
  43.3061647  87.5935459  27.6355076  43.5497952  86.8470001  27.0882106
  42.3585129  87.5124073  27.7432346  48.1857014 104.0703869  14.5704651
  47.5796413 104.5075703  13.9723027  47.7655458 104.1367722  15.4279590
  45.0705099  93.8152981  26.3476300  45.8084059  93.3025169  26.6774869
  44.8731565  93.4293938  25.4941869   7.2041148  59.4221592  32.8106284
   7.9190195  59.6188736  32.2052789   6.7832571  58.6463356  32.4402165
  25.1308084  58.9497375  30.1639676  24.4563842  58.3176327  29.9153209
  25.2506828  58.8147640  31.1039901  97.1041393  67.9689407  23.9012384
  97.5516987  67.6858950  23.1038594  96.9291592  67.1578407  24.3784547
   0.7551029  69.0496731  61.6043520   0.5340312  68.3493757  60.9903908
   0.0877807  68.9884758  62.2878504 107.9153347  92.8891659  34.3775010
 108.7898350  93.2446766  34.5358872 107.4584770  93.5811329  33.8992858
  12.9627931   0.4562851  43.7321854  12.5067782   1.0508047  44.3278599
  13.6936021   0.9722946  43.3917665  17.7029920  88.5037041  12.5394404
  18.3741021  87.8388500  12.6937366  17.6819932  89.0150547  13.3483326
  24.0705132  94.0735340  29.2284131  23.5144925  93.4382725  28.7772751
  24.5832300  94.4812965  28.5304999 107.5279236  50.5017614  68.6669827
 107.4518299  51.4316368  68.8809299 106.6949558  50.2831984  68.2490921
 112.6185703 106.3035107  52.2628880 112.6948357 107.2555542  52.1994352
 111.8340874 106.0918236  51.7569256  95.3275013  98.6746788  44.2647457
  95.1984978  98.8968658  45.1868248  95.9430790  97.9418182  44.2788219
  25.4440022  33.4583020  35.5966568  25.6662822  34.3489289  35.8679676
  24.9799585  33.0879760  36.3474917   6.7049724  86.9605541  45.6361771
   6.8656939  87.5052071  44.8656225   7.5671798  86.8535233  46.0378885
  43.8848877 108.1306458  35.5469346  43.9630365 107.6196575  36.3525462
  42.9858494 108.4590435  35.5578637  18.9109612  68.3457518  43.0078125
  18.8962770  67.9015493  42.1600533  18.2143652  68.9994955  42.9477692
  14.3014598  65.5075645  24.5994091  14.8950243  65.3510141  25.3338528
  13.9092934  64.6526051  24.4219589 115.1569271  25.5994844  38.2028651
 114.2862034  25.2020788  38.2148790 115.7236958  24.9233460  37.8316021
  59.3353367   5.6229544  87.1986294  59.7142649   4.8565289  86.7682266
  59.8883104   5.7639223  87.9671192  97.0687866  25.0163484  91.0945511
  97.9642773  24.7078156  91.2328815  96.8904114  24.8285556  90.1730633
  23.9508772  64.7408342  43.9837837  23.4621239  65.5632067  44.0163183
  23.3700514  64.1350698  43.5234356  11.3499546  59.0952206  49.0326118
  11.2713432  58.8677740  48.1061554  12.1483827  59.6207428  49.0833092
  19.1468859  71.4924097  26.0098338  18.4279895  70.8611679  26.0407090
  19.4280279  71.4906597  25.0948524   9.6364987 102.7305794  14.9761283
  10.0001264 101.8952084  15.2696681  10.0019360 102.8563786  14.1004217
 106.3692760  86.2718678  62.0779896 106.0020065  86.9074440  62.6923084
 106.9231796  85.7086945  62.6186037  30.1057911  84.2417526  48.4477186
  31.0478234  84.4089508  48.4185696  29.7064877  85.1094532  48.3853149
  16.3557351  77.7112579  25.7270575  16.6729450  77.5427580  26.6143084
  15.7298779  77.0068598  25.5586457 112.9078388  58.3130980  12.9137194
 112.3888493  58.9965534  13.3377147 113.6937618  58.7649965  12.6065612
   6.5911412  46.2139320  51.9522905   7.2756088  45.8409929  52.5078583
   6.7250085  45.8024502  51.0984850  46.3779879  91.0914135  29.3459892
  45.6738472  90.8518314  28.7434793  46.9247007  90.3075123  29.3992758
  19.8467326  76.0691118  89.8452473  20.7172632  76.4333677  90.0056458
  19.3409765  76.3061094  90.6225967  25.2152276   0.4287212  31.5283823
  24.9573183   0.5354650  32.4439812  25.3055406  -0.5172848  31.4137149
  25.2101851  19.9287570  69.4480276  26.1061239  20.2210331  69.6156549
  25.2337956  19.5839131  68.5554171  13.6558521  81.2111664  57.2295904
  12.9215455  81.3200188  57.8338909  14.3697870  80.8837700  57.7767134
  18.2801306  72.5007915  69.9674368  17.8471243  71.8178129  70.4795694
  17.5681770  72.9365873  69.4990015  20.4670858  61.6325140  54.0916252
  20.8975101  61.3959312  54.9132061  20.2584624  62.5615740  54.1894102
  28.9053202  20.0855660  25.5569935  28.5478997  20.5852056  24.8229361
  28.3294606  19.3246269  25.6317687  37.1955705  15.2915812  64.9564934
  37.2859502  15.8778262  65.7077456  36.9454551  14.4501066  65.3380632
  45.1867247  79.9951124  61.3008022  44.5673227  80.4418659  61.8778419
  44.6479702  79.3839216  60.7983875 108.2893753  54.0091276  56.2134886
 107.4424458  54.2502356  56.5887213 108.0762386  53.6499643  55.3522110
  99.0976429  90.9839249  86.5512371  99.7192097  90.4346275  87.0288849
  99.3561459  90.8960533  85.6338024  16.3629377  62.9026031  79.1543674
  17.1705949  62.4917603  79.4628000  16.1022174  63.4842110  79.8685026
  10.1124632  47.8879499  30.0762033  10.2871275  47.6197863  29.1740894
   9.6866137  47.1284103  30.4736733  96.5793800  60.6210518  24.7802687
  96.5859222  61.4965916  25.1670766  97.1571636  60.1060677  25.3434587
 102.8421211  74.0373135  42.8088379 102.7783298  74.2996836  43.7271643
 103.7476158  73.7446165  42.7057076  12.6335335  60.6864834  60.2088404
  13.5842061  60.7958460  60.1866388  12.4747860  59.8729420  59.7301054
  41.0057783  89.8151779  58.9570189  41.2899637  89.2697239  58.2235622
  40.3199387  90.3725624  58.5893536  60.5718660   9.1511989  46.2774277
  59.6882010   8.8788098  46.0300970  60.8898163   9.6466959  45.5226946
  44.9313831  52.6647329  79.0316534  45.3182268  53.0826569  78.2622862
  44.0732908  53.0788946  79.1231632  21.2814212  55.0189066  24.0771294
  20.3968430  54.9481344  24.4359374  21.1708140  54.8755360  23.1372142
  14.0815067  80.2374935  35.7832146  14.5298934  79.3993902  35.8961821
  13.4721136  80.0875950  35.0604415  10.2314663  66.6243935  20.4652524
  10.2457786  67.0059776  19.5875192   9.9187976  67.3319864  21.0289717
  38.4957314  82.4132347  19.8473752  38.4153914  82.3189068  18.8982284
  38.8288164  81.5666008  20.1448655  48.6825466  81.8717003  21.0574436
  48.1424427  82.1728611  20.3268075  48.3303881  81.0088634  21.2758970
  13.0453074  54.7352791   4.4940227  12.5729060  55.3603745   5.0438613
  13.8901711  55.1533270   4.3276712  21.8750191  82.4682331  34.5614386
  22.1154022  83.3947086  34.5522380  21.2278533  82.3817348  33.8614893
 101.5481663  64.2803383  85.0248528 102.3944473  64.7271156  85.0458050
 100.9042072  64.9827194  85.1154518   7.9800999  91.7524147  60.9606457
   7.4365026  92.4443913  61.3373566   7.4055314  90.9875488  60.9279203
   5.4644841  80.6251526  14.1206849   4.7079927  80.7431412  13.5461998
   6.2104648  80.9189320  13.5977697   3.8542491  77.7664900  86.7170429
   4.4438696  77.0414162  86.9240379   4.3313655  78.5492802  86.9924259
  16.9884968  83.6787891  37.0996976  17.2290659  84.4237518  36.5488958
  16.7930734  82.9759407  36.4799738  35.5452013  94.4370461  73.1470680
  35.4214048  93.5826206  73.5604239  34.6808815  94.8469734  73.1809187
  25.6941962  86.3580799  80.0406456  25.3875756  85.4567814  79.9413061
  25.2325654  86.6843605  80.8130836  23.2534647  59.5404196  62.5268984
  22.3017788  59.6410084  62.5067282  23.4420681  59.2226744  63.4099054
  19.7543025  73.6165142  81.5763283  18.8560998  73.8565397  81.3486195
  20.2101445  74.4532919  81.6670990  27.8587055  81.2399578  59.6913099
  28.4138489  81.9227219  59.3146372  26.9649196  81.5466976  59.5386982
  33.5174608  89.9059582  50.0711441  32.9985905  90.6379795  50.4045296
  33.4950495  89.2567158  50.7741499  97.7206135  49.2713499  37.2465372
  98.1684685  48.4564638  37.4737287  97.4051094  49.1304207  36.3538885
   7.8196770  11.8574035  15.1249993   8.3364409  11.3324487  14.5137632
   7.6730126  11.2786269  15.8731568   5.8534229  59.1429996  57.0650339
   5.9300470  58.4952402  56.3644838   5.0837594  58.8674116  57.5629282
  62.0103168   7.6013124  94.6467686  62.5388622   8.3379823  94.3398666
  61.1476040   7.9797328  94.8163605 112.2070408  70.2610636  74.7723627
 112.5481319  69.7892475  75.5321503 111.2582684  70.1457787  74.8249674
   6.3887423  56.0014868  43.3821249   6.1968112  56.8335009  42.9495239
   6.1746901  56.1550331  44.3023634   9.3200737  66.5255737  68.3117867
   8.4616077  66.9134188  68.4816265   9.4153291  66.5620852  67.3600388
  16.6749859  54.5362139  20.1116800  16.0318875  54.3025208  20.7810426
  16.2007248  54.4528580  19.2844200  51.5832853  99.9228859  46.6068602
  51.2441587  99.2690563  47.2181988  51.9089890 100.6278515  47.1664858
 114.7063065  65.2848721   7.0675898 114.5260239  65.8130121   6.2899053
 115.4026222  64.6872616   6.7951137  30.7102013  87.8152657  30.3254795
  31.4591479  87.2349167  30.1894498  30.1286435  87.3238277  30.9055781
  23.6339140  69.4315624  59.9218178  23.2675123  68.6076355  59.6006823
  24.5682502  69.3719721  59.7225714 109.1472912 103.2777500  64.3906546
 109.3395138 103.7965393  65.1717710 108.7773323 102.4625874  64.7295952
 112.2237778  68.9543152  51.2566423 112.2514343  68.6662149  52.1690369
 112.8310204  68.3701515  50.8025026  93.9298248  99.0841961  58.5320854
  93.5274982  98.5487270  59.2159224  94.7402000  99.4068909  58.9262819
  21.1658025  83.4899521  75.3708029  21.5031886  84.3852043  75.3402805
  21.8916440  82.9496765  75.0585747   8.3887911  70.1768684  30.8442497
   8.7181228  69.5559502  30.1944590   9.0615153  70.8563519  30.8887362
 109.0997124  74.8827457  30.1496577 109.9912834  75.0817966  30.4355192
 109.1548920  74.8556471  29.1944337  17.5054562  37.5781441  18.6303365
  17.6372814  37.7640390  19.5600116  16.9866025  36.7738581  18.6181271
  34.7856379  70.2715826  24.0838909  34.8710299  69.3610430  24.3664861
  35.3577352  70.7605839  24.6753407  25.9662342  72.7648211  73.3655787
  26.4484811  73.4637737  73.8073254  25.6726551  73.1586123  72.5440121
  27.8213811  91.1871433  29.2799664  28.4169745  91.8270111  29.6699238
  27.8195381  91.3993835  28.3465958  19.3144476  50.3184414  24.5978451
  19.1313803  49.4723463  25.0063062  20.0600314  50.1499462  24.0216994
 113.4224129  72.5780296  33.2788801 113.6296272  71.6474152  33.3640099
 114.1852283  73.0275106  33.6426258 102.6493359  78.5527706  82.9247475
 103.0567265  79.3012476  82.4888039 103.3106041  78.2486010  83.5463810
   1.8520427  98.2807446   8.5456580   2.5621235  97.7103233   8.2513112
   1.1903415  98.2141972   7.8572142   8.9168984  95.4004860  49.3610764
   9.3590432  95.2362919  50.1940107   9.6279532  95.5475521  48.7373734
   6.6999233 104.6153927  93.9657402   7.3719943 105.0846386  93.4714127
   6.2844628 104.0426922  93.3210468  15.7694781  65.6068563  29.9410081
  16.1023879  65.7598495  30.8253121  16.5432882  65.6642389  29.3805122
  51.7411900  88.6517239   1.0772209  51.0853577  89.3451881   1.0049187
  52.1230173  88.7728691   1.9465697  26.7665076  71.1567116  84.6541405
  26.2412190  70.6500721  85.2735138  27.3317099  70.5088377  84.2333794
   2.4767022  54.3519735  92.8036499   3.4004930  54.2445183  92.5771618
   2.1623757  53.4608841  92.9566002   3.9670756  51.6684437  93.6283493
   3.1044787  51.6639853  93.2134533   3.7884042  51.8531466  94.5504093
   6.7589170  83.6658192  28.2327557   6.6200805  84.1955948  29.0177965
   6.0037786  83.0783272  28.2036376 103.3455753  26.1609650  92.3591805
 104.1850185  26.6119361  92.2686958 102.9508209  26.2127519  91.4887047
 114.9350929 100.5572319  31.2666416 114.6792698 100.7034397  30.3559208
 115.4502773  99.7508240  31.2442017  23.7527466  80.0735950  31.6678357
  23.0174112  80.5131245  32.0948315  24.2182231  79.6374178  32.3814988
  12.8446400  50.3972864  41.2005615  12.2257447  50.1107311  41.8721914
  13.6441195  49.9045467  41.3856888  21.6188383  74.3509054  59.3166733
  21.9038844  73.4371662  59.3247557  22.0656538  74.7478104  60.0643730
  39.5109177  37.1439648  30.2002835  40.1116657  36.4023185  30.1275516
  39.8594236  37.7951002  29.5913482   3.0148154  85.7053375  39.2408156
   2.1209431  85.3630924  39.2502570   3.5232413  85.0609016  39.7331953
  79.9962425 108.1896400  22.4643016  80.2252388 107.3931122  21.9854093
  80.6288910 108.2280922  23.1815910  20.2044249  86.3146114  58.0858088
  19.9771821  87.0933056  58.5939646  19.9058676  86.5123463  57.1981144
 103.8752365  17.1934545   3.6485854 103.4020805  16.7605388   2.9379970
 104.4561863  17.8129077   3.2069904  42.8169727 102.3773289  36.7878985
  43.6286688 102.7093220  36.4042878  42.5301456 101.6914082  36.1850119
   8.9230335  49.3167686  59.9110889   9.2390859  48.5338736  60.3621054
   9.2980939  49.2549324  59.0326023  17.1536231  87.6119328  21.4941597
  17.8558600  86.9923306  21.6921139  17.0372379  87.5472069  20.5462694
  29.0981817  88.5107899  23.9089274  28.4577990  88.3554745  23.2146525
  28.8781357  89.3784523  24.2480016  69.8928833   4.0910280  59.6692324
  69.0208673   4.4832838  59.6249580  69.9440098   3.5326564  58.8934517
  40.0614834  91.6803169  29.3630171  40.2675104  90.9687996  29.9692535
  39.1063690  91.7409801  29.3806362  49.8984671   3.4326142  21.8189454
  50.0437069   2.5340390  21.5228033  49.0530729   3.6755347  21.4414144
 109.1339302 107.8733921  83.1708908 108.7710667 107.3584175  83.8915634
 108.4101582 107.9604435  82.5505638  18.7163150  63.7110710  42.7373075
  18.0333233  63.0471706  42.6424837  18.4087598  64.2709780  43.4501505
  18.0047977  98.5513401  41.4907789  18.3690965  97.9450703  40.8458424
  18.1758857  98.1341267  42.3351049  51.6355610  23.3613467  32.6094341
  50.9468460  22.8413010  33.0235028  51.8743229  22.8634524  31.8275619
  68.0095625   7.2348672  23.5198879  68.3640718   6.3592458  23.6742902
  67.1608257   7.0799613  23.1053019 104.9485207  53.6675739  79.8841810
 104.1646481  53.2643223  79.5111418 105.2279854  53.0596352  80.5686760
  18.6519814  91.2073040  35.5910873  19.2945838  90.8376598  36.1966085
  19.1770852  91.6654491  34.9348855  23.5405898  84.9664974  68.7471247
  24.3648100  84.4911575  68.6425495  23.6862040  85.5349159  69.5033884
  17.5692296 107.0416451  53.4931421  16.7410433 106.9370651  53.9615488
  18.2411277 106.8906689  54.1579676  45.9947491 103.4240246  58.0506563
  45.2980661 103.9321804  57.6351690  46.5446663 103.1322765  57.3235321
  33.6981225 100.2864838  52.1366978  32.7701259 100.4692364  51.9895506
  33.7053657  99.4668961  52.6311207 115.6616879  96.9749832  52.3253155
 116.2036419  97.6636791  51.9403267 114.8634911  97.4249744  52.6021433
 104.4053078  74.6953964  51.2948704 103.9541435  75.3741789  51.7968035
 105.1432610  74.4391060  51.8480206  52.0944357  77.3785162  21.3853765
  51.3454580  77.8906012  21.6904068  51.9452000  77.2721672  20.4458833
  68.9716196  14.3227029  55.2633572  69.1926575  15.2353525  55.4489517
  69.2353153  13.8474083  56.0512590  13.2918298  99.1088581  59.5297813
  12.9704022  99.4916916  58.7134743  14.2446923  99.1166687  59.4390965
  63.5417557   9.9763483  48.1546926  64.0201807   9.3343675  47.6300955
  63.4632349   9.5697534  49.0176773  23.7645078   9.5366567  46.8715191
  24.6534634   9.5224673  47.2261858  23.2614231   8.9776796  47.4637032
  36.5796375  97.9648972  63.0176544  36.4520264  98.7774658  63.5072231
  37.3868084  98.1073856  62.5232792  95.2726841  66.0621786  34.2640734
  95.8731365  66.7954493  34.1299224  95.4320145  65.7840538  35.1660109
  11.4336109  99.8836899  44.4135189  11.4299941  99.9522877  45.3682518
  11.9716215  99.1133785  44.2307711  45.1056814  91.5669346  35.4157019
  44.2625046  91.1808681  35.1785517  45.1572800  92.3681831  34.8945808
  16.9940579  82.2824955  32.5961065  16.0516059  82.4471951  32.6259398
  17.2270858  82.0606518  33.4976125   9.0815014  92.2402096  43.8213587
   9.3857241  91.3377571  43.7251711   9.8087716  92.7735901  43.5007143
  62.8641653   0.9479220  29.7495008  62.4113035   0.2979879  30.2868414
  62.7804089   1.7651697  30.2407479  47.6631117   4.6885717  73.9494705
  46.8972063   4.9999318  74.4318295  48.4046221   4.8943955  74.5187092
  91.8986511  96.0015202  29.2860794  92.2573662  96.7508698  29.7615051
  90.9515953  96.1397266  29.3005824  55.2520752   5.6759322  55.8591747
  55.5110455   6.3163173  56.5218019  55.4664516   4.8282367  56.2486458
  12.3233962  70.2971935  29.9269319  12.1826673  69.3956804  30.2162433
  11.4873981  70.5579948  29.5405102  22.0112514  93.6020851  59.6582413
  22.5205517  94.3487740  59.3431282  21.2405825  93.5812855  59.0909052
  43.5802412   4.7756812  21.5235925  44.0775251   4.4599903  22.2780967
  42.8040695   4.2161316  21.4971805  15.7340240  50.8770704  29.8283315
  15.6861174  50.9756899  30.7792306  15.8198917  51.7716408  29.4987822
   6.3832504  40.9322548  71.8465090   6.5171343  41.7934418  71.4507055
   5.7633054  41.0897064  72.5586271  20.5074024  78.8041687  33.9688158
  20.9379005  78.4665966  33.1833553  21.1885262  79.3033934  34.4194555
 109.8675537  97.9745674  52.5941515 109.1479874  97.3433399  52.5901222
 110.1127338  98.0523872  53.5161400  29.4545054  96.5575600  56.3554573
  29.5153284  96.9895840  57.2074461  29.5245481  97.2700310  55.7200813
  41.2228060  88.7067318  18.0935478  40.3711367  88.2723904  18.0462730
  41.7267895  88.1789207  18.7129414  39.0535378  83.7026882  62.9623938
  38.1273484  83.5984612  62.7443552  39.3152094  84.5085907  62.5171089
  63.3695698   1.7719497  12.4623072  63.8352680   1.3674447  11.7303705
  63.4564257   1.1428338  13.1784785  59.5177174   1.7526279  15.3271782
  58.7886858   2.3662005  15.2362204  59.5294476   1.5309455  16.2582803
  24.9564934   3.7569210  62.2283983  24.4232440   3.1718159  61.6903162
  25.7196546   3.9530149  61.6849232  31.5636063  79.3062019  69.5828629
  32.4700260  79.0028715  69.5316172  31.5551329  80.1214314  69.0812922
  24.8601174  81.1024380  37.2219920  25.4114127  80.9365845  36.4572740
  25.0758433  80.3958035  37.8305674  20.9332561  89.6552658  57.6938057
  20.8375263  90.5497265  57.3666716  21.8070579  89.3881607  57.4085760
   1.3741621 104.0347958  57.5035191   2.0940131 103.9551449  58.1293821
   1.7513584 103.7586880  56.6682243  39.1086841  87.8166676  54.0381384
  39.5154071  87.1875858  53.4422636  39.2186427  87.4295425  54.9066305
  26.9545627 104.2974091  22.5753045  26.9265413 105.0646114  23.1470132
  27.8858161 104.1645145  22.3982835   4.9295306  84.5101643  85.4549599
   5.2391422  83.7702847  85.9774017   4.8868793  85.2391624  86.0738182
  24.7983479   1.1138852  18.4489930  25.4267430   0.4622386  18.1380105
  24.9401426   1.8725988  17.8828835  67.0621014   0.8038451  64.3710566
  67.1667051   1.2177634  63.5143375  67.5999451   1.3330682  64.9600220
   9.5731908  97.9794502  25.5761266   9.1971552  97.6981449  26.4102125
   9.4584006  97.2269821  24.9957347  15.6711662  60.9869576  27.0198393
  16.5237951  61.3746214  27.2172618  15.0831246  61.7364454  26.9265079
  15.4691577  61.5511465  60.5536413  15.7872248  60.6520367  60.4719639
  16.1355698  61.9941664  61.0788679  61.4832783  25.3003025  76.3191843
  61.9004154  24.5638204  76.7662001  62.0461416  26.0493207  76.5151215
  61.9865274  11.7176199   5.0527817  62.1895266  12.3995185   5.6931245
  61.0901070  11.9079149   4.7762880  12.1395779 105.4363918  31.4889956
  11.6918111 106.2366772  31.2146258  11.4717388 104.7537994  31.4234877
  13.7432981  60.8268690  32.6360774  13.1459010  60.1972914  32.2323704
  13.6952317  61.5985107  32.0717287  47.2629929  30.8823276  37.1819520
  48.1630421  31.1523747  36.9997096  47.1709347  30.0398779  36.7369437
   8.4835219  76.0992193  17.5338602   7.5578600  76.2993431  17.6729047
   8.5050744  75.6345606  16.6972864  76.0078526  22.2917414  80.9363174
  75.4401541  22.3797131  81.7019558  76.0088682  23.1619668  80.5376434
  25.2313375  93.6304951  41.6417265  25.2594042  93.0244637  42.3821163
  25.9630227  94.2285824  41.7938995   0.8425336  84.1895962  77.2106552
   0.9014150  83.6665249  78.0101347   0.0786079  84.7500515  77.3468399
  51.6802120  16.1879671  58.2444334  50.9056759  16.4501405  57.7468491
  51.6358948  16.7068541  59.0475655  32.8798056 107.3156452  27.5264263
  33.6786413 106.8178844  27.3522830  32.3700547 107.2403717  26.7197537
  48.9438534  86.2565994  19.7817743  48.0689669  85.8915043  19.9140978
  49.4898033  85.4994678  19.5698261  14.6424425  50.0864315  94.7641087
  13.8038707  50.2726746  95.1864147  14.4320714  50.0203180  93.8326550
   5.1859885  74.8492289  30.4953694   4.3496585  74.4411612  30.7195640
   5.3376585  75.4846048  31.1950326  43.7833214  62.2071266  63.4184551
  43.2730389  62.7295017  62.7996111  44.1532898  62.8484106  64.0251732
  29.6629429 106.1017227  49.6075869  30.2817869 106.5858173  49.0608597
  29.9250174 105.1859951  49.5127439  66.3097620   3.8009015  41.2557364
  66.9525051   4.4051644  41.6271925  65.9840727   4.2481086  40.4746103
  32.1256924  92.6687813  40.1796722  32.3660851  93.5736656  40.3787374
  32.8993011  92.1576214  40.4173231  59.7483492   2.4941275   7.6595849
  58.9712381   3.0511251   7.7052414  59.6064043   1.9478609   6.8864894
  19.0218127 100.2099323  72.8466558  19.0748048 101.1555862  72.9850531
  19.8709345  99.9746513  72.4726677  28.4651780  76.1659813  14.1116464
  28.5421157  76.3304090  15.0514746  29.3254089  75.8334064  13.8554728
  91.5645027  85.1423550  53.2721996  91.1592102  84.6474075  53.9842367
  90.8264828  85.5043602  52.7817822  95.8807659  14.2639482  23.8178968
  96.8004608  13.9986193  23.8207459  95.6971073  14.4815803  22.9040408
  33.6244893   4.0057158  20.4898405  33.7013388   4.6373850  21.2049079
  33.2078552   4.4958538  19.7810292  79.1531515  16.9277275  78.0421066
  80.0441265  17.0063949  77.7012253  78.5928154  17.1807587  77.3084641
  48.1837893  67.4390745   2.3460667  47.3360157  67.2972250   2.7672434
  47.9900074  68.0130863   1.6049945  22.0723248  25.9929872  27.3127270
  21.2006354  25.6516266  27.1130753  22.2308707  26.6539311  26.6387510
  51.2779999  89.2050266  29.3411946  52.1898985  89.4446564  29.5062637
  51.2855864  88.2488060  29.2985725  89.8774338 101.9790173   5.4523391
  90.5230427 101.5321541   5.9998268  89.3561172 102.4937057   6.0684192
  93.3237934  84.6929359  29.0191031  93.1069088  83.7932777  28.7745380
  92.4796295  85.1431942  29.0488648  30.6433439  93.5505390  19.8739409
  31.4627910  93.4782505  19.3845403  30.0965142  94.1281796  19.3414664
  42.7192307  87.5435257  57.3753262  43.0414867  86.8529510  57.9545307
  41.9170570  87.1837044  56.9968033  52.8150034  94.3903542  29.2451954
  53.6038208  94.4109917  29.7870255  53.0571508  94.8672771  28.4513807
  89.2879677  78.9703894  31.3735247  89.7985363  78.8654423  30.5706978
  89.6681404  79.7381020  31.8005133  40.2639771  91.2157154  26.5045619
  40.6439066  90.5552006  25.9252453  41.0144424  91.7226410  26.8144965
  73.2025576   8.6444873  26.4230251  73.4789324   9.4695377  26.8219495
  74.0153408   8.2427967  26.1160040 113.5780334  83.5256386  40.8458424
 114.4546795  83.1414700  40.8576012 112.9868698  82.7752781  40.9069109
  34.5150614   5.9013480  68.0240250  34.0618157   6.6420352  68.4267473
  35.2991438   6.2851107  67.6313782  35.4723835  10.5607414  37.7565265
  36.3147926  10.4028237  38.1827188  34.9230695  10.9374726  38.4439564
  42.3432493  98.0314732  43.0761385  43.2381153  98.1258869  43.4025288
  41.8011808  98.0143356  43.8648748  22.0644498  87.2086716  54.6722937
  22.7505064  86.5530014  54.7974157  21.2972498  86.7040253  54.4021606
  37.0734048  97.4308872  48.7015533  36.3415170  96.8302345  48.5608721
  36.8009043  97.9708481  49.4434500  31.0459375  98.3558464  43.4924698
  31.2548018  99.2353630  43.1777382  31.8660545  98.0344963  43.8671350
  68.3176422  98.7069321  60.9284687  68.0614758  99.4464588  60.3773642
  68.0800486  97.9334927  60.4170275  25.6742668 101.4936161  69.1890383
  25.7098866 102.2932339  68.6640930  25.8281016 100.7877827  68.5610485
  97.2867775  55.4429007  55.4997969  97.9844093  56.0594082  55.2774096
  97.3721504  55.3152275  56.4445972  13.1289983 101.6834068  11.0411632
  12.4026203 101.3785362  10.4974139  13.7780547 102.0049858  10.4154336
  58.7019110  23.9551806   8.8754696  59.4699430  23.4994268   9.2199194
  58.1290197  23.2555437   8.5615659  79.5134592   0.8798039  43.2168150
  79.0385580   1.5359798  43.7268496  79.6552277   1.2944761  42.3658276
  21.0013604  81.8705368  55.5151892  21.8419099  81.4827728  55.2715731
  20.6665039  81.3008404  56.2076902  37.3387599  93.4942532  48.6933041
  37.9075742  92.9581356  48.1407976  36.8650627  92.8621483  49.2339325
  43.9547968  97.2915268  32.9861164  43.0220222  97.3734093  32.7874708
  43.9842653  96.7643929  33.7845516  10.5053186  74.3438482  51.7705870
   9.9454945  74.0518713  51.0511589  10.1854217  75.2208233  51.9822645
   3.0629480  22.1832538  93.3159542   3.9300451  21.9179010  93.6224937
   2.4762939  21.9677210  94.0409565  56.4673328   9.3812907  11.0152853
  55.9733629   9.9778199  11.5777647  56.4774752   9.8115498  10.1602972
  12.3883927  67.5515556  50.5895901  13.2948995  67.5415373  50.8967924
  12.1280122  68.4711885  50.6416368  39.0667653  94.8520470  55.6158829
  38.1818748  94.6875858  55.2900696  39.0642571  94.4978714  56.5051413
  25.0854492  83.6992550  29.3713760  25.7512546  83.0126286  29.3329811
  24.5626497  83.4830284  30.1434898 111.5559769  81.7501831  50.9700537
 111.2400913  81.0895538  51.5865088 111.0845280  81.5647888  50.1578999
  56.9849777   0.1620177  19.4762909  57.5695324  -0.0656232  20.1992774
  56.2033272   0.5141402  19.9020433  38.8089871  95.3371239  77.4404860
  37.9476976  95.3096104  77.8572035  38.6240387  95.2706146  76.5036821
  46.3783789   2.8272530  38.0427003  45.5972290   2.5056255  37.5926042
  46.4064217   3.7614182  37.8358650  10.9967577  93.8434029  67.5693369
  11.2454617  94.2496395  66.7390680  11.7661452  93.3358955  67.8276157
   8.8678312  91.6590500  80.9137821   9.1856533  91.0754967  80.2248001
   8.0125284  91.3026237  81.1538792  23.2860279  87.6059723  26.9113326
  23.3857608  88.3917141  26.3738465  23.7232065  87.8221130  27.7349758
  10.3390503  62.1044540  60.5140018  10.0482738  62.0609570  59.6030712
  11.1105835  61.5388393  60.5464077  15.8728242  92.1303272  32.4369693
  16.2337363  91.4627171  33.0202889  16.0817814  91.8176174  31.5567541
  42.7045584  87.8699589  23.6647439  42.5058508  87.3775005  22.8683543
  43.2824135  87.2935772  24.1648483  27.1599364  84.2188072  48.8464689
  26.7667079  84.4966698  49.6737480  28.1032276  84.2790318  48.9974880
  37.5099063 102.7264786  10.5746293  38.3205962 102.7244282  11.0835600
  37.5539756 101.9265747  10.0507438  42.3307037  70.4945517  67.5979233
  43.0188036  71.1025858  67.3276567  42.7136612  70.0088263  68.3284378
   7.7255887  63.8373423  22.0361328   7.1050823  63.1089640  22.0103431
   8.2793975  63.7075663  21.2662721  41.0280704 103.4913826  50.8307552
  41.3431931 103.0016518  51.5904236  41.7247629 104.1212368  50.6460094
  57.6763868  25.5835772  32.3421049  56.8552065  25.1115394  32.4802065
  57.4357080  26.5075922  32.4092078 107.8881931  83.0511093  60.8039904
 108.3588409  83.0416775  59.9705458 107.8213596  83.9786339  61.0308361
   8.3534229  83.4543991  61.0305929   9.1602552  83.9447880  60.8732080
   8.5360271  82.9384899  61.8159151  23.8789964  95.1025867  57.5542355
  24.5514393  95.1772308  58.2313490  24.3666577  94.9165535  56.7518616
 107.3391628  83.2215595  56.1531019 106.8475533  84.0411377  56.2064171
 107.1097374  82.8598976  55.2970695  15.1634991 104.8507500  14.4061208
  14.3866813 105.2523708  14.7953331  15.3061557 105.3406715  13.5962677
  31.1987519  93.0583000  44.8206758  31.0985231  92.1277714  45.0214529
  30.6898522  93.1867790  44.0202093  31.3119936  97.7795696  48.5685539
  30.3756475  97.8348732  48.7594128  31.5908647  96.9582748  48.9734316
  56.5516281   8.8548243  37.2178531  56.0284519   9.6520716  37.1346927
  55.9200191   8.1424445  37.1187806  75.7434940  22.7097178  71.5720940
  75.7002592  22.2291112  70.7454252  75.1560974  23.4550381  71.4468336
   4.5846453  98.1898689  37.6843214   4.0120825  98.3661842  38.4308577
   4.0214115  98.3025932  36.9186234   4.0988156  82.2632694  28.1152916
   3.2819816  82.7072334  28.3431363   3.8200998  81.4436150  27.7069831
 114.8140049 105.6489372   3.2671320 114.0704155 106.2292004   3.4302551
 115.1114082 105.8821869   2.3877133  18.1498170  83.7495518  30.6608319
  17.7617466  83.3213425  31.4238977  17.4019647  84.0984726  30.1758552
 109.6510887  86.6699600  23.1989503 110.0903130  87.3777771  23.6704469
 109.6944141  85.9221840  23.7949300 108.6262894  89.7495747  15.4825687
 107.8107929  89.8268318  14.9873722 108.6467457  88.8366032  15.7694292
 110.8631516  79.9139500  63.1858492 111.5500832  80.5423927  62.9635715
 111.0521317  79.1499043  62.6411009  64.7495031  10.3262794  51.3167810
  65.5604410  10.3684211  51.8235683  64.0711451  10.6185842  51.9255733
  23.3099699  89.5604992  25.0170994  22.6820564  89.3984985  24.3130326
  24.1582203  89.3272114  24.6398997  33.9902830 105.4455853  42.9025555
  33.9348817 105.5493450  41.9526100  34.7566438 105.9603405  43.1554270
  49.2845678   2.6349568   3.8204435  49.7830534   2.5224417   4.6298170
  49.9243259   2.4909872   3.1231526   0.4128812  79.2748165  77.4680090
  -0.4000833  78.9575291  77.8612661   1.0919460  78.7049484  77.8290558
  35.5136776  87.2738647  41.4935732  34.5657349  87.4059296  41.5076256
  35.6598401  86.6639519  40.7704735  50.5123949 101.1444950  41.1909533
  50.9675074 100.3574944  40.8913851  49.7184372 100.8160686  41.6128540
  20.9178567 100.4970646  56.5836525  20.1214433 100.7964230  57.0222235
  20.7276988 100.5925751  55.6504059   0.5183396  83.5883236  23.3978128
   0.7640021  83.0238819  22.6648068  -0.3133743  83.9795589  23.1305718
  12.8508377  97.4228764  35.2104688  13.4122324  97.0910072  34.5098066
  12.8098369  98.3669186  35.0576711  11.2702739  91.2599754  17.5571656
  12.1215630  91.6512203  17.7532828  11.4798617  90.4575729  17.0791912
   2.1713130  97.7064228  20.7788396   2.4758530  96.9028473  21.2004542
   2.9608619  98.0914211  20.3985524  76.8915701   1.6591515  32.9575133
  76.8067598   0.7506354  33.2467151  76.0687923   1.8441670  32.5047064
  44.5078278  77.4237919  65.3227282  45.1002026  77.2598362  66.0565138
  44.6190739  78.3544397  65.1284313 105.5951214  75.5241156  18.9189398
 104.7776699  75.7877159  18.4964275 105.4916763  75.7955122  19.8310113
  37.7317214  93.1489182  65.5277252  36.9779396  93.0673027  66.1120033
  37.6820731  94.0456390  65.1965523  39.0647578 105.7568741  34.4889069
  39.8374486 105.7399559  33.9242029  38.9365911 104.8440456  34.7468758
  26.3484883  56.5219164  11.4474225  26.7691135  57.3811865  11.4784181
  26.0306644  56.4431334  10.5479705  66.4988518  20.4811811  21.5699625
  67.0843315  19.7355592  21.7022252  66.0871077  20.6167316  22.4233818
  21.1487055  93.9978600  51.5240145  21.1587453  94.0966511  52.4760485
  20.2310491  94.1192436  51.2802887  23.7160373 102.2716522  49.6157026
  24.6679401 102.2886372  49.7148275  23.5736918 101.9529629  48.7244081
  44.4805098  16.3841820  22.1122360  44.7580290  17.2248781  22.4761653
  44.1859674  16.5925133  21.2256265  40.7478809   6.4516979  34.1639996
  41.5767479   6.1192584  34.5085216  40.9910965   6.9202590  33.3655453
  32.6842213  90.3025818  35.7037282  32.3089528  90.8867455  36.3626313
  33.2747936  89.7332001  36.1969376   4.9914560  66.3921356  45.4913807
   5.3672677  66.9000721  46.2104034   4.0569979  66.3459301  45.6935835
  27.7684021  94.9316216  42.0158100  27.9411507  95.4482079  42.8029156
  28.5623217  94.4115162  41.8916416  51.8534660  86.8712997  28.1780720
  51.5483284  86.0598660  27.7722311  51.7568588  87.5328064  27.4930120
  62.8340149   0.4160343  43.0553961  62.2313833   0.2769452  42.3248291
  63.6464882   0.7095589  42.6431274   6.5546191  88.4841919  55.5357742
   6.5163589  89.4127178  55.7651281   5.9846777  88.0560112  56.1745691
  72.2436333   8.2192540  81.7804432  72.0499754   7.4054885  82.2457600
  71.6673803   8.2012093  81.0163498 109.9693108  78.6774540  27.3229766
 110.6921768  79.3005943  27.3964047 110.2616501  78.0481148  26.6636586
  26.7186141  94.3046093  15.7870781  27.3461556  94.8452187  15.3073227
  26.6417861  93.5061741  15.2647471   7.7833635  59.4204521  48.4811783
   7.3775274  59.1805744  49.3142366   8.2641375  58.6368704  48.2145596
  18.0954719  85.2894402  42.3217058  17.8531122  84.7512341  43.0752468
  17.3858023  85.1554394  41.6934967  14.0024889  61.5501261  12.5111234
  14.3713117  61.7288017  11.6460943  13.9442050  60.5956745  12.5541592
  30.8246469  93.9677811  68.1640339  30.8263206  93.1163883  67.7265787
  30.7128382  94.6011066  67.4550724  44.6499395  89.8459530  22.8140235
  43.9726257  89.2995644  23.2127070  45.4309034  89.2925262  22.8072834
  17.0632219  50.8842993  32.3036671  17.1270227  49.9404240  32.1578526
  16.9913244  50.9755564  33.2537913  43.0381012  91.6765118  45.7236767
  42.2397232  92.0426464  46.1041641  43.6365128  91.5847301  46.4651060
   9.7140247  93.3915997  16.5340638  10.0260091  93.3982468  15.6291580
   9.8976880  92.5048637  16.8442225  16.0911822  98.5079956  47.4071693
  15.8608115  97.6185608  47.6756144  15.9321094  99.0418816  48.1855631
  15.0086081  98.5610771  80.0642109  14.8863590  98.2056427  79.1838980
  14.4632268  99.3474865  80.0828648  63.6234236   5.6020117  55.3930855
  63.2855940   6.4635134  55.1483011  64.2201805   5.3679246  54.6822309
  49.9891949   2.0177621  38.3562660  50.5006170   1.6299775  39.0664077
  49.5565987   1.2731485  37.9383636   9.2826802  67.8117657  29.4122505
   9.5294517  67.5390625  30.2959728   9.9905950  67.4880028  28.8552356
  77.6296711   8.3445466  20.9499264  77.6116228   8.7178349  20.0687003
  77.1100855   7.5435644  20.8814311  37.1007204 105.4121017  48.6866760
  36.7521477 106.0295963  48.0436897  36.3375711 105.1417446  49.1973066
  23.9535379  82.8067493  40.6795025  23.5806012  82.6595497  39.8103189
  23.3897090  82.3069191  41.2698364  89.8542500  35.5934882  85.7254314
  89.2297745  35.1810861  85.1286125  89.9196434  36.4971662  85.4166889
  17.8536212  81.0179138  29.3578100  18.5827816  80.6227112  28.8799262
  18.1498539  81.9065857  29.5546317  33.1996202 101.2945557  58.9043617
  33.9951158 101.8236828  58.9630651  33.2215667 100.7416344  59.6854067
  84.7120953   7.7502799  47.0419407  84.1835403   8.4650737  46.6870642
  85.4259968   7.6451916  46.4130211  87.4216080  15.0507092  28.5659695
  87.4323368  15.1518154  29.5177555  86.8056202  14.3352795  28.4080386
  14.2900145  58.3490419  45.2601004  13.6162734  58.2896423  45.9374285
  14.1425776  59.2011356  44.8496914  73.0853844   5.9232515  67.3591042
  73.6080027   6.3844413  68.0151558  73.5604048   5.1065856  67.2053385
 108.9895153  97.6498318  15.7237327 108.9163494  98.4280205  15.1711857
 108.5350895  97.8865719  16.5322387  63.9940405   1.2868756  75.3761721
  64.4055796   0.5040715  75.7423449  63.1214333   0.9967082  75.1104784
  37.6506901 100.7980347   8.6984938  38.2257652 101.1956024   8.0446887
  36.7669725 100.9457111   8.3616501  50.9776688  86.2906837  76.0846949
  50.5840683  85.4236984  76.1828756  50.3853989  86.8772793  76.5551805
  18.9255166   3.1011468  31.0226250  18.1767297   2.5565284  31.2654018
  18.5778606   3.9928317  31.0063410  50.1982546   9.7223741  26.6315246
  49.6998215  10.3113925  26.0650826  51.1120939   9.8754537  26.3913250
  71.7550945   9.7412282  49.5531273  70.8674908   9.3850440  49.5921993
  72.2945833   9.0896273  50.0010109  69.8348188  27.0402670  45.5964231
  69.4185829  27.8592205  45.3275442  69.9689245  26.5601873  44.7792482
  49.0673971  10.0936794  29.1746116  49.5357323   9.7354043  28.4206009
  49.2981958  11.0226190  29.1806269   8.7779289 103.9938927  61.8739033
   7.9844958 104.2023659  62.3670912   9.1073716 103.1912994  62.2783184
  14.5408964 105.7105160  63.7224913  14.1287446 105.5659103  62.8707552
  13.8871121 105.4183006  64.3576336  62.2163248   7.0448142  28.2330990
  62.3490334   6.1282438  27.9911947  61.7210579   7.4159533  27.5028944
  66.1129618  12.4074769  34.3802118  66.1922216  12.4262643  33.4264851
  65.9889555  13.3236039  34.6283364  83.3255672  79.8421097  90.4010582
  84.0612793  79.4262695  90.8505344  82.9448414  79.1439581  89.8682690
  46.0042763  91.1006546  31.9505429  46.2949705  91.5902805  32.7199626
  46.5366888  91.4439583  31.2329674  51.5360641  95.8568573  42.4357748
  52.4866343  95.8904362  42.3284388  51.2175035  95.4583454  41.6258717
  70.4643440  30.6042838  17.0450389  71.0021830  29.8824358  16.7196226
  71.0168982  31.3792920  16.9436634  40.2233982  12.4359596  66.4211035
  40.7459879  11.6824138  66.1466837  40.2520037  13.0324578  65.6730366
  54.4083071   8.8397175  50.4361916  54.5739555   8.0419105  49.9339008
  54.5652008   9.5508021  49.8149252 112.3051453 101.5647697  37.5805712
 113.1296158 101.9157696  37.2439885 111.8390846 101.2598419  36.8020916
  32.0674276 105.5021381  74.8570776  31.5363955 105.7085705  75.6262445
  31.6259170 104.7540665  74.4549704  15.1105082  92.3496342  65.0897026
  15.1291072  92.2133923  64.1424322  16.0290372  92.4646950  65.3332138
  14.7156966 102.3684025  62.7178097  14.6065331 102.7466106  63.5903168
  15.6591213 102.4004173  62.5592041  52.4965620  14.7714138  30.2668738
  52.1111107  13.9159822  30.4563355  52.1778250  14.9890387  29.3909311
  79.1882133   9.7626102  24.3466115  78.7558651   9.9306369  25.1839113
  79.0296173  10.5540299  23.8320875  47.3753691  79.5549250  69.1366529
  48.1704187  79.5831251  68.6043692  46.8701935  80.3169441  68.8531733
   0.9040491  96.6363621  45.2563095  -0.0329171  96.6955853  45.0697088
   0.9506213  96.4664364  46.1971521  28.2202458  92.2903824  54.3394423
  27.5467801  91.6253567  54.4823265  27.8261089  92.9002666  53.7158012
 104.1778183   0.6227956  34.2034936 104.1111946   1.0332470  33.3413339
 104.8656273   1.1157087  34.6509194  23.1643105  91.4881516  53.0318069
  22.6763415  91.2559223  53.8218594  23.7247348  92.2157192  53.3016205
  33.1471920  99.9231815  35.4646134  32.8990436 100.7940674  35.7747841
  33.4998989  99.4846630  36.2389088  35.4569674 101.7121506  39.6722388
  36.0237241 102.4785805  39.5850420  35.0892663 101.7851257  40.5529785
  42.3615789  99.9197102  34.6100569  41.9586420  99.4227695  33.8980722
  42.8324509  99.2634106  35.1236510  19.9967599  91.9322014  33.2092333
  19.5310724  91.4056301  32.5595522  20.9213376  91.7350388  33.0591869
  38.3345771  93.4596539  68.4500694  37.5413585  93.3711243  67.9216766
  38.1843472  94.2437744  68.9780998  40.1502419  76.9918776  61.2478638
  40.8549261  77.6306677  61.1401463  40.1446295  76.7972040  62.1850443
  89.6043873  71.6518402  63.4287930  89.2856789  71.2774324  64.2500591
  90.1380253  72.3996258  63.6976385  78.4151506  32.3848820  38.7096477
  79.3371153  32.2717857  38.9407778  77.9367542  32.1121120  39.4925666
  82.1682644  39.7927976  38.6724186  82.9738712  39.7914195  38.1554794
  82.2826004  40.5132627  39.2921686  47.4229479   5.6558484  70.4849434
  46.7815065   5.0106275  70.7823896  46.9473696   6.4865255  70.4904985
  44.0008688  98.9949799  38.9517188  44.5181227  99.5179939  39.5642018
  44.2054319  99.3616581  38.0915284  55.3091145   6.8478423  48.8184452
  55.7226038   6.5762478  47.9989958  56.0402441   6.9938725  49.4187403
  68.3733606  10.5937386  49.6258688  67.4348640  10.7816839  49.6143866
  68.7903070  11.4501464  49.5312595  72.2790718  25.6843710  50.2320862
  71.9418764  24.9362755  50.7249212  73.2291937  25.6303525  50.3349733
  77.7192211  10.8021605  39.0123081  78.2705259  10.0673401  39.2812705
  76.8583250  10.6029522  39.3802810  48.1051493  11.9137776  56.0087061
  47.5949049  11.1403680  55.7684612  48.9221478  11.5615273  56.3617897
  69.9816179   6.2670380  66.8339396  69.3917465   5.7133669  67.3455381
  70.8301258   6.1781585  67.2679520  18.8790786  92.1467018  57.4804115
  18.9397001  91.5630245  56.7241812  17.9682851  92.0749283  57.7659559
 103.8203526  13.8424766  77.8906012 102.9634285  13.9802873  78.2942295
 103.9503574  14.6117103  77.3359728  22.7924204  98.5790443  49.3338633
  23.4801245  98.0424690  49.7280550  22.0028400  98.0418110  49.3984890
  19.9275279  70.9111071   8.1207031  20.5124068  70.4425144   7.5252497
  19.2687082  71.3048601   7.5487345  25.5153799  85.7590580  54.6227217
  25.2259707  85.9762192  53.7365437  25.3134012  84.8284054  54.7193289
  61.1296892   1.3637877  62.4908352  61.7656851   1.1810590  61.7992067
  61.6114187   1.2152657  63.3045340  89.7798538   2.5287393  39.0033555
  90.0006485   1.6581984  38.6722326  90.1119137   3.1299186  38.3366060
   6.6016942  82.0067310  47.7884960   7.3169494  82.2287273  47.1923780
   6.9447529  81.2855148  48.3161163  20.2903271 104.5178318  46.2443256
  21.2238073 104.4724560  46.4511728  20.0780439 105.4496288  46.2983751
  52.0946312  21.9536734  42.1127081  52.8922415  22.4710584  42.0015430
  52.0604324  21.3962460  41.3353157   3.9938876  81.8215561  89.2212105
   4.8621556  82.1899700  89.0580654   4.1125256  81.2583447  89.9860287
  16.0801101 100.0598621  43.7713861  16.7078042  99.8919296  44.4742584
  16.5344346  99.7869968  42.9742861  33.5727191  88.2075310  37.4844122
  33.8244295  88.6715508  38.2828856  33.7717152  87.2894382  37.6680875
  20.7565403  99.5837021  46.0781002  21.6209674  99.7340393  46.4607191
  20.9091735  98.9387417  45.3874874  60.9644890 105.3735542  35.6169796
  61.7893791 105.1627636  35.1795435  60.3091526 105.3431034  34.9199581
  22.6058555  97.3570156  66.7638731  22.7625132  97.3590851  65.8195829
  23.4789562  97.2955990  67.1513700  27.5345325 102.4134541  28.5173368
  28.3969712 102.7479553  28.2712841  26.9255972 103.1024265  28.2513380
  57.5071907  86.7079067   5.0040692  58.1411552  87.2775459   5.4397631
  57.7529955  86.7390537   4.0794924  47.2493601   9.6388018  55.1210976
  46.8766928   9.7293842  54.2440891  47.1639967   8.7069392  55.3225374
  65.2679300   8.0377305  78.0440807  65.9290838   8.2090086  78.7147331
  65.7573318   8.0309868  77.2214842  75.7031584  15.1000655  42.0677519
  76.3684225  14.4119871  42.0534039  74.9610710  14.7256732  41.5930271
  52.6945686  11.9594634  59.9449492  53.0254793  12.1226704  60.8281803
  51.9549036  11.3653934  60.0722742  32.1183109  95.2990818  40.4207087
  31.3558125  95.7678890  40.0815201  32.7586341  95.9858990  40.6064510
  51.6675186  45.9525061  36.5753698  51.7465925  45.1681089  36.0325027
  51.6820574  46.6781521  35.9513044 113.2919312  64.4205046  94.1289806
 112.8949165  63.5554743  94.2305946 112.8375816  64.9691772  94.7683239
  48.5430479  13.3472013  45.9884071  49.4115448  13.1173015  45.6581259
  48.1614780  12.5124788  46.2602043  49.9393797  83.1557655  23.9705467
  50.3918648  82.3745918  23.6523318  49.0201807  83.0071926  23.7486720
  56.3649273 105.8814049  33.9921808  56.4634991 106.7760277  34.3180108
  57.2611570 105.5537224  33.9171147  48.8559103  95.1629257  27.5794888
  48.3833361  94.3763256  27.3071575  48.2476568  95.6182480  28.1616759
  98.5352421   5.4115951  23.4987020  97.6515484   5.3870898  23.1316566
  98.6179352   4.5878801  23.9792085  31.9474554  90.7340145  56.9171953
  31.8334627  90.9460545  55.9907627  32.3968887  91.4955521  57.2836637
  30.8113790  64.5609999   5.7953626  30.8995652  65.4924870   5.9973204
  30.6420612  64.5350885   4.8536125  50.2693033  88.3619118  18.6471438
  49.4943476  88.4863377  18.0992448  50.0917435  87.5571060  19.1339600
  77.9490614  91.1046886  70.1143742  77.3698616  91.6284847  69.5608425
  77.4870253  91.0392857  70.9501219  41.2618780  79.2916679  64.2440081
  41.4215136  79.6489906  65.1175451  41.1310101  78.3545732  64.3887901
  73.8003874  17.5162387  32.8825712  73.0188084  17.8707969  32.4587178
  74.4674540  17.5194633  32.1960998  50.7584381   0.4997642  40.4372168
  50.4222345   0.1833355  41.2757111  51.7023420   0.3481286  40.4850435
  71.7702389  18.2569945  43.8100910  71.1509085  17.8539371  44.4185352
  72.3489714  18.7775147  44.3671894  51.3729239  85.1698589  22.2976732
  50.5345774  85.4606915  21.9387627  51.1395121  84.4937611  22.9337955
  47.0603180  25.8415127  56.1560345  46.3336468  25.2767205  55.8929920
  47.8064775  25.5243874  55.6472063  48.7832117  94.6516705  62.7396393
  48.0433369  95.0137043  63.2272387  48.4235001  93.8856316  62.2923946
  48.3069038 100.4196835  19.8619676  47.4853802 100.3436852  20.3473091
  48.0602360 100.2720451  18.9489543  88.2694912   5.5543578  39.5309830
  87.4471760   5.7820493  39.0971828  88.0167389   4.9295643  40.2106714
  65.7367086  47.1458960  31.0786676  65.5359554  47.4811745  30.2048707
  66.1018324  47.8975201  31.5455532  23.6155987  79.0244627  24.1174531
  23.5563707  78.6981630  23.2195377  24.5495009  79.1848087  24.2529082
  29.7104979  95.3167057  22.8287411  30.5312920  95.6356907  23.2039499
  29.7676873  95.5428123  21.9003892  85.6712627   6.0273355  28.8384938
  85.5155945   5.3769755  28.1536341  85.3606701   5.6087530  29.6413374
  18.8535833  86.0232925  67.6737833  19.2359424  86.8743134  67.8877974
  18.7234783  86.0507393  66.7258644 114.6498966   0.6595996  62.5271702
 115.3816700   0.9112436  61.9637728 114.6920395   1.2714264  63.2621002
  21.2986517 101.8399811  60.1311541  22.1243119 102.1272945  59.7413254
  20.6645966 101.8939495  59.4161034  31.9602466  95.7076836  33.9644289
  32.0454431  95.6112003  33.0159211  32.7649283  95.3277206  34.3170619
  60.9683990  89.0345764  63.3809423  61.8602800  89.1253185  63.7164211
  60.8929777  89.7166157  62.7135897  92.5226593  51.9971466  94.0120411
  92.9037666  52.0274830  94.8895741  92.3425865  51.0692406  93.8610744
  37.8084898 105.1187515  27.9576683  37.6799941 105.7744884  28.6430359
  37.5557947 104.2914009  28.3673763  37.1022511 106.5974712  54.0756416
  36.6383815 105.7819939  54.2655230  36.4870787 107.1053696  53.5466433
  83.7543869   6.9269782   5.8501363  84.2383862   7.1901381   6.6329008
  83.4794998   6.0278130   6.0295087 103.3263302  97.1460533  40.6195259
 104.0931129  97.3657703  40.0903749 103.0154991  97.9881191  40.9520054
  82.8429031  15.7715309  57.1286583  82.7039433  16.3814032  57.8532124
  82.1858501  15.0882339  57.2613716  43.3489227  88.1030178  32.8054333
  42.7014780  87.6265526  32.2857881  44.1196728  88.1534386  32.2400737
  97.8502655  21.4036584  18.8996220  97.1856022  22.0089054  19.2284703
  98.0529022  20.8412313  19.6471798   2.8754398   2.9670480  59.2475891
   3.5805419   3.5719514  59.0170383   3.3248675   2.1963617  59.5944166
  92.1625423 106.9661331  33.8779163  92.6375484 106.1808586  33.6059809
  91.2661552 106.6646862  34.0257311  86.3193226  34.2841578  34.9747014
  85.9359360  34.8367810  34.2936373  85.5663967  33.9311337  35.4487276
 108.3062267  11.0963774  37.2209811 109.2251873  10.9841323  37.4641800
 108.0658817  11.9502842  37.5805759 111.7125320  54.0003443  27.3399115
 111.7784786  54.9101734  27.6298928 112.3724365  53.9200401  26.6512060
  17.2726309  47.5953388  34.6138382  18.0817091  48.0543470  34.8395157
  17.1709049  46.9371557  35.3013539   7.1519297  38.3547497  35.3699136
   6.6606808  37.6414609  35.7774997   6.6258156  38.6044121  34.6102405
  30.1813316  10.6259227  35.3415418  29.8376942  10.5949640  34.4486880
  29.7535586   9.8954016  35.7882857 104.2548275  69.3342304  35.2450180
 103.7960243  70.1733971  35.2059436 103.6454678  68.7488079  35.6946754
  22.3042226  32.2600651  50.2254391  22.9228616  32.9651117  50.0345945
  22.5777173  31.5408134  49.6561289 110.5182552  36.0551810  26.0336089
 111.4259434  36.0311794  26.3365197 110.5284977  36.6629887  25.2942204
  34.3038845  21.9208431  16.7816722  34.5900655  22.8212619  16.9352233
  34.3364763  21.5086508  17.6449609 107.8710747  25.0964594  11.7279148
 107.6459026  25.2928138  10.8185339 108.7962532  25.3306985  11.8015146
  26.7999101 103.8126087  85.5663109  25.8608937 103.8959503  85.4003716
  27.1458817 103.3923149  84.7789764  42.8777218  94.6861839   6.5613580
  42.4298620  94.3186665   7.3233199  43.7976551  94.7297955   6.8222260
   8.6958575  36.2814045  41.5145874   9.4614136  35.9566665  41.0405636
   8.8467556  36.0180068  42.4223804 114.1799641  64.0851450  38.1201029
 113.2931232  63.9262390  37.7968407 114.6701145  63.3020687  37.8695560
  95.9377003  37.3781466  68.2604122  95.5425835  36.5425086  68.5090590
  95.8148289  37.9385805  69.0266037  28.1827378  50.4330301  44.4215107
  27.3881245  50.0226068  44.0803719  28.5680795  49.7697115  44.9940109
   9.9053878  77.8194475   9.1100091  10.7849777  77.4898815   9.2942417
  10.0445008  78.5484362   8.5054833  21.0876441  57.2131824  58.7926006
  21.8858385  57.3191023  58.2750130  21.3993692  57.0454454  59.6819401
 115.0509167  22.5621510  22.4655819 115.5431366  21.8244720  22.1053243
 115.0557804  22.4143291  23.4112859  83.7694836 102.8619099   7.1097749
  84.2673969 102.2030830   6.6257709  84.4234371 103.5077953   7.3770207
  25.7890368  24.6729136  57.9395342  26.1410928  23.8298011  57.6541376
  25.5259109  25.1092553  57.1292257  18.9460862  28.3157563  38.6476207
  19.5224714  28.7914753  38.0495381  19.3901396  28.3604145  39.4944119
  30.9475613  39.5599747  27.0612621  30.4894400  38.7396693  26.8783522
  30.2879739  40.1150656  27.4772549  29.9048829  41.6806316  38.5407043
  30.5640936  42.0502806  37.9533076  30.0539327  40.7358313  38.5037160
  10.1647747  40.5170965  30.4713559  10.8522201  39.9259329  30.1644802
   9.3626076  39.9970508  30.4232907   0.2971656  31.2784958  35.1824427
   0.2546228  32.2206378  35.3461170   0.9610899  30.9589863  35.7934642
  21.4215589  65.1776648  15.2306330  21.3008142  65.7572365  14.4784713
  22.3072767  65.3678322  15.5397832 104.2768097  55.1448822  31.7334032
 103.7139797  55.6381178  31.1366010 105.0841999  55.6569862  31.7793608
  99.0020943  33.5949874  26.4619994  99.8448277  34.0200973  26.6210914
  98.3545017  34.2842436  26.6095877  96.1946201  25.6972480  19.4811094
  96.8985653  25.8743095  18.8571322  96.6064072  25.7920456  20.3399897
 102.6696301  53.8475752  39.5539427 102.2199059  53.6842966  38.7248945
 103.4477901  53.2913351  39.5179081  10.5272102  34.0231323  30.1588559
   9.7396678  33.4840727  30.2324939  11.2426388  33.4368753  30.4052234
  25.2211595  56.6419601   8.9764899  24.9031305  55.7498026   8.8381273
  24.9899268  57.1061373   8.1719398   0.5590457  35.3463054  20.6547308
   0.5026499  34.6870041  19.9630845   1.4889985  35.5688524  20.6982350
  18.5005713  50.5753994  45.5934334  19.4080341  50.3804684  45.3594542
  18.5509157  51.3945246  46.0861063   3.5416046  45.9004498  46.1505747
   4.3121821  46.1821127  45.6575155   3.8862255  45.2986670  46.8103695
  21.6665173  54.0398121  21.5818715  22.4118447  53.4640884  21.4108133
  21.6868758  54.6766281  20.8675313  91.1815071  57.6025581  57.5243330
  91.1257458  58.5050869  57.2103834  90.5360603  57.5539589  58.2295084
   0.9432793  53.9149761  30.0541830   1.5043607  54.6894836  30.0147200
   1.0737588  53.4814692  29.2108107   6.5535152  35.8235693  49.4706154
   5.7632887  35.6850600  48.9485168   6.4013469  35.3237414  50.2726460
  96.1345959  11.2541676  23.3153057  96.7630959  11.5353966  22.6503801
  96.6595936  10.7668507  23.9502287   1.3683541  30.2007723  50.8114624
   1.3544986  29.3427587  50.3873682   0.7876103  30.1042914  51.5662193
 115.8310032  55.0598526  48.1672287 115.7912254  55.9739923  48.4483004
 115.5135727  54.5633316  48.9215040 114.7894382  58.4699488  21.9958639
 115.2398205  58.9225101  22.7090096 113.8627148  58.6639214  22.1365547
 100.6198120  28.6351871  25.0551367 100.2885246  29.5327139  25.0246716
 101.5124989  28.7206101  25.3898716  36.7517614  21.7527294  92.6569653
  36.0767722  21.0886669  92.5168037  37.0221567  22.0092106  91.7753029
   5.6876874  13.1934285  51.8090487   5.7730937  12.4278796  52.3772717
   6.2805748  13.0168819  51.0786057  17.2019756  24.6779299  11.8185389
  16.4774966  24.1908503  12.2111106  16.8913031  24.9041390  10.9418726
 113.3065128  50.9988880  18.4272301 113.5757828  50.4304028  17.7057397
 112.7138042  51.6331863  18.0239964  84.4990253  76.3792562  24.0587831
  83.7430668  76.3826084  23.4716392  84.1652966  76.7382097  24.8809814
 111.2688923  42.1400738  53.4878778 111.1898899  41.1936569  53.3683538
 111.6796589  42.4499607  52.6807451  41.8119574  33.8158917  42.8582382
  42.4022341  33.5082006  42.1703911  42.0298910  34.7418928  42.9643393
  78.4648991   9.7071713  92.8121185  78.4395504   8.7549984  92.7174854
  78.3427429   9.8580426  93.7494278 103.4441471  19.7785842  11.3347983
 103.7746334  20.4123116  11.9715047 102.8011608  20.2678275  10.8215261
  78.7416697  64.9081516  28.1889510  78.1208420  64.3715858  28.6818099
  78.2680798  65.1532173  27.3940372  81.7184353  66.3173389  41.3969755
  81.6297054  65.5418158  40.8429670  80.9370041  66.8370152  41.2084866
   9.3466598  52.6385880  40.2385950   9.5646948  52.0694304  40.9766722
   9.6073610  52.1383905  39.4652462 110.0515938  68.0055046  10.2799284
 110.9838963  67.7892685  10.2630281 109.8770809  68.2421398  11.1908519
   8.3848822  63.0238008  70.6466866   8.2470465  63.2610703  69.7296619
   7.9322499  63.7068510  71.1414576 105.1295471  39.2603612  31.1119032
 105.3706646  39.9337864  30.4758286 104.2113018  39.0686917  30.9213281
  45.2176237   6.4165652  79.1108227  46.1462307   6.6065514  79.2443323
  44.7947216   6.7096990  79.9179506  22.8754759  41.8660307  52.1862650
  23.2620811  41.8896770  51.3109303  21.9764137  41.5703535  52.0431042
  94.3462467  78.1253242   5.3852063  93.4508801  77.7933979   5.3189939
  94.7364235  77.9336262   4.5324218   9.1054368  86.8033981  89.6868801
   9.7823560  87.3493004  90.0868893   9.1407555  87.0219994  88.7556458
  87.4270248  43.2563972  27.3183441  87.4222565  43.9332914  27.9951191
  86.9200897  43.6332178  26.5991354  26.3131452  40.6935596  72.8958416
  25.6784821  41.0756636  73.5020065  26.8300676  41.4385557  72.5892401
   1.0947129  29.5958614  63.4041929   1.8336371  29.7464395  63.9937258
   0.3218465  29.6792603  63.9627218  44.9876881  50.6743622  51.9782925
  45.0886488  51.4798546  52.4854660  44.4707012  50.0993204  52.5424576
  30.1208401  69.6787500   9.6782339  30.8160615  70.2317142   9.3216842
  30.0901985  68.9237738   9.0906084 105.7590199  39.6076608  69.5992041
 106.5835571  39.8001862  70.0456333 105.5270958  40.4264116  69.1609240
  40.5619860  37.5965405  22.1206737  41.0546827  38.2567668  21.6332483
  41.0905838  37.4311876  22.9013634   5.0701118  30.1066732  33.8969421
   4.6111006  30.9071183  34.1515589   5.4739052  29.7942591  34.7066212
  16.4616609  44.3338776  37.7111363  16.8852365  45.0393820  38.2000923
  17.1244693  43.6450338  37.6619935 113.6371422  58.5871696   6.0973001
 114.2983818  59.2484188   5.8929658 113.2172203  58.4008741   5.2575427
  19.1936827  59.3237591  41.2165499  18.6279833  59.9139214  40.7186317
  18.9154625  59.4355345  42.1255779 101.5058804  20.3468847   9.4228381
 101.2209606  21.2137413   9.1336864 101.0852432  19.7407389   8.8130170
 111.0391331  62.6806927  58.3675814 110.4401112  62.9884052  57.6873493
 111.4591026  63.4762287  58.6946535 112.0830536  21.5198183  34.5897508
 111.1693287  21.4216852  34.3219662 112.2341633  20.7946777  35.1960230
   3.3267096   2.5943971  54.1189384   3.2543668   2.8227833  55.0456762
   2.5187153   2.9255465  53.7268734  27.3966408   4.8196802  50.8254576
  28.0064726   5.3335404  50.2960396  27.4457383   3.9370394  50.4583549
  20.2490449  17.6340842  11.1458218  19.6371675  18.2680178  10.7717013
  19.8312485  17.3487091  11.9583726  84.2757893  30.8153081  47.9830360
  83.7860203  30.6108689  47.1864414  83.6355019  31.2366986  48.5563564
 103.1632996  38.4320331  49.5513916 102.5109673  39.0623975  49.8569012
 103.6145878  38.1497860  50.3469419 107.3602200  11.8318343   7.3518777
 108.1772709  11.3807130   7.5643611 107.2300339  11.6645920   6.4184356
  25.0369763  44.6009111  58.1900501  25.7112718  45.2424479  58.4136438
  24.2208242  45.1010370  58.1910181 104.1376495 106.0001278  35.7722211
 103.6899567 106.6691971  35.2543950 104.4529438 105.3682995  35.1259899
  26.1063170  48.8393593  27.5667429  26.5556264  48.0069208  27.4204636
  25.1791692  48.6360741  27.4430418  57.1195793  87.9004574  82.7758217
  57.6836395  87.2287464  82.3925877  56.3391924  87.9026794  82.2215557
  23.7091947  56.3977623  51.9472408  24.1789174  55.5720615  51.8296957
  22.8890252  56.1482286  52.3730183  17.2586513  19.5432043  57.0267296
  16.4385831  19.2152262  56.6577435  17.3360503  19.0988564  57.8710032
  26.9801855  60.9768867   6.5982437  26.9435120  61.7289591   7.1892339
  26.2947321  61.1464500   5.9519982 115.0879574  61.4822960  18.7868285
 116.0290146  61.6545725  18.8178325 114.7071552  62.1236706  19.3867135
  87.7456856  19.2002535  89.2585468  86.8297958  19.1086185  88.9959145
  87.8246117  20.1123428  89.5380020 103.9355373  49.7390604  19.1185355
 104.6695709  50.3206205  18.9205098 104.1482925  49.3678761  19.9747992
  14.6945333  47.5414133  38.7867808  14.2784691  46.7353439  38.4811997
  15.1783657  47.2791862  39.5699644  12.1528220  60.2353907  56.3762951
  12.4053550  61.0932684  56.0349607  12.5329959  60.2055645  57.2542524
 113.8528538  83.6087418  66.4492321 113.0025196  83.8483143  66.8177128
 113.7825203  82.6701736  66.2749767   0.1692556  59.8747873   6.8684977
   0.9540515  59.4716358   6.4972925   0.0395459  59.4231319   7.7024114
  13.3367181  60.1115036  29.2440796  12.7082288  60.7392740  28.8875127
  14.1052055  60.6391430  29.4614601   9.1624212  33.9383030  36.4781189
   9.8785985  33.3540201  36.7269874   9.5968533  34.7441983  36.1987734
 103.1704140  46.9775152   2.7062678 103.5786343  46.6173840   1.9189343
 102.9084873  46.2089682   3.2131872 104.2654324   6.6189933  86.8147850
 104.7147560   5.8203304  87.0913219 103.3846855   6.5372163  87.1806145
   7.6172376  69.8357534  37.6660967   6.7187619  70.1477098  37.5581312
   8.1193060  70.3200054  37.0106125  11.8121004  47.2719240  36.9388938
  11.9114161  47.8251696  37.7136755  11.3873231  46.4782190  37.2642040
   6.4936519  50.3269815  16.8627119   6.5452534  50.8268404  17.6773953
   5.8776069  50.8180332  16.3190305  13.0299616  61.5678835  38.9482880
  12.3267913  61.9236660  38.4049606  13.7338805  61.3709354  38.3302736
  13.8942182  93.3500671  12.0754504  13.2663226  93.0935478  11.4000416
  13.8099098  92.6756191  12.7494228  29.3158197  43.3162117  64.3035555
  29.8141098  43.7139750  63.5896063  29.9065447  43.3503103  65.0559616
  99.2656422  58.7578201   1.8406114 100.2187538  58.6694908   1.8425235
  98.9889050  58.3494329   1.0203245   5.0756496  10.5718148  23.8869190
   4.1977435  10.7015312  23.5281897   5.3872269  11.4553893  24.0829992
  51.3631821  48.1035805   6.3464552  51.6899157  47.3055506   6.7619371
  51.6066933  48.8050508   6.9505024  24.5773411  62.8764439   5.6926149
  25.0136399  63.5272741   6.2424326  23.6483574  63.1004906   5.7476169
  22.0527649  53.9545298  44.6326780  21.8830824  53.0521727  44.9032116
  21.2225246  54.4082451  44.7778606  19.9688423  52.4688387  10.9924972
  19.0358949  52.4634075  10.7784617  20.4085422  52.3548985  10.1499331
  34.2834067  37.6986456  23.1199241  34.2636013  37.0385385  22.4270344
  33.3740735  37.7680755  23.4106517  32.1483922  34.6374893  54.5651054
  31.2919736  34.4210529  54.9337912  32.4528861  35.3801799  55.0865698
  27.4243045  63.2389402  22.6561785  28.1715345  63.7540674  22.9603577
  27.2269034  63.5924101  21.7888093  86.7771435  82.7638149  60.8250237
  86.0404682  82.2212029  61.1062908  86.7187786  83.5482883  61.3703966
  90.7835579  53.8541937  30.0904918  90.1287270  54.2144537  30.6885171
  90.8458042  54.4996834  29.3864298  35.3714204  98.1195545  91.8229675
  34.9672771  98.6879826  91.1673927  34.7756791  98.1557465  92.5713158
  36.7640066  94.5502281  87.7312279  37.2822237  94.6821594  88.5251331
  35.8579540  94.6766376  88.0128670  90.4814148  52.6835251  35.6209326
  90.9685898  53.1273174  34.9267173  90.9421825  51.8535948  35.7439828
   9.0431261  44.6331263  47.7600908   8.7808526  43.7359190  47.5540113
   9.8040050  44.7943830  47.2021580  29.9628901  30.1524878  38.4947157
  30.7722163  30.2938509  38.9858794  29.5107079  29.4575381  38.9730573
  20.2252245  39.7036314  52.1436501  19.4416440  39.2770457  51.7968655
  19.9649727  40.6159973  52.2704887   6.2366611  74.4888353  24.3104076
   5.3786635  74.8629951  24.1102147   6.0447979  73.7334776  24.8661590
  23.7966919   9.7533619  64.3807125  24.0399837   9.7623676  63.4549952
  23.2114959   9.0008396  64.4672537  10.0290263  60.7203245  34.9038768
  10.3150034  59.8579359  34.6026540   9.5121276  60.5404615  35.6891775
 114.3542290  67.6020241  23.4959006 113.8213253  68.1660604  24.0563536
 113.8242245  66.8140316  23.3759141  21.8957686  28.2869673  14.0796638
  21.6205573  28.9601874  13.4573555  22.1173358  28.7718701  14.8746538
  35.3888369  36.7391896  37.8323555  34.5794988  36.4284182  37.4266171
  36.0859108  36.3646579  37.2937965  16.9041562  67.0665312  62.8959703
  17.6512206  67.6514482  63.0224657  16.3413393  67.5278854  62.2741795
  23.9266396  77.1849298  49.2156219  24.7598124  76.9543266  48.8046789
  23.3246756  76.4931202  48.9412689  44.6405649   5.6320715  24.8324418
  44.9555969   4.7545117  25.0489497  45.2252388   5.9314287  24.1361833
   3.4614465  88.4039211  14.1273165   3.4725907  87.9650974  14.9779296
   4.2115840  88.0376053  13.6589837   5.7086325  93.7707615   0.6153652
   6.2013972  94.5448589   0.3429960   5.3446299  93.4202671  -0.1975857
  16.7273843  75.6586075  76.9286728  16.1152434  74.9454403  77.1100616
  17.5436032  75.3861141  77.3479176  12.9884601  79.1925383  12.2077465
  13.2544231  79.9274492  12.7603757  13.4006345  79.3675756  11.3617516
 113.0950642  10.6826293  89.1046524 112.2425747  10.3887498  88.7835026
 112.9277897  11.5530777  89.4659996  17.2985816  64.3354034  37.6119399
  17.5896049  63.8625622  36.8322229  17.1284580  63.6500216  38.2581115
 109.7825527   4.0037400  46.4201880 110.6029701   4.2450193  45.9901476
 109.1001606   4.3025124  45.8191013  47.6546001  64.5433426  90.8227539
  46.7514181  64.2989111  91.0246181  47.5825453  65.4001331  90.4020977
  14.0548718  34.4810653  26.1330652  13.7779188  33.5970330  26.3739300
  14.4941783  34.8157835  26.9148612   6.3354594  30.8865714  39.3644524
   6.8123990  31.5720367  38.8965869   5.8852965  31.3481998  40.0719023
  12.3786449  59.9450636   4.4255751  11.6415632  59.7553396   5.0060457
  13.1468487  59.6338511   4.9043667 106.1484051  28.2877946  31.5443587
 106.6463089  28.9517570  31.0674095 105.2916336  28.2784629  31.1176443
 108.2983589  68.4893417  49.0699244 108.6813068  69.3656063  49.0281725
 108.7544918  68.0629301  49.7954226 111.9487476  65.0625849  24.7837639
 111.0016251  65.1735592  24.8666763 112.1225166  65.1777697  23.8495421
 115.0695419  54.7563219  20.7581687 115.5016136  54.9305677  21.5943408
 114.1613865  55.0248671  20.8972979  27.8329968  70.8582497   2.9152519
  27.5224018  71.5894842   2.3813424  28.6649418  70.6057310   2.5148362
  83.4639168  17.6613438  83.8251400  83.4940720  16.8821454  83.2700062
  83.2868481  17.3233044  84.7029877 104.8312283  75.5166817  21.9118500
 104.5690823  75.7084656  22.8122568 104.0618420  75.1019907  21.5215635
   0.1625193  44.7263861  47.0241547  -0.2816812  44.6714067  46.1780500
   1.0458564  44.4000340  46.8525743   4.8551428  55.2973938  61.0298586
   4.0749976  55.8355236  61.1641073   4.5174634  54.4078255  60.9255981
  28.1056046  51.7609644  36.5720510  28.5977507  51.4568996  35.8094454
  27.2378707  51.9730520  36.2281251  44.3810892  72.0618200   2.8884414
  43.9296198  72.4121809   2.1205512  45.1250172  72.6500463   3.0180100
 115.2396584  66.5390348   4.7930717 115.9272099  65.8758640   4.7320935
 115.7121563  67.3699427   4.8438004  98.2960606  64.7563076   9.0072131
  98.0733967  63.9164400   9.4088030  97.6257324  64.8862410   8.3363885
 101.1255741  84.5691109  36.3029957 101.1821365  84.1260624  35.4563904
 101.2382984  85.4968071  36.0958433  11.3724709 108.7675762  84.4342899
  11.8704689 109.5849991  84.4275951  12.0206785 108.0906105  84.2399311
  21.9851017  60.7315874   3.3048040  22.6716137  61.1173868   2.7606583
  21.4665508  60.2036953   2.6976278  42.2993088  68.6868858  93.8624287
  41.5358925  69.1559076  94.1992474  42.7260637  68.3325005  94.6425056
  46.2126207  92.0266056  92.2802734  45.9915209  91.2568665  91.7560101
  46.1504745  91.7250156  93.1865883  16.2973583  81.5743160  35.3755069
  15.3968215  81.2776852  35.5069447  16.7568469  80.8040714  35.0411034
   2.3218100  44.7139311  42.5188828   2.0244162  45.0997782  43.3428431
   1.6680597  44.0441370  42.3183346   9.9308473  46.4909410  15.0883019
  10.8243251  46.1612749  15.1844704   9.9000305  47.2663307  15.6487048
  17.3856318  87.8180599   5.4992914  16.9688988  87.7153301   6.3548672
  18.1458426  87.2373295   5.5318785 105.0915718  52.3649788  19.9685526
 106.0373020  52.5114202  19.9879992 104.8764515  52.0711279  20.8537674
 114.2477131  59.3169260  16.2260664 113.7043190  59.8362684  16.8187213
 113.6212254  58.8654566  15.6604469  11.6795182  72.9235172  26.9202471
  10.7810163  72.7840614  27.2193742  11.9278538  73.7690449  27.2939396
  16.9605720  50.0249624   3.4473270  17.2250688  49.3877745   2.7838030
  16.0115194  49.9203253   3.5150167  38.5590744  49.2936897  61.0522032
  38.1663990  48.8879013  60.2793074  39.4402051  49.5407248  60.7714701
 101.9579601  46.0779810  37.6835728 102.9029083  46.0408640  37.5354910
 101.8186855  46.9109011  38.1342173 106.9254589  10.5461740  30.4612207
 107.3974895  10.4536843  29.6336555 107.6099014  10.7076061  31.1106062
 106.2070560  60.0654745  31.1686325 105.5261421  60.5817461  31.5999651
 106.8835926  59.9554634  31.8367910  98.6490536  51.1007214  20.2858901
  99.5254803  50.8909655  19.9632168  98.7875080  51.3799906  21.1909151
   7.0530343  42.5687551  51.0602140   6.2798661  42.8073883  51.5715837
   7.2668475  43.3600569  50.5658960  13.7438226  63.4254313  64.0342140
  14.5273483  63.9708138  64.1040325  13.1407094  63.7884951  64.6828032
  15.6891239  66.3138580   2.4570110  15.6868029  67.1600103   2.9045039
  14.7648346  66.1277103   2.2918722 108.8999367  87.9656124  28.1809545
 108.1636524  88.4247494  28.5850668 108.4924889  87.2906494  27.6381445
  21.9804645  72.4772167  43.1624269  21.3356757  71.7774153  43.0587006
  22.4889064  72.2222424  43.9322996 108.9360237  12.0552576   0.7871860
 109.8264313  12.3607457   0.9606187 108.9553070  11.7665803  -0.1252424
   9.7693992  81.0705757  31.7697811   9.4069755  81.4910984  32.5495529
   9.0079892  80.7063770  31.3182926   4.8214099  35.3725147  40.4962111
   4.8231545  35.9822679  41.2340641   5.3982866  35.7781100  39.8489547
   1.6532421  14.4299841  30.0615454   1.6921152  15.1047373  30.7393599
   2.0823218  13.6702001  30.4550552  22.2880197  37.9832220  52.7936363
  22.6566505  38.2019091  51.9377661  21.4332604  38.4139442  52.8034115
  20.2214694  70.7670593  23.5240698  20.7847190  70.9149361  22.7643895
  19.5686781  70.1368666  23.2191873  20.3030276  44.0763474  25.2885437
  19.9536514  44.4195366  26.1109710  20.6069398  44.8510695  24.8156023
  42.2495222  20.9704971  55.4094648  42.0693254  21.6387701  54.7482729
  41.3844585  20.6741691  55.6924582  20.3827596  58.0130434  46.8927193
  21.3048244  58.2695961  46.8781662  20.1973820  57.7347994  45.9958124
 108.6122799  58.5044527   8.8086760 107.7704144  58.6769867   9.2302471
 109.2573929  58.6179829   9.5066565 103.4417439   3.3635962  90.1998138
 104.3760777   3.4742621  90.0237656 103.2062054   4.1246566  90.7304192
  18.3384895  58.0358505  15.9560990  19.0210533  58.6651278  16.1892343
  17.5353277  58.5554504  15.9216964 112.1265793  76.7233658  29.4196987
 112.7015781  76.5272284  28.6800075 112.1962547  75.9557867  29.9873281
  52.0047903  91.0210991  70.3253269  51.1964130  90.5648518  70.5589771
  52.4188089  90.4559994  69.6730423  11.8102610  93.5352039   1.3861541
  12.3928618  92.9374886   1.8547143  11.8853831  93.2727718   0.4687007
  34.0043926  86.3126659  45.7256937  34.2786932  87.0912457  45.2411318
  33.4655023  85.8219051  45.1052237 101.8533516  38.1485367  27.5987315
 101.0110092  37.7143621  27.7336192 102.5019646  37.4542093  27.7146363
   0.4699465  80.3670025  26.4470100  -0.4102776  80.1367569  26.1496472
   0.4059789  81.2899017  26.6927409  27.9678369  32.8929663  61.0992670
  27.2000837  33.1938624  60.6132174  28.1783462  32.0431423  60.7123375
 114.2703915  51.5002823  33.1851530 115.0593376  51.4509487  32.6453733
 114.4497490  50.9201050  33.9250565  19.0165794  59.7754192  31.0502625
  19.5092380  59.0687704  31.4675903  18.1320083  59.6936893  31.4067531
  83.4799767  69.4596529  32.3658156  83.2466984  68.8537550  31.6624641
  83.5968208  70.3023291  31.9270992  93.3375931  76.6433573  10.1336861
  94.1483402  76.8046045  10.6163156  93.3160305  77.3287868   9.4658881
   8.3339572  71.2412024  21.6702724   8.7552375  71.6189432  20.8982205
   7.6764113  71.8884468  21.9251037  21.3033557  54.3115759  33.2289433
  21.0891962  53.7674999  32.4710846  20.4651356  54.4476080  33.6706638
  85.3578186  36.3051891  93.7846375  84.7989559  36.7774868  93.1675243
  85.5884457  36.9572639  94.4463444 101.6788769  54.5402288  28.2782292
 102.3312664  55.1956654  28.5252714 101.7144871  54.5154095  27.3220134
 101.6798687  52.7379084  20.6115150 101.2387276  52.3185110  19.8727751
 102.1856117  52.0347834  21.0190296  50.4815388  52.9562664  18.7379134
  50.9925747  53.7634468  18.6784303  50.8864307  52.3688745  18.0997419
  32.4891520  46.3137674  38.6933208  32.3992825  45.8896732  37.8399158
  33.2110763  46.9317865  38.5788226  22.5511599  45.7562542  50.6285810
  23.1704497  46.4833641  50.6920195  22.3832989  45.5046844  51.5367460
  17.1684086  46.8489838  64.4326830  17.4222517  47.6252174  63.9334297
  16.2587273  46.6893768  64.1812086  18.3362532  37.8808856  39.4345784
  17.9930866  38.0450916  38.5562229  18.6197364  38.7406278  39.7455621
 110.1360989  40.5864048  61.5159702 109.2449665  40.7837629  61.2275934
 110.5571747  41.4423227  61.5955544  46.1463547   6.2686718  28.6967707
  45.3380108   5.9614593  28.2863617  46.8123436   5.6428474  28.4121108
  27.3234630  25.7414556  36.3402057  27.0268869  24.9003220  36.6877270
  28.2769632  25.6641650  36.3071537 100.0375080  82.3324871  21.5685201
  99.9915028  82.3330021  20.6124258 100.9644890  82.1951580  21.7636323
   5.3320789  59.3876505  17.9749525   4.8461124  58.6292744  17.6510155
   5.8770335  59.0393353  18.6805964  20.4901004  44.5645332  61.4899826
  19.7680247  45.0076342  61.0444450  21.2562299  45.1067495  61.3021469
 115.2072906  29.6269011  33.1646991 115.7232094  30.0252795  32.4637341
 115.2331638  30.2679062  33.8751054   5.0083894  53.5251760  27.5703692
   5.0227618  53.5151243  26.6133308   4.3938354  54.2243433  27.7933478
  51.8963480  59.2206335  24.5898771  51.3146114  58.6415577  25.0823092
  52.1604013  58.7039185  23.8286185 114.6006775  68.8792944  21.0924459
 114.3959427  68.2408667  21.7756152 114.7075939  69.7065449  21.5619779
   6.9339406  84.2320728   9.7075427   7.1417600  83.3023453   9.8005527
   6.0569936  84.2442799   9.3240762  96.0684204  32.4574113  43.6359644
  95.7517529  33.2510304  43.2045460  96.6606712  32.7753067  44.3174410
  33.6291218  54.7130823  69.0075350  33.7657261  54.5300341  69.9370861
  33.6657166  53.8542795  68.5864067  23.8799071  30.4777622  47.5463533
  24.7593546  30.8542514  47.5137424  23.9529181  29.7519469  48.1661034
   1.7162861  38.3642578  24.2565465   1.9061249  39.3014860  24.2988801
   1.6449070  38.0927658  25.1716590  16.0532570  41.3237476  57.8771305
  15.7745230  41.8127108  57.1028900  15.2915072  40.7943392  58.1131411
 100.2000141  44.4367123   6.6525680 100.8501434  44.0074587   7.2087222
  99.5864391  43.7398911   6.4197850  18.4795713  77.4193525  52.0415640
  19.2804134  77.4257040  51.5173101  17.8054786  77.7595472  51.4532661
  10.6924105  53.0187654  33.3963633  11.4993954  52.5153637  33.2886839
  10.0240493  52.3613977  33.5897398 111.8646240  52.2173119  57.6821613
 110.9449387  52.2999573  57.9342985 112.2124577  53.1064796  57.7501535
  34.8022509  54.0947914  11.1544192  35.4122567  54.6299124  10.6467080
  34.9269176  54.3823528  12.0588517  32.1788931  89.9798298  32.9998589
  32.9516768  89.5049477  32.6940393  32.3565054  90.1567268  33.9236522
  42.6781607  52.8477812  21.5339041  42.6451349  51.8946791  21.4518428
  42.4288368  53.0187702  22.4421072  91.0125923  74.3270731  13.1240690
  91.8252182  73.8594007  13.3168137  90.3386021  73.6473942  13.1270397
  47.1354055 103.2551575  82.3334408  47.4421358 102.5108433  82.8512669
  47.4586535 104.0236092  82.8037930   5.4466790  70.8235645  39.8014617
   5.7387733  69.9235582  39.6569014   5.9778440  71.3470650  39.2014241
  17.5293183  24.4721723  70.2735806  17.0367038  24.4921637  71.0940456
  17.7748799  25.3843927  70.1193619 109.9703789  46.0731936  35.1773977
 109.9597073  45.3301907  34.5740247 109.6543121  46.8104410  34.6550965
  13.6563432   0.8151381  85.0045586  13.2074857   1.0242570  85.8237267
  13.2609642  -0.0082232  84.7182369  28.1743979  64.4004822  34.4854283
  28.6085105  64.1597319  35.3038502  28.4826636  63.7530708  33.8513446
  88.4478283 101.3137531  45.5689669  89.2760849 101.1588192  46.0230684
  88.6838245 101.3371086  44.6416140 107.3854923  46.9352436  57.2090292
 107.7294827  46.1737442  57.6759481 106.4579296  46.7377090  57.0792198
  73.9367247  28.9946818  89.6291828  74.2878199  28.1352162  89.3961906
  73.6033821  29.3487573  88.8047123   8.0481440  78.6959267  11.2341356
   8.8189322  78.9966297  11.7154825   8.3937371  78.3899975  10.3955626
 101.8431759  64.6189451   7.4402159 101.4401245  63.7519360   7.3946029
 101.8237114  64.8434782   8.3705056  12.3569417  56.8650532  25.2949429
  13.2619929  56.5655994  25.2086782  12.4321496  57.7864695  25.5430746
 113.2242870  37.3461938  24.0554166 112.6938343  37.0235801  23.3268738
 114.0614319  36.8915725  23.9618921  27.7163720  67.5268650  28.4178829
  27.7592206  68.4433365  28.1449842  27.3114467  67.0751619  27.6774549
  12.4815702  57.8065586  73.7840223  12.3693788  58.7546682  73.7151909
  12.3830497  57.4879551  72.8867912  23.1799364  74.0374231   4.9342155
  22.8230119  73.3910465   5.5433410  22.6523972  73.9367390   4.1418785
 101.3052559  31.1371136  27.4450040 101.6241646  31.7496943  28.1077862
 101.2040520  31.6693449  26.6558790  32.4093390  38.4568167  34.2918825
  33.1017017  39.0725589  34.0516210  32.1329713  38.0709052  33.4606624
  17.2876608  49.7124147  48.4085083  16.6547179  50.4202795  48.5290909
  18.0178332  50.1206732  47.9433107  33.3652902  73.8002157   6.6728908
  32.9191518  73.9704323   7.5024796  32.6797843  73.8857698   6.0103261
  23.8732815  93.6567307  20.9900737  24.6074152  93.4985638  21.5835881
  23.8021922  94.6102619  20.9458447 104.0276527  81.6123009   2.0336545
 104.1367626  82.5525093   1.8910474 103.9040184  81.5261841   2.9789218
   2.4024704  67.7061129   6.9830692   2.2571820  67.3155117   6.1213541
   3.2874605  68.0677843   6.9359684  95.7291317  35.6309605  46.3567305
  96.0851765  36.4720035  46.6432810  96.2302780  35.4140711  45.5705690
  82.2827625  60.1997232  36.4540815  82.7689743  59.8976374  37.2212625
  81.3646698  60.1620054  36.7222548 107.9005909  18.8711095  15.7484913
 106.9817257  18.9122534  16.0135198 108.3804417  18.7438190  16.5668833
   9.1122979  60.4875374  11.8655300   8.4486884  61.0171938  11.4235830
   8.6114264  59.8306322  12.3490930   1.2449497  32.4539495  45.9695101
   1.6609940  31.7279506  45.5046844   0.6159463  32.0337486  46.5560389
  30.7874656  60.3824043  50.6229639  31.5008092  60.5627155  50.0107050
  31.1314559  59.6976233  51.1965275  82.9056835  88.6314583   9.6102631
  82.6163769  89.4796276   9.9466377  82.7197075  88.6697960   8.6720860
  95.9350681  42.4100637  40.7822180  95.9308243  41.4842367  40.5391884
  95.0408077  42.7063179  40.6125736  21.5219355  41.2707472  39.2103577
  22.3199582  40.9289122  38.8071918  21.1191988  41.8068695  38.5272717
 104.9171352  73.0287790   8.2886779 105.2794361  73.5384560   7.5639725
 105.6307030  72.9757738   8.9244825  42.6711321  40.5447197  28.2643700
  42.2022438  40.0018072  27.6306367  42.2135305  41.3852215  28.2446575
 112.7899551  30.3237557   3.8663658 113.5364819  30.3103852   3.2674089
 112.1243954  29.7907090   3.4314871  32.6259589  62.9916096  36.6641355
  32.7065778  62.3844624  37.3997331  32.3707342  63.8220787  37.0658946
  80.0970268  57.9758310   8.1668317  80.0996685  57.1151114   8.5856187
  79.2727613  58.3750582   8.4450948  37.5009108  31.6718102  31.7514801
  37.1891761  31.1614370  31.0041046  36.9044352  31.4419985  32.4639654
 101.2742424  63.1415510  35.8075166 102.0343494  62.8449821  36.3080263
 100.7156467  63.5735130  36.4537406   2.1444932  85.3451729   8.5890585
   1.3795206  85.9025478   8.4462708   2.0220946  84.6115112   7.9865712
  12.2374845  24.7817993  57.7030611  11.7712247  24.1637516  57.1401691
  12.0821333  24.4608927  58.5913849 114.9978638  27.3956275  51.8340826
 115.6888580  27.4309182  51.1726332 114.2945194  26.8961430  51.4192820
 103.1890678  57.8830671  36.3429260 103.1694984  57.3492670  37.1372223
 102.7631283  57.3405695  35.6792212 111.5175343  53.7408829  17.1631789
 111.2167645  54.2674875  17.9037583 110.7512474  53.6680269  16.5942061
  28.5718155  69.2346764  11.9996548  29.2219377  69.3732262  11.3109052
  29.0710950  69.2882109  12.8145683   9.9194354  63.1330824  39.7617507
  10.2989912  62.8502703  38.9297724   9.1031724  63.5688972  39.5167804
   7.2274601  79.1670370  61.3718081   6.3242149  79.4055653  61.1632824
   7.7254903  79.4092751  60.5910921  76.0501671  63.9160442  34.0106249
  75.5970097  64.1366386  33.1968546  75.5654049  63.1680489  34.3595338
   4.1312551  43.5444164  31.9639993   4.4521147  42.6480865  31.8646049
   4.1523996  43.7031126  32.9077148   3.9100644  52.2116566  55.1762629
   3.7578437  52.4574137  54.2637587   3.8318381  51.2576866  55.1836300
  29.1789937  50.0321341  38.9483380  29.2730784  49.4337416  38.2071853
  29.1789913  49.4624949  39.7175837  31.4517307  60.5699682  31.1140156
  30.6196237  60.8424330  30.7272458  31.2038279  60.1094246  31.9156837
  12.6790249  59.6215153  66.0701180  11.7912769  59.9447393  66.2239456
  12.9261899  59.9939108  65.2236795  10.9602165 100.3954315   6.1121780
  11.2119782  99.5374775   6.4538819  10.6003988 100.2114773   5.2444667
   4.6338111  39.9655867  17.7120340   4.8608261  40.7956076  17.2928011
   5.3646755  39.3838930  17.5029826  40.9447336  85.0302219   3.0967158
  39.9904847  85.0341415   3.1717062  41.2191772  85.8593273   3.4885064
   5.9362227  46.4461374  11.2475300   5.1127201  46.9297552  11.1827958
   5.7269573  45.6889534  11.7944384 105.7776165  71.8238878  20.6151509
 105.6151867  72.0579243  19.7013259 106.6554832  72.1598577  20.7960320
   2.7566940  85.4816341  20.7432771   3.3160532  86.2039948  20.4577303
   1.8985325  85.6807995  20.3689456   6.7251056  91.6690540  14.6537673
   6.8354237  91.2759304  13.7880194   5.7775879  91.6913223  14.7877288
  24.2304254  57.6651192   6.7461985  23.5208583  57.7381706   6.1079103
  25.0243807  57.6008749   6.2154090  23.8557696  45.1659632  54.3252134
  24.3788075  44.7476482  53.6413431  23.4675503  44.4371605  54.8093271
  16.5896535  62.9523849  16.4550650  15.9115791  62.8212690  15.7923019
  17.4124670  62.9074860  15.9680414  20.8011293  80.2074623  52.0298767
  20.2238655  80.1542187  51.2681913  21.6696000  79.9959373  51.6874647
 113.7622356  36.5064669  34.3780947 113.3411312  35.7184863  34.7215939
 114.4024277  36.1797237  33.7459373  42.6182747  29.9262261  33.4219885
  43.4233379  29.8157001  32.9161334  42.2191048  29.0562654  33.4300041
  21.4455795  59.8665476  84.8242855  20.9762168  59.0447235  84.6809864
  22.0767665  59.6645975  85.5149746  21.6910172  33.5513830  73.6043406
  22.6443243  33.4723878  73.6389589  21.5324068  34.4880152  73.4869003
  54.6467257 101.5741825  57.0680332  55.5005217 101.8641758  56.7468405
  54.0640116 101.6640472  56.3139772  22.3364401  51.3144398  45.3572273
  22.3746872  51.5211773  46.2910509  23.0451727  50.6854534  45.2219439
  21.3120914  55.0045347  29.8388720  20.5759788  54.6399784  29.3474746
  20.9623051  55.8008003  30.2386713   0.3453158  57.9535961  12.8444445
   0.0064680  58.3697653  12.0518422   0.1481615  58.5757494  13.5446501
 102.1759892  66.6852856  54.1434526 102.4604416  66.9034290  53.2559109
 101.2271976  66.5807724  54.0719891  36.5545034  84.1447926  30.8766890
  36.3452840  84.4245720  31.7678618  36.6696167  84.9610710  30.3901982
  29.3786955  64.0706730  24.5795608  28.8120890  63.3514023  24.8585606
  30.1587892  63.9876270  25.1280022  13.9092410  65.4381418  27.9366231
  14.4921279  65.4561472  28.6956692  14.3465805  64.8589897  27.3124838
  51.9264698  59.2608643   3.9249748  52.2413731  59.0808916   4.8107952
  52.7144909  59.2408705   3.3819664  38.9304662  82.9050541  30.5134845
  39.2240167  82.3449421  31.2320518  38.0099082  83.0812263  30.7078195
  26.5559936  62.2337008  37.6275277  25.8090711  62.6409817  37.1888256
  27.3068142  62.7672815  37.3671603  14.3596840  56.6042566  20.3515553
  14.6343744  56.2679052  21.2045765  14.6677375  57.5104666  20.3409171
  26.4361477 101.4030647  35.8138657  26.1024904 101.2336540  36.6948891
  26.2684798 100.5918884  35.3341675  27.8377914  97.4911690  25.5817795
  27.0272088  97.0817947  25.2791238  27.5477624  98.2329082  26.1127615
  96.2089920  84.3374920  53.6013508  96.0396290  83.7637138  54.3485641
  95.3750134  84.3731785  53.1329060 114.2901802  92.9141331  54.5667553
 114.2667103  91.9891453  54.3216324 113.4830379  93.0510235  55.0627565
  42.5896311 107.0991135  71.1713266  42.5067091 107.6508045  71.9491386
  41.9783497 107.4802971  70.5410385  11.6521716  52.5738668  54.8257971
  11.9178367  51.8285656  54.2871141  11.8790472  53.3416033  54.3010664
  98.8331509  46.9519043  37.8748870  99.2049217  46.8395567  38.7497568
  98.9360428  46.0958481  37.4591804  28.1636119  44.4405031  25.1365542
  28.0807757  44.5876074  24.1943598  28.0343342  43.4981918  25.2441239
   7.0733047  68.2238293  42.4297953   7.0243257  68.1132650  41.4802647
   6.7476469  69.1104794  42.5848007  34.8977304  72.9186821   2.1772468
  35.4055071  72.9577541   1.3667722  35.3447342  72.2596741   2.7084038
  12.4397922  67.4431372  47.6169920  12.9058182  68.1830835  48.0062675
  12.7620411  66.6789341  48.0948830  14.0344441  78.2615662  45.7785320
  14.5286655  78.0287266  44.9925518  13.2013512  78.5967255  45.4470873
  29.2178154  66.1715889  41.9559860  30.0079942  66.7014503  41.8506432
  28.5055017  66.7448854  41.6728449  98.2501698  73.4302092  21.4585304
  98.1333733  74.3006802  21.8391514  98.1170368  73.5595751  20.5195022
  20.0699043 109.1674995  43.3423710  20.1596355 109.6509457  44.1636229
  20.0221014 108.2493973  43.6088896 107.0715523  45.1107121  40.8162498
 107.6396275  44.9917030  40.0550985 107.4394417  44.5304871  41.4827490
 109.2168331  19.1163528  93.9824009 109.4438267  19.7866070  93.3378315
 110.0574589  18.7392449  94.2419815  25.4817057  63.4218359  42.0440388
  25.0255227  64.0187073  42.6372290  26.4075184  63.5279322  42.2627831
   2.2910006 103.6210537  28.6405396   2.4070184 104.5430374  28.8701224
   1.3561201 103.4586716  28.7664890  81.0681438  23.9345312  82.9982662
  81.5750790  23.2839489  83.4840488  80.3031445  24.1018677  83.5487270
 114.0085793  61.0256624  40.8454132 114.2769146  61.2472105  41.7371178
 114.7398376  60.5173588  40.4945421  31.3745832  87.6693058  34.6285200
  32.3265195  87.7484035  34.5669341  31.0435295  88.5109138  34.3149376
  11.9528425  79.5300579  44.6517754  11.0540962  79.2707253  44.4487190
  12.0146048  80.4363441  44.3500090  56.3766432  12.3726261  87.1341419
  56.7380524  12.3079288  88.0181217  56.9947910  11.8885219  86.5866375
  45.7035828   9.2023784  69.4468784  45.7230473   9.2569166  70.4023218
  45.8145714  10.1065803  69.1530514  18.5234344  63.7374020  35.2572370
  18.6396170  63.0455875  34.6059871  19.4114029  63.9421272  35.5502033
 115.5172348  92.9003048  42.7390099 114.6770096  93.3507729  42.8247166
 115.9116077  92.9614449  43.6090422  25.6570745  62.9723358  16.4116669
  24.9540329  62.3228025  16.4200938  25.2152061  63.8011789  16.2272549
   4.9515277  74.3015671  19.3584955   4.8728463  73.4452152  18.9381361
   5.7059658  74.2139959  19.9410653  30.3805757  72.8891706  11.9806278
  29.4338226  72.8603935  12.1187007  30.6395650  73.7614202  12.2778523
   2.2060141  73.5472631  64.3662453   2.3550899  73.9050484  63.4910297
   1.8630324  74.2845821  64.8711824  36.2514806  92.3965931   4.1476458
  35.3010774  92.4803257   4.0704769  36.5362620  92.0957375   3.2847360
 101.2830734  25.5107856  88.2986069 102.0722485  25.7831144  88.7668800
 101.0181046  26.2865424  87.8044224  20.1364350  50.8377934  31.7405272
  20.3510714  50.8066225  32.6728320  19.1797483  50.8206558  31.7142963
 105.9346771  79.1556931  36.6778278 106.4066029  79.0278482  35.8549237
 105.8812332  80.1061249  36.7781210  18.5054445  60.2459669  44.1399097
  18.2567489  60.8162069  43.4124422  19.0042114  60.8124495  44.7285986
  65.1939440 108.8000011  94.2216110  64.7478151 109.6217918  94.0170383
  65.9002542 108.7442398  93.5779858  24.4966459  71.7058563   1.9408619
  25.0760698  72.4646044   2.0101577  23.6318994  72.0795679   1.7712036
  23.6155176  46.6283083  42.8074121  22.9912424  46.9561672  43.4547329
  24.3259668  46.2536907  43.3281374  25.2345490  88.3239460  43.8552523
  24.6664548  87.7345085  43.3592129  25.5695391  88.9390659  43.2028389
   6.6854334  67.5932646  75.1959801   5.9524786  67.0404768  75.4669714
   7.2280711  67.0220280  74.6524096  28.3348012  61.7473888  25.7738972
  27.8627586  62.4070740  26.2820506  27.7362442  61.0014248  25.7351184
  49.4998789  41.2036991  39.7647238  49.3753481  41.9345665  40.3701591
  49.3954945  40.4223871  40.3077650   6.6546839  86.9713879  21.8248773
   6.6803133  86.2937450  22.5004244   7.5636983  87.2588062  21.7393255
   5.7457167  76.5317535  17.5878537   4.8813814  76.1449432  17.7276123
   5.6715739  76.9870949  16.7491651  27.4696183  55.0382996  56.4402914
  26.5836000  54.9603748  56.7940283  27.8601527  55.7622194  56.9298363
  29.5757437  62.9169464   7.6817906  30.0700045  63.4502983   7.0593178
  30.1143718  62.1358919   7.8085506  37.5256538  71.5617800   2.8039375
  37.7670288  71.2904406   3.6895707  37.6642370  72.5088692   2.7974692
  10.7915366  35.0102568  17.6221454  10.6154835  35.8180928  17.1398187
   9.9480122  34.7724271  18.0070281  50.0349855  64.6731234  24.5040751
  49.6490574  64.5666409  25.3735304  50.4960680  63.8496685  24.3442059
  34.0935493  82.5935459  32.7855730  34.1251540  83.3583355  33.3603168
  34.5602345  82.8677750  31.9961190  30.0309300  64.5555258  30.6969714
  30.3416133  64.3810129  29.8085737  29.6401405  65.4278898  30.6470037
   0.4980156  83.9869690  33.7620354   0.2699217  84.2307854  34.6591163
   0.3310345  83.0453873  33.7199378 107.8995609  80.6578732   6.9518411
 108.6237240  80.2520275   7.4283981 107.6909065  80.0339985   6.2565184
  13.4204710 101.0148239  21.3319278  14.3007195 100.6979179  21.5343404
  13.5628974 101.8530178  20.8921957  26.1207128  54.4475412  37.8191972
  26.2753582  54.3697309  36.8777823  26.8561125  54.9693155  38.1404018
 114.6380901  82.5780773  20.8166265 114.7840023  82.8991795  19.9267793
 115.4732132  82.1843147  21.0691190  21.1640382  87.0069027  10.9748459
  21.5412998  86.9984722  11.8545234  21.0056329  87.9328346  10.7910311
  52.9517317  24.9787712  91.9841385  52.3620510  24.9775004  92.7381325
  53.6493015  25.5877161  92.2266579  25.6110954  38.6714196  26.2623048
  24.7770882  38.7324381  26.7280746  26.2611198  38.5359621  26.9517612
  22.9675102  41.9186592  33.3514142  22.1629143  42.4311829  33.4299922
  22.7325463  41.0517502  33.6823177  34.5924997  99.8655128  37.8857255
  34.9931479 100.4038334  38.5683107  33.6914611  99.7353363  38.1813836
  33.4219265  18.6083293  37.1306372  33.7336707  19.2837369  37.7330256
  32.4913907  18.5160124  37.3351216  15.2553284  84.4202995  10.8165479
  14.7869122  83.6296940  10.5486655  16.0873723  84.3769836  10.3453195
  17.6565266  79.0611029  59.3736172  18.4643078  78.9000082  59.8612356
  16.9914055  79.1936922  60.0490904   5.7049471  59.3408823  68.1588936
   5.2723485  59.8580933  67.4794960   6.6398430  59.4736290  68.0021191
  17.9410934  62.3840904   5.0090969  18.1093776  62.5281858   5.9403056
  18.8014770  62.4574280   4.5960674  37.8308940  44.3397903  29.0124822
  38.5749912  43.7419558  28.9407444  37.2810245  44.1294384  28.2577443
  22.5537109  81.3052082  42.4127913  22.5179219  80.5188560  41.8681765
  22.0405698  81.0822201  43.1894445 111.4867020  10.3903973  83.1845284
 112.3666954  10.3660226  83.5603523 111.2192822  11.3063741  83.2600689
  23.1551957  88.4329605  32.8304243  22.9544997  89.3604374  32.9559112
  22.3454046  88.0572796  32.4849820  14.3408382  92.6391506  41.8615818
  14.7981012  92.5646877  42.6991987  15.0405550  92.6886177  41.2102890
  36.3927507  50.4136419  31.9580293  36.2319183  50.2512074  31.0285234
  35.5226612  50.5578279  32.3300338   5.4606712  59.8739767  10.7976210
   5.7120204  59.4005346  10.0045860   5.7884932  59.3311930  11.5146613
  98.0740166  86.2772465  49.4585943  97.8851891  86.0658932  48.5443163
  97.8094387  85.4961777  49.9445534  34.8146987  59.2838812  19.7303271
  34.5833802  58.7932825  18.9416337  33.9772940  59.5985174  20.0708985
   6.0005629  59.7781801  37.1012044   6.7808855  60.3267336  37.1813273
   6.2859291  59.0311384  36.5751529   8.0789930  73.3454275  56.2413692
   8.7227356  72.9335928  56.8177557   7.2435194  72.9548883  56.4976740
  98.2031345  30.4262757  35.3050804  97.8468323  30.4631877  34.4174314
  99.1345024  30.2429748  35.1818895 107.2666645  38.5688496   1.5164950
 107.2248936  38.6632109   2.4681161 107.1802235  39.4619846   1.1832227
  73.3163261  13.9003193  13.6175489  73.9007664  13.5024774  14.2628264
  72.5358915  14.1403329  14.1170931  43.8650179  57.1499634  35.2352238
  43.4971380  57.9885960  35.5137777  44.1694641  57.3070192  34.3414235
 103.7456799  73.9508581  36.1333418 104.3263912  74.5472288  35.6607485
 103.8864231  74.1609573  37.0565319  20.3818631  65.8407545  37.4948406
  20.7665348  65.1393747  36.9691753  20.6669354  65.6536436  38.3892417
 114.8024368  49.6707010  60.1435614 115.5381107  49.2433977  60.5822277
 114.8853397  50.5941629  60.3814268  25.8617282  65.5580187  33.4097981
  26.0762167  66.4733791  33.5896230  26.6069102  65.0653887  33.7536764
  36.9275999 101.6801167  27.9355431  37.3152804 101.9464397  27.1018720
  37.5867152 101.1131096  28.3359122  19.7253668  43.5317898  58.3747244
  19.1706824  44.1425705  57.8894377  19.1096544  42.9850626  58.8628006
 100.4899788  68.4497833  61.8646574 100.2569485  68.5147572  62.7907848
 101.2575626  67.8780842  61.8503523  26.0973048  58.1551456  55.8605051
  26.8193936  57.8703022  56.4205790  26.3927507  57.9602575  54.9711418
 112.7066803  47.2391081  29.1028047 112.0744991  47.1999168  28.3851409
 112.2521210  47.7168798  29.7965884   3.8230571  73.5050583  51.0616207
   3.7189034  73.5372829  52.0125914   3.0174518  73.0955124  50.7461834
   1.5733394  70.4904604  71.9850445   0.8875684  69.9998045  71.5320396
   1.4792302  70.2405834  72.9042482 111.4516163  72.2121096  11.3623023
 110.5492020  71.9082880  11.2644267 111.8361568  71.6171455  12.0060253
  47.2491074   3.3171576  14.8789871  47.2406960   3.6693448  13.9889729
  46.4239788   3.6147749  15.2621496   5.1299202  61.5937662  14.8869073
   5.1068407  61.8095016  13.9546204   4.7678378  60.7091141  14.9370718
  34.6296763  78.3662701  21.6297388  33.9598346  79.0491390  21.6648865
  34.1353464  77.5470591  21.6021752  33.5749340  91.5085125   3.2221657
  33.7323284  90.6424141   3.5981071  33.3897662  91.3386536   2.2985353
  99.5865822  63.1606579  25.5976653  99.0469074  63.1035376  24.8091745
 100.4190731  62.7597666  25.3476810  99.8794842  50.8634663  38.8016605
  99.1118240  50.2946949  38.7430453  99.8859501  51.1641693  39.7103786
 112.7644730  81.7308903  12.3037314 112.6115036  81.8694687  11.3690507
 111.9307423  81.9527340  12.7183521  41.5477133 106.0626125  63.8611412
  41.6585445 106.1030483  64.8110390  40.6373596 105.7939339  63.7374401
  30.8984542  41.4738369  24.0374017  30.6544852  41.7048264  24.9337029
  31.0848165  42.3128891  23.6161041  45.8183479  15.2256930  48.7164211
  44.9761391  14.8542237  48.4538841  45.9878731  14.8484266  49.5796490
   6.5889776  98.5594559  34.5700693   6.6335469  98.5415173  35.5260634
   6.4068842  97.6531410  34.3217373  25.6886029  87.8308296  24.1509557
  26.3707280  88.1011677  23.5362577  26.0432053  88.0482674  25.0130510
  63.0118370  10.3576171  32.2457170  62.6481104  11.1892128  32.5496674
  62.2705555   9.7522157  32.2607422  20.7423306  83.2993793   3.9759663
  20.6442761  82.3631859   3.8023365  20.9582639  83.3489418   4.9071738
  34.1520953  90.1308441   6.6945946  33.4577370  90.7758808   6.8288457
  34.1707206  89.9925613   5.7476187  35.9876895  43.2167530  18.6502779
  36.6780734  42.8528404  19.2045057  36.0915089  42.7667809  17.8118384
   8.9660245  42.3053217  12.6111007   8.4368879  42.4525928  13.3950377
   9.7889751  42.7608395  12.7885473  47.3318863  94.5477676  20.3735805
  47.9577684  94.4495773  21.0911179  47.0963097  93.6507320  20.1368046
  33.6779261  59.1698647  30.0564528  33.0304527  59.7665071  30.4319906
  34.2755222  59.7392178  29.5717359 101.9305706  19.2423594  91.0947514
 101.7971516  18.7483144  90.2858353 102.5329876  18.7037206  91.6077805
 105.3304291  82.5022984  30.4167461 104.9094009  82.6655293  31.2607384
 105.8449745  83.2918358  30.2490973  41.9422007  54.0374804   8.5114992
  41.9615841  54.8904371   8.9454597  42.6685476  54.0689659   7.8888762
  23.0428600  67.4971247  39.9228430  23.8333821  67.8304482  39.4983411
  23.1223488  67.7806997  40.8336115  21.5065932  66.6319036  24.3000078
  22.4130893  66.3376427  24.3889260  21.1379552  66.0695362  23.6187720
 111.8837166  35.0199986  86.9998360 112.3145199  34.6540141  87.7722931
 112.5737953  35.0613999  86.3377953  20.2878332  44.5497799  43.9678907
  20.6651020  45.3664732  44.2948580  20.6768203  43.8693666  44.5174026
  19.6737146  83.0244732  20.3838372  20.1944160  82.3920536  20.8789682
  18.9247322  83.2129955  20.9492707  98.6445999  42.4050903  41.7704439
  98.2593060  42.2144270  42.6256800  97.9137230  42.3316336  41.1567259
  28.5337138  60.9933329  35.2157736  28.3262920  60.6713057  34.3385577
  29.4227862  61.3397455  35.1397300   0.9002811 108.6423302   9.7925043
   1.4597635 109.3338966  10.1459837   1.3988392 107.8369522   9.9304920
  38.3452058  48.4255600  17.7184618  38.7051582  47.7781487  18.3247006
  38.2964325  47.9670715  16.8796265  25.5987549  51.9436979  35.2190804
  25.8204722  51.6218376  34.3453097  24.6616125  52.1332932  35.1738286
  81.6587734  63.7241220  34.0906096  81.5331268  64.1988945  34.9122167
  81.1424255  62.9248524  34.1944742  19.1680229  56.4292288  30.9701324
  18.8625574  55.6500864  31.4347386  19.7572291  56.8612432  31.5885472
 114.6772861  50.0575447  20.8495212 115.3532887  49.6780205  20.2880764
 114.0231133  50.3986359  20.2396464   3.0547035  57.5901747  12.6309168
   3.1608698  57.0611191  11.8403101   2.1227533  57.8077269  12.6501691
  21.5788579 104.8115826  36.3083339  21.4271951 105.1959229  35.4449034
  21.0261893 104.0301991  36.3231134   4.9899590  56.2180996  25.4079056
   5.3773487  55.5419159  24.8520851   5.2552724  57.0431614  25.0015640
   4.6931419  74.5502186  11.4008880   3.8554111  74.8578358  11.7470253
   4.6954274  73.6098862  11.5797687   3.4496999  57.2299528  45.3742552
   4.3611574  57.0846939  45.6279850   3.1191739  57.8573322  46.0171986
  20.8221602  77.4475527  24.8208857  20.1897097  77.7854156  25.4549861
  21.6693377  77.7615452  25.1370049 108.6535645  36.3448095  79.6058130
 108.3017063  35.7911062  78.9087868 109.2457581  36.9479656  79.1566467
  21.0577178  23.0017400   6.4316320  20.3102422  23.0745697   7.0251018
  21.8016720  23.3194017   6.9433534  51.6940641  12.8698611  41.8931818
  51.6860104  12.6305711  42.8199530  51.9496393  12.0661211  41.4405012
  34.1209245  94.8974800  88.9404297  34.0238929  95.7820320  88.5877419
  34.4825673  95.0275135  89.8170948  32.0272565  64.0648079   9.5995921
  32.2551680  63.1412077   9.4935232  31.1552095  64.1422844   9.2126000
  34.4499445  74.2469454  17.4282062  33.8105464  74.5907211  18.0520809
  34.4771671  74.8999071  16.7288244  40.6625366 108.4269333  27.1287823
  41.0606813 109.2929268  27.2169638  39.7699809 108.5392475  27.4558377
  92.3260689  56.1166525  87.4108696  91.7228317  56.0326815  86.6724300
  91.7688751  56.3659286  88.1481743  15.2841353  71.7905188  38.6850619
  15.1157653  72.6813745  38.9920712  16.2311924  71.7587900  38.5497618
  26.7901349  54.5808125  35.0432491  26.4984536  54.9836826  34.2254162
  26.2499952  53.7952662  35.1292515  18.2488501  62.5176764   2.1452855
  18.7751770  62.7832127   2.8994098  18.8340271  62.6242781   1.3953280
  28.8398838  70.7275438  32.4444962  28.0494618  70.3110504  32.1009898
  28.5922408  71.0262966  33.3195114 114.0454102  72.0790911  30.3503680
 114.6318245  72.8351212  30.3224730 113.8671875  71.9484520  31.2817121
  18.6928713  71.7430305  41.1485195  18.6412239  72.6986170  41.1279631
  18.3497465  71.5030861  42.0092916  37.0351601 105.7582378  40.5434608
  37.0091820 106.6837215  40.3004742  36.7532587 105.7427406  41.4580774
  11.3194215  96.7861557  51.0475349  11.1292303  97.0368195  50.1435280
  10.9481537  97.4931622  51.5752935  78.1855011   2.8914508   6.5055716
  78.7810469   3.1982246   5.8218712  78.7396526   2.3776174   7.0930421
   8.7371701  74.7853470  46.5235043   8.8731831  74.5098639  45.6169510
   9.3467808  74.2493296  47.0307398  75.3081894   4.9327728  87.3137856
  76.0200405   4.4224772  86.9276524  75.7143545   5.7647693  87.5567818
  68.7912846   7.7555913  33.7609076  69.5860338   8.2440519  33.9754057
  68.3925819   7.5623441  34.6093917  28.7770534  88.0815315  54.0976095
  29.3879628  87.8116512  54.7833157  29.2716742  88.7078190  53.5690880
  93.9173508  -0.1038030  63.4306479  93.2673073  -0.2548605  62.7444649
  93.4962749   0.5148404  64.0274763   9.9227691  67.6884794  48.4652090
   9.7941381  67.0765018  49.1898966  10.8722711  67.7278566  48.3506393
  28.8802266  93.5165215  38.5709572  29.4749284  93.2770157  37.8601885
  29.1879773  94.3750000  38.8617229  14.8105502  85.2149487  34.5509148
  14.6720731  84.4706249  35.1366091  14.0750909  85.8008003  34.7301126
  21.2188458  79.4903135  12.0142829  21.3185143  78.5721540  11.7627144
  21.9123316  79.9460173  11.5371609  33.5279346  94.2702866  46.5373802
  32.9625559  93.5184383  46.7143106  33.3258867  94.5146179  45.6342173
  16.5503979  81.9113922  22.9592013  16.8655765  81.0084152  22.9202461
  15.6693375  81.8418980  23.3268094  83.2405472   0.3916208  10.2482915
  83.6938190   0.2491308   9.4173419  82.4463749  -0.1385707  10.1819015
 109.4198608  85.3248978  46.3253784 109.0247822  84.4592094  46.4289141
 110.1520252  85.1838017  45.7251644  60.8159542  12.7522051  19.7502923
  60.6510830  13.4940314  19.1682756  60.0145006  12.2306824  19.7065127
  14.9341214  81.4267445  19.6428287  14.2837763  81.0271358  19.0652514
  15.1315665  80.7473183  20.2875185  37.4962521  79.5162487  33.9670825
  37.6036906  79.9046087  33.0988288  38.3823299  79.2661667  34.2289162
  30.0647569  20.2844810  43.5978317  30.3516650  19.5198452  44.0970755
  29.1623116  20.4308343  43.8813877  41.8752623  98.9710236  26.4292550
  42.4306822  99.1796875  27.1803856  41.3516188  99.7604370  26.2919402
  33.1712127  76.6913462   7.5189871  32.4264169  77.2894430   7.5805521
  33.1355762  76.1804152   8.3276361  13.6119056  83.0792332  28.0372286
  12.7155113  83.1112576  28.3714175  13.5132396  83.0930710  27.0852280
  19.7578871  82.3452950  37.1133280  20.1619983  82.8961658  36.4429069
  18.8182330  82.4115849  36.9433665  33.1643414  75.1460266  25.7815146
  32.7508807  75.9392452  25.4408050  34.0042400  75.4446030  26.1302996
   2.8330863  97.9389763  73.9310408   2.8461969  98.7067699  74.5024967
   1.9031459  97.7555752  73.7976027  25.7672620 105.8438683  41.9263315
  25.2442312 105.7426071  41.1310863  25.1540089 105.6691265  42.6402044
  56.8084526 105.8333492  49.2184973  57.3088789 105.5178165  48.4660053
  56.5256500 105.0374508  49.6688318  42.0112896  92.4544144  23.8721275
  41.1040545  92.7459812  23.9623284  41.9434977  91.5630150  23.5300112
  32.5164080  91.0748577   0.9457747  33.0575085  90.7709885   0.2170034
  31.7678976  90.4782772   0.9533501  45.7800102 108.3029938  18.2308364
  45.4282856 108.7111855  19.0219760  45.2246857 107.5362110  18.0897844
  56.3739491   0.7642121   7.7922213  57.0105171   0.4557684   8.4371084
  56.6026258   0.2981047   6.9880557  59.3228006  86.5121746  21.2357759
  58.8093138  86.0235405  20.5924988  58.6767340  87.0346546  21.7110133
  19.2568183  90.5264473  30.7464409  19.6671331  90.1627731  29.9618292
  19.1820657  91.4633656  30.5652738  85.9352684   8.0199301  34.6550298
  85.1603794   8.5355771  34.8783994  86.2852001   8.4412491  33.8700032
  33.2113194 108.2701302  12.7073157  33.5570717 108.7483406  11.9536579
  32.8212714 107.4808121  12.3317289  47.4155140  18.1231451  10.9030533
  47.4124241  17.2791278  11.3545585  48.3429432  18.3255076  10.7799137
  32.8106308 104.1239548  45.2748251  33.0247927 104.5305157  44.4351387
  31.9076753 104.3909931  45.4468489  59.5111799  82.2274971  16.3203299
  59.8827982  82.8838921  16.9096327  59.1972065  81.5344906  16.9011903
  36.0531759  71.9280005  14.2651808  36.9457984  72.2724962  14.2372000
  35.9372020  71.4943361  13.4197700  41.9140482 101.2824154   0.4376858
  41.0055876 101.5767288   0.3720833  41.8521547 100.3307724   0.5199921
 106.4422131  34.8277378  83.8734818 105.8244133  34.1049051  83.9833355
 106.8955803  34.6327734  83.0533123  42.1063137 109.1072464  17.5089633
  42.7061367 109.4310665  16.8369675  41.4590931 108.5941410  17.0251620
  72.3713636  11.1324680  46.5731668  72.3582125  11.2359369  45.6216669
  73.1775904  11.5676987  46.8502998  37.9406548  87.7452946  88.9963245
  38.4697270  88.4773445  89.3132114  37.4628687  88.1016445  88.2473469
 115.8593178  94.7228146  50.3872538 115.9247684  95.1476955  51.2424850
 115.0075817  94.9976730  50.0478029  28.5174417  83.9271450  24.5251250
  28.6010408  83.4144688  25.3291154  29.0083933  84.7298527  24.7007823
  47.6944637  82.9732895  51.2157917  47.4447250  82.0568180  51.0977793
  46.9762325  83.3540916  51.7211246  17.1189046 102.9770374  14.2368233
  16.9318712 102.6186466  15.1044643  16.4307344 103.6265278  14.0925288
   5.3135520 102.7211571  47.0688438   5.4937273 102.9984093  46.1705637
   5.7336986 101.8643761  47.1438980  11.8220234  79.8887873  34.0848136
  11.4621055  79.9740076  33.2019591  11.2632287  80.4464245  34.6261287
  50.0129128  60.9405851  16.5969348  49.5712805  60.5950785  15.8211672
  50.6185770  61.5981245  16.2548149  36.0653377  50.4824924  24.9058843
  36.2168193  49.6709108  24.4215059  35.3214169  50.2862453  25.4753566
  21.1240625  89.3151283  18.4690118  20.7881284  88.5015011  18.8450396
  21.5353560  89.0472889  17.6472259  17.6944470  79.4521618  34.0661740
  18.6162400  79.2426634  34.2166376  17.5523686  79.2562151  33.1400800
  73.2504225  66.3740969  22.0036340  73.0962896  66.5883446  21.0835409
  72.3955774  66.4808178  22.4208593  25.9844923  78.2613659  26.6983008
  25.7601428  77.4623775  26.2213135  25.6240749  78.1263018  27.5747061
  61.9706202  86.5779877  28.6048961  61.1670780  86.9294739  28.2214689
  61.7188883  86.3164139  29.4905806  30.3809023  98.9410305  54.8303509
  31.1843395  99.4418240  54.9715137  29.6772861  99.5798492  54.9446344
  19.4451320 109.2217922   0.5601529  20.1715183 109.0231991  -0.0307417
  19.2260790 108.3808517   0.9614839  27.8188396  89.3417263  31.2981486
  27.6347375  90.0624371  30.6957245  27.2575212  88.6276817  30.9960008
   6.0972065  76.9857550  32.4932051   6.5588450  77.1527386  33.3149338
   6.5382344  77.5441694  31.8529677  13.1643820  95.8353901  28.8377929
  13.1279075  96.1422634  27.9318476  12.2624755  95.9050369  29.1507578
  42.7235937  74.2187214  33.1788778  42.4452686  74.8160696  33.8731003
  42.6830864  73.3503723  33.5795760  36.0468292  98.2586098  24.2079258
  35.3094602  98.8369751  24.0129685  36.2471628  97.8360939  23.3727145
  99.5620441  64.2885733  54.0765285 100.2208900  63.5983849  54.0003824
  98.7271404  63.8210630  54.1009617  76.7417479   9.6676254  34.7918963
  77.1618891  10.0214112  35.5758286  76.9157600   8.7271720  34.8306084
   5.0538540  74.1045332   8.6893648   5.3854895  74.5569468   9.4649756
   5.2131450  73.1774426   8.8664412   9.5109016  53.6215305  93.4513378
   8.7204307  53.2971239  93.0198860  10.1372361  52.9015732  93.3765125
  50.8519220 102.6714611  38.4278989  50.2542305 103.4022331  38.2698417
  50.5075884 102.2459507  39.2131448  62.9525375  87.5398445  15.3305209
  63.0718470  87.1062374  16.1754906  63.6650705  88.1774426  15.2857804
  55.9256554  95.4283047  49.3643522  56.1404610  95.3328037  50.2922344
  54.9808264  95.2812290  49.3208647  30.2766657 104.4830227  45.1653719
  30.1371074 105.4216099  45.2911663  29.6495080 104.2366314  44.4855261
  34.1348505  94.7969341   5.8538789  34.1803384  94.2841911   6.6608876
  33.2215476  94.7260380   5.5762327   5.9020752  90.9537792  33.8101554
   5.3474563  91.5777588  34.2784238   5.8505911  90.1511288  34.3291378
  26.9655633  49.7061729  18.3666563  27.0153809  49.3191338  17.4926150
  26.6214800  49.0049028  18.9198792  26.4218211 105.8456421  60.3305149
  25.9210181 105.0300407  60.3448868  25.7613659 106.5304184  60.2250385
  43.9955759 104.3348408  44.9479437  44.5881939 105.0185776  45.2602673
  43.3661985 104.2198277  45.6599045  54.4994640  11.5075266  49.4973516
  54.3812180  12.2933960  48.9638186  54.9648619  11.8141580  50.2755690
  30.1701760 103.8294697  36.3567924  29.2672873 103.8424110  36.6743731
  30.6837511 104.1885090  37.0803666 116.0548496  51.0086393  87.9873466
 116.2277794  50.0953531  88.2158947 115.1332760  51.0205030  87.7289200
  63.4267902  82.0519447  17.2715533  63.8922501  81.8472481  16.4605784
  62.6979494  81.4317894  17.2924602  45.8919382  89.2047405  36.4319038
  46.0408497  88.5295486  35.7699513  45.7139826  89.9989510  35.9281230
  10.6614733  86.2717533  50.4522753   9.9392140  86.1828518  51.0741043
  11.4438772  86.3297558  51.0006523  82.2991753  19.0389419  36.5275097
  82.1142292  18.1880856  36.9250917  81.4833450  19.5303845  36.6231036
  68.0801773   7.0091224  20.1634979  67.4973249   7.1619201  20.9072542
  67.5073910   6.6685927  19.4763410  56.6014862  97.3139858  55.9915447
  56.6092348  97.8145313  56.8074036  56.5672684  97.9783249  55.3032780
  35.2157402  88.6788750  44.8470545  35.8925247  88.4862995  44.1981268
  35.7000947  88.8496876  45.6548023   8.1992179  72.0037746  88.9203644
   8.1170762  71.6625929  88.0298138   9.0294653  72.4801302  88.9187241
  88.4778309   1.9115093  17.5632334  87.8795719   2.6573321  17.5178289
  88.6754608   1.7070021  16.6492569  58.5150909 100.1656628  62.3136520
  58.4399366  99.2128849  62.2607231  57.6213646 100.4838562  62.1862507
  40.9316730  81.2073326   9.5802879  40.9563398  82.0538330  10.0264466
  40.8074427  81.4268017   8.6569065  50.2110434  83.7752914  65.3980255
  49.3084002  83.6533928  65.6923151  50.2907515  84.7182465  65.2540588
  29.2161560  89.9138546  39.5278502  28.7859845  90.7249260  39.7986794
  29.4144106  89.4623852  40.3482771   7.7278942  82.0228672  16.5705621
   8.3891857  82.7025986  16.7005503   7.3998755  82.1742153  15.6841493
  23.2656765  89.2881775  56.1858892  22.7637839  90.0789928  55.9885550
  23.2279873  88.7732315  55.3798819  39.8464966   4.3871194  21.0214400
  40.2500534   3.5430235  21.2236190  40.4802895   4.8258016  20.4539061
  53.4355497  93.4617138  34.3697977  54.3233728  93.2648563  34.6685481
  53.3423615  92.9688168  33.5545611  46.2049770  61.3683414   1.7704667
  47.0027637  61.8559265   1.9754614  45.5304718  61.7721891   2.3165283
  32.9044271  85.7383347  22.6492739  32.0595646  85.4231930  22.3281384
  32.9193974  86.6659260  22.4135375  63.6893415 101.7273903  33.2764578
  63.7895775 102.6740837  33.3762097  64.5599461 101.4196014  33.0243778
 114.7852516  99.9712944  25.7552862 114.8844147 100.8228779  25.3296065
 115.4986572  99.9375725  26.3925862  28.2615161  77.9231167  24.7251129
  27.8608298  78.7913465  24.6819639  27.5204802  77.3198938  24.7818398
  22.2404957 105.0331974  41.3420534  21.9462109 105.4545975  40.5345535
  22.1231866 104.0970993  41.1802149  17.0830381  73.1725311  15.6609261
  17.8003192  73.5951328  16.1333108  17.4747920  72.8881502  14.8351610
  43.8825369  93.1302738  40.1709843  43.2127190  92.6953506  39.6433330
  43.4298897  93.8755989  40.5657434 104.9555874  27.4293065  74.6552467
 104.9179363  27.0136213  73.7938404 104.2491913  27.0160651  75.1516914
  13.6102819  74.0705967   3.0175194  12.8541076  73.8645220   2.4680065
  13.5237682  75.0056362   3.2031187  94.7467709   3.3689967  18.2208979
  93.8756752   3.0002892  18.3674335  94.7895241   4.1233549  18.8085616
  88.8112831  49.5737982  91.0370159  89.1190052  50.1631212  91.7256641
  87.8611755  49.5482969  91.1504841  33.5786223  94.0392494  55.7623339
  33.7517738  93.4088707  56.4615250  32.7062011  94.3808079  55.9584284
 104.0697479  94.6119213  41.9394112 103.9781380  95.4796505  41.5458345
 104.3150043  94.0427399  41.2099504  43.5274458  95.2632332  64.3036127
  43.1536055  95.1181507  63.4344578  43.3464098  94.4532585  64.7804642
  34.1481137  76.6121244  15.7340014  34.5206213  77.1349525  15.0239873
  34.1062546  77.2133398  16.4776516  25.8744621  88.6237812  54.3489790
  26.8279505  88.5759354  54.2796659  25.5943918  87.7123356  54.4329882
  18.0803132  76.5716934  62.9869652  18.1552494  77.5253868  62.9540348
  18.9675283  76.2682295  63.1792974  39.6793032 108.1612206  30.9368610
  39.1402984 108.7679577  30.4293370  40.2218533 108.7258434  31.4873791
   1.1351175  75.4298210  51.6890049   1.9709882  75.2844095  51.2458277
   0.6949386  74.5805264  51.6547632  29.5878839  97.5248051  28.7362671
  29.4382215  96.6835308  29.1676545  29.4040585  98.1768036  29.4125342
  45.9888840   3.8360205  43.1240702  45.7571173   4.7646090  43.1395817
  45.6281090   3.4854829  43.9384413  20.4459691  84.2980194  32.5059104
  20.7253814  85.0417328  33.0398130  20.0296640  84.6952915  31.7409921
  37.9510474   0.9156021  27.7529454  38.0773878   0.2779187  27.0503569
  37.0267630   1.1572991  27.6936817  43.3264112  70.4516506   8.2120311
  42.6297903  69.9054050   7.8479326  43.7241220  69.9098635   8.8935930
  38.2958746  88.5459328  12.6942408  37.6860380  88.4317684  11.9653392
  37.9926348  89.3377304  13.1384635  22.2090578  94.7239017  26.5711975
  21.4525771  94.4881821  26.0341620  22.0662832  95.6434059  26.7956185
  23.3806252  70.8371258  27.8243637  23.9901423  71.2386799  27.2051120
  22.7541471  70.3676939  27.2735524  32.7437997  89.3929195  43.3449745
  33.4191799  89.5943642  43.9926720  31.9395542  89.3059158  43.8566875
  73.0399466  14.6544111  43.5728121  73.7898207  14.3329716  44.0734148
  72.4860334  15.0872266  44.2224884 113.7800503 104.0080166  26.2578773
 113.6806297 104.0489960  25.3067374 114.0951633 104.8778534  26.5034580
 111.7741776  61.5194178  21.6987967 111.1120987  61.7450428  21.0453606
 112.5846577  61.8992805  21.3596106   2.4529959  46.6205931  83.7498379
   3.2009062  46.1673498  83.3606911   2.3596047  46.2273359  84.6175098
  36.9416285  88.6193371  22.8704238  36.1383486  89.0694046  23.1319833
  37.3916197  88.4340572  23.6946869  50.4090786  99.8191452  26.8278360
  50.6303596  99.0855789  26.2541175  51.0382748  99.7592545  27.5466967
  10.3386128  74.2824411  12.4373269  10.6192255  73.5926485  13.0387211
  11.1544275  74.6611834  12.1098638  74.7199821  36.6832232  46.2771463
  75.3474331  35.9687281  46.3868189  74.3628979  36.5556073  45.3982639
   2.8195521  91.4690685  24.6199799   2.2817844  90.6983376  24.8016500
   3.4213522  91.5216446  25.3624797  22.8964806  76.1893225  15.8777845
  22.4184179  75.3869295  15.6683815  23.5149646  76.2951946  15.1549435
  20.2255058  85.8389568  44.9946260  21.0357261  85.3855896  45.2275229
  19.5426726  85.1756287  45.0944996  33.1586289 102.9350185  20.9405613
  32.7230239 103.7752056  20.7971835  33.2829285 102.5766182  20.0617361
  38.1894517  97.8280640  41.4666033  39.0662670  97.4843121  41.2955523
  38.0532598  98.4865761  40.7853889  30.9219623  85.1350117  27.8922296
  30.3792167  85.8742523  27.6180506  30.3382492  84.5933056  28.4233260
  33.0842710  97.0181751  59.5958090  33.7544703  97.6568031  59.8391485
  33.0269265  97.0826054  58.6425018  77.7875996 105.2843285  19.4436347
  78.2099152 106.1420345  19.3966448  78.3920002 104.7475243  19.9562538
  77.0990753  13.7905431  31.9369555  76.8656778  13.6947525  31.0136032
  76.2693405  13.6961210  32.4047780  24.6847534  91.6308212  26.7971563
  24.4285345  90.7961082  26.4049268  23.9304423  91.8878555  27.3274183
  26.7478323  92.7081490  22.2225213  27.2672629  93.1491661  22.8947735
  26.9012809  91.7756653  22.3746634 109.9331951  68.2308149  46.7061996
 109.7300911  68.7395191  47.4911880 109.9708080  67.3243237  47.0113182
  34.8590184 108.9706218   7.2122687  34.9682952 109.9183522   7.1341872
  34.1711188 108.8621411   7.8689760  34.8903704  78.0305719  13.5397828
  35.4191375  77.5590754  12.8961015  35.4102969  78.8045979  13.7560868
  48.3810711  87.3893261  36.7503333  48.9205551  88.1800175  36.7510605
  47.9020166  87.4269867  35.9224939  51.3360405  95.8247280  26.8198347
  51.1049700  96.6547775  26.4028740  50.4967165  95.4466915  27.0822430
  27.4862909  88.1013298  21.8100119  26.5357757  88.2010174  21.8630624
  27.6424932  87.7593803  20.9297252  47.0669365  66.5604973  11.4308512
  47.5885153  66.7099047  10.6422675  47.4767971  65.8033895  11.8492198
  19.0084696  81.4559746  41.8249846  18.7102664  81.9513226  42.5878286
  19.9629939  81.4576626  41.8964815  57.6522923  93.0925655  43.7052298
  58.4970713  92.7966022  44.0443230  57.1081305  93.2066917  44.4843960
  26.2300491 103.8761711  16.6413510  26.3606834 104.4954300  15.9232378
  25.4271317 103.4085751  16.4113212  15.0899649  99.9330902   5.9392816
  15.0778461  99.4321728   5.1237065  14.8536325  99.2971230   6.6145033
   9.2782438  47.8384161  55.6035233   8.7975055  48.5941982  55.9410381
   9.6281862  48.1331396  54.7627449  64.9800920  11.4732718   4.8901376
  64.4151831  10.7189369   5.0577277  64.4922829  12.2197878   5.2379704
  91.9018269  15.5867207  52.8078032  91.3932705  15.7370615  52.0109320
  91.6528320  16.3046646  53.3898592  45.1587439   3.3045426  17.2038114
  44.9076509   3.9713395  16.5646195  44.4027424   3.2348549  17.7867687
   6.2365121 104.6949768  59.0210581   6.8603086 105.2886868  58.6031914
   6.2057573 104.9832058  59.9333143  58.7252140  37.8760099  17.2368670
  59.4188595  37.5724912  16.6512346  59.1368437  37.9056478  18.1005311
  14.6341074  41.7647886  89.7202682  14.9809217  41.2564230  88.9871216
  15.3249633  41.7327118  90.3820324  27.3262382  97.3560524  31.3309431
  27.5324583  96.4311790  31.1955833  27.6230907  97.7873993  30.5296612
  97.6285362  29.9907184   4.5003131  98.5132980  29.7171497   4.7423425
  97.4606895  29.5493150   3.6677128  48.9810467  88.0543613  21.8890142
  48.8406420  87.5780392  21.0707021  49.1148710  88.9624691  21.6176224
  46.7682409  19.4872510  46.3867426  46.2985516  18.6562276  46.4576101
  46.8446445  19.7969127  47.2892427  15.3670859  62.7639627   5.9855759
  16.1789703  62.6312351   5.4962295  15.5973363  63.3988762   6.6638839
  11.5545607  98.5339260   3.2817855  12.2645783  97.9131126   3.1183976
  10.9624708  98.4217739   2.5380892  24.9777746  81.0784626  49.8455954
  24.3415380  81.6108990  49.3681622  25.4528499  80.6038952  49.1634464
  44.3900251  95.7293224  41.9501400  44.5752907  96.6164589  42.2582102
  43.8666344  95.8550644  41.1586332  52.4502087  76.9244957  12.2539353
  51.8470097  76.5433884  11.6158617  52.1100807  77.8057957  12.4083900
  27.9658771  84.8924828  38.3441114  28.3691192  84.4961452  39.1164708
  28.1474233  85.8281326  38.4326291  41.2068176  24.7410750  47.6228476
  41.4862585  25.4807973  48.1622458  40.8753443  25.1422024  46.8194437
  47.3874044   3.3897966  86.7979240  47.2838449   2.4535501  86.6277695
  46.8231821   3.8145050  86.1517715  83.0413628   2.3727858  11.9624841
  82.2730160   2.6932535  11.4900589  83.3898640   1.6749929  11.4076304
  75.3649664   8.9684778  50.5353737  74.5866489   8.4581679  50.7590675
  75.0318193   9.6949124  50.0085545  77.5860786  22.9817295  45.1659679
  78.0894947  22.5022984  45.8239555  78.0510235  23.8125730  45.0671959
  99.8384666  23.9964557  26.2527871  99.7861099  24.7659683  25.6859159
  99.7808933  23.2527351  25.6529546  78.8293934  97.7109241  23.4256673
  78.9824677  97.4494648  24.3336558  78.2078409  98.4362984  23.4868312
  70.5621767  24.5449519  26.2587285  70.5520630  25.1943064  26.9619131
  70.2808857  23.7322998  26.6790962 102.7826118  11.5364742  15.6548297
 103.2010746  11.4206374  16.5078878 101.9778824  11.0212040  15.7108605
  50.3301191  13.8258624  60.9122133  49.7040272  13.9840412  60.2056551
  50.9654617  13.2160175  60.5371714  53.6051464 103.7072182  61.3256645
  54.1471910 103.3549690  60.6197357  53.2162666 102.9353333  61.7369938
  24.2831182  91.5469360  34.3941355  25.0660157  90.9972191  34.4276381
  24.6189237  92.4431705  34.4093585  63.1969309 104.4777203  33.2518053
  63.2846880 104.4565010  32.2988725  63.1109047 105.4071808  33.4637666
  16.7845523  52.8941059   3.3200461  17.0356464  52.0576954   3.7119696
  15.8649659  52.7797604   3.0802169  97.8873062  90.0420761   6.4168817
  98.4360027  90.7887077   6.6571027  98.0905056  89.3747902   7.0723677
  65.2293587  17.8932643  10.3029037  65.7623577  17.9059219  11.0978746
  64.5082855  18.4948337  10.4883909  63.1376362  12.0218492  20.9727740
  62.3500395  12.2587228  20.4830647  63.8314915  11.9986761  20.3137922
  55.9558678 105.8762455  45.3575373  56.8923235 105.9326172  45.5475569
  55.6770563 106.7862034  45.2551746  43.0806112  96.3593388  39.6308684
  43.6170340  97.1254730  39.4270873  42.6374578  96.1515713  38.8082623
  77.2925329   1.9360025  62.9991102  76.3518143   1.7647633  63.0433035
  77.3580503   2.8828204  62.8747082  37.7818799  86.4061165  21.1162424
  37.7723527  85.4936790  21.4053702  37.2561622  86.8694782  21.7682743
  22.6116395 103.4154510  27.1104383  22.9319954 102.9248905  27.8673744
  23.0792952 104.2496777  27.1502876  79.5129013  15.0285816  32.4897242
  78.7059689  14.6014714  32.2022009  80.1011658  14.3061209  32.7093291
 113.6876869  83.9385033  85.8794498 114.1580486  83.3466816  86.4665985
 113.8679218  84.8125362  86.2255955  76.3300610  17.1257532  46.8674564
  75.6104851  16.6613412  46.4399481  76.7567873  16.4608097  47.4078131
  30.2165866  82.4108887  50.5862188  29.3922687  81.9565010  50.4122686
  30.4781199  82.7661896  49.7367525  53.5232544 102.6213169  15.5514169
  53.5882902 103.4215641  16.0725892  54.4302416 102.3410988  15.4286075
  46.7683935   9.5314044  36.3366961  47.5923443   9.1207546  36.5988135
  46.9741297   9.9784380  35.5156803  31.7260718  66.1937332  92.6510143
  31.3918805  66.9445276  92.1602440  32.6529551  66.1476469  92.4164963
  25.7073188 108.3425522  53.6974621  26.6025782 108.4884167  53.3917379
  25.3152490 107.7790356  53.0304146  58.5900211 107.4328423  13.4913695
  57.6685715 107.5416470  13.7265801  58.7584305 106.4979267  13.6088812
 104.4894695  13.7532198  47.2359943 103.8701248  13.2204294  46.7372131
 104.9535179  14.2646158  46.5731478  93.2209301   9.0561885  30.7566953
  92.4231243   8.6268044  30.4478860  92.9187393   9.8858863  31.1261678
  79.2358971 100.9511089  41.7902040  80.1756096 101.0729885  41.9255257
  79.0989399 101.1535454  40.8647346  13.8187373  72.6992083  82.6829147
  12.9086590  72.5168657  82.4489498  14.3324649  72.1390867  82.1010399
  92.6089191  20.6936765  52.2198772  93.3259583  21.3256311  52.1677256
  92.5971413  20.2732968  51.3600063  31.4246368  37.2843361  77.3605490
  30.7936883  37.2986460  78.0802202  31.1068153  36.5953159  76.7770481
  89.8682690  58.5063124  91.9679642  89.7024155  57.9170418  92.7038193
  90.6246376  59.0249062  92.2421741  72.6193714  15.6219161  27.0052385
  71.8519163  15.6218314  26.4331889  73.0788851  16.4333940  26.7894101
  67.5617695  97.0319462  24.7051620  67.6349354  97.3052883  23.7907434
  68.4013557  96.6148090  24.8983622  93.9149666   4.3477327   5.3618842
  93.6818218   5.2326214   5.0810832  93.6063480   4.2943653   6.2663954
 110.7279396  59.0693092  74.8022795 110.8182812  58.6488485  75.6574297
 110.5432701  59.9864626  75.0046396  13.3319533  99.2916203  40.5566120
  12.4384153  99.0546131  40.8049011  13.2661736  99.5413303  39.6349001
  81.6493320   8.3904147  37.3991370  82.5630474   8.1469321  37.5476909
  81.4015198   7.9173797  36.6047454  51.4014387 105.3227997  30.0955701
  50.8888483 104.9240685  29.3923640  52.2739887 104.9404335  30.0023627
  74.5378399  16.8463206  38.0438447  74.3251228  17.1087539  37.1482372
  74.0631056  16.0250700  38.1719375  37.8420258 108.4003162  17.5373125
  37.6017451 107.4738598  17.5238836  37.2488165 108.7923431  18.1781352
  89.5041275  77.5184870  83.0660725  89.2579842  78.3742905  82.7150059
  89.4393158  76.9250250  82.3178577  60.0847483  20.1254368  24.7649217
  60.4629850  19.2752635  24.5404768  59.1515875  19.9485409  24.8838830
   0.9546516  43.6154222  85.1605988   0.1606338  44.1358614  85.0384903
   1.4312048  44.0656137  85.8580589  30.3217673 103.4539032  73.9897728
  29.6748447 103.3211803  74.6826744  30.0920939 102.8088379  73.3209133
  66.9032001  27.0978737  50.3301859  66.5378046  26.2816191  49.9889374
  67.4972010  26.8211436  51.0279083  96.0514259  14.3805015  51.0505295
  96.9086838  14.4551814  51.4697695  95.6454754  13.6213374  51.4689875
  25.6759644  13.3056784  65.1275444  24.7785735  12.9902995  65.0205088
  26.0451031  12.7494431  65.8135271 100.7472134   0.7665294  87.7071095
 100.9615517   1.6651371  87.9576969 101.4996624   0.2509777  87.9973698
  24.7013855 104.9627686  30.2277136  24.8069668 104.0542889  30.5100942
  25.4891968 105.4049873  30.5439901  56.8878078  19.9655378  25.8107281
  57.0572424  19.0309846  25.9296131  55.9419012  20.0221562  25.6754804
  71.1826801   3.9495116  34.7867250  70.7123518   4.1747826  35.5893922
  70.4954004   3.7046796  34.1670990  90.5859661   2.1155231  29.4570827
  91.4063549   2.0689857  28.9661384  90.0293350   2.6967299  28.9388180
  47.9997635 106.3203144  57.8682709  47.8962994 107.2711754  57.9054499
  47.2432661 105.9782600  58.3446550  28.8709474  99.3359184  14.9255002
  29.7895288  99.1483688  15.1185298  28.3819723  98.6964035  15.4433358
  45.6284761  98.8481045  50.4342604  45.1978588  97.9938507  50.4018068
  44.9089575  99.4771671  50.4872322  70.2799892  84.1464520  60.8553886
  69.6780205  84.0226746  61.5892458  70.3962946  83.2692337  60.4904270
  58.3460140  99.3923283  25.5681467  57.5527525  99.4301128  26.1025095
  58.5262680  98.4570980  25.4728293  92.5111103  18.8145256  30.1872325
  92.5974083  18.6951208  31.1330271  92.1958923  19.7127569  30.0869942
  40.9835148 106.7522907  47.0392275  41.4829636 106.0138416  47.3877668
  40.3766251 106.3569164  46.4134502  32.6244283  61.0186148  15.8171093
  32.9029870  60.4932213  15.0670457  33.4412265  61.2913036  16.2350965
   7.8498507  71.4452267  47.3799944   7.4267828  72.1825171  47.8200483
   8.7509286  71.7356348  47.2387409  72.7458525  21.0168123  13.0509734
  73.4763288  21.4754844  12.6359367  73.1618357  20.3908467  13.6437273
  63.7146473   8.2787627  21.3802409  64.3300009   8.5735768  20.7089305
  63.7448120   7.3233676  21.3298297  65.4430866  24.7303700   4.2970085
  66.1931849  24.8745108   4.8739019  64.6806955  24.9233317   4.8426813
  66.6773415  27.8103256  21.9730902  66.5484095  27.0139790  22.4883032
  67.5771713  27.7455616  21.6531873   0.7268059  12.3677957   9.2843300
   1.1480579  11.7760170   9.9076897  -0.1836304  12.0739484   9.2528391
  87.1057796  29.9405098   8.5882205  87.9106426  30.1236939   9.0728462
  86.4463425  30.4996562   8.9989901 106.6188812   9.3878818  35.9129047
 107.2461987   9.7042161  36.5630126 107.0809460   8.6847073  35.4565406
  98.8785553   5.2405393  12.3680079  98.6604500   6.1603135  12.5186062
  98.2594490   4.9544474  11.6963720  30.4522729  82.8377056  35.4151297
  30.1776433  83.7452316  35.5463290  29.8056030  82.3200512  35.8947945
  32.6609635  95.9261799  28.2212996  33.5744143  95.9685230  27.9383707
  32.5820136  96.6162205  28.8799739  64.3099070  37.2942519  24.3739724
  64.5288706  38.0358219  23.8097382  63.4690523  36.9803023  24.0413618
  49.1683578  95.9257030  32.0849109  49.0077209  96.5618324  32.7818847
  49.9950886  95.5085564  32.3272538  59.5960426  18.4341729  79.1983700
  60.2349567  19.1409218  79.2907143  59.1993427  18.5806167  78.3396387
  46.2293530  84.5336056  24.3927956  46.5147018  83.6602783  24.1242695
  47.0331860  84.9738216  24.6690154 102.0285034   1.4834023  31.5563560
 102.9358768   1.7876992  31.5736365 101.7119122   1.6233340  32.4487805
  36.1653996 109.0716513   1.6369088  35.5233575 108.5338863   2.1003993
  35.6908084 109.8724709   1.4140058  25.1413751  98.2489014   6.3167411
  24.3406248  98.7216377   6.5437806  24.8895574  97.6907253   5.5810314
  14.1807199  29.1178131  85.8471966  14.9926114  29.0254998  85.3486538
  13.7805748  29.9181437  85.5072212  65.0862885   6.9426620  42.1652222
  65.9047985   6.6605800  42.5735140  64.4956350   7.1058792  42.9005623
  62.7865839  97.2020435  38.2347536  63.3149576  97.5078869  38.9719844
  62.2720242  97.9664040  37.9754734  70.7368135   1.2953284  40.0503969
  70.3545475   1.8971717  39.4117332  69.9834776   0.8646360  40.4544020
   1.7751476  98.1349659  36.4627862   1.4307913  98.6313629  37.2052431
   1.0461676  98.0931377  35.8438587   7.4688220  93.6214256  36.9655490
   8.2062507  94.1756821  37.2209382   6.6940349  94.1478729  37.1624875
  81.4169502  28.6157560  62.1594000  81.7518520  29.2010856  62.8387117
  82.1837139  28.4026790  61.6275024 111.4132118  73.7369013  94.4772530
 111.6772366  74.3332911  93.7766552 110.7265949  73.1968069  94.0859795
  99.4513798   2.4559918  31.0440159 100.3217030   2.0841195  31.1871290
  99.5188618   2.9064301  30.2021241  63.2359362  95.0001049  41.8091059
  63.8916779  94.9267960  41.1156654  63.6875391  94.7011757  42.5983667
  31.4275122  88.1806278  22.2810817  31.7544580  88.9908886  21.8901658
  30.6386161  88.4444714  22.7546406  78.5341787  52.9641438  22.4421573
  77.8328133  52.5321245  21.9546366  79.3294716  52.7579260  21.9510221
  75.8610868  49.9206591  37.0790386  75.1536751  49.2760468  37.0624590
  75.4560614  50.7116461  37.4347401  83.8702583  19.6984088  51.4100838
  84.5071125  20.0434875  52.0358467  83.0324078  19.7453046  51.8705463
  14.8157275  96.0478306  60.1721239  15.0080311  96.8260193  59.6489811
  15.6228685  95.8809757  60.6588602  91.7802620 100.9455585  13.1703126
  92.6853275 101.1545086  13.4014380  91.2731266 101.6920280  13.4894419
  46.0150242  97.8405666  42.3049021  46.0735512  97.7303791  43.2539368
  45.4757547  98.6226273  42.1873856  85.1124859  93.5165596  38.5116053
  84.3120766  93.9950466  38.7275553  85.8117867  94.0180016  38.9308548
 112.0444775  22.5081038  90.3083611 111.5908909  22.4818921  89.4658661
 112.9589367  22.6787949  90.0828362  60.5466747  15.2487743  34.2454720
  60.3026772  16.1270630  34.5375490  61.2327957  14.9758077  34.8545337
  64.5657778 102.5592422  76.3007212  65.4070902 102.8851700  75.9810495
  64.3308020 103.1577969  77.0097685  10.9494126  86.5231133  31.3762689
  10.4168355  86.3615799  30.5974865  11.4451981  87.3148155  31.1673999
  88.2412434  17.5298536  42.3193550  87.9719925  17.5950265  41.4031172
  87.9736900  18.3629334  42.7074575  50.6621647  98.2393456  42.9596710
  50.6353951  98.5028744  42.0398569  51.0017872  97.3445797  42.9426765
  36.7719603  98.1200218  10.0450182  37.0983481  98.8377666  10.5877399
  36.7711425  98.4735775   9.1555077  32.7504826  94.3055916  52.6443863
  32.5127339  94.6332741  53.5117579  33.2276702  95.0288391  52.2376394
  59.9153948  88.0257320  32.3603511  59.7008085  88.1458092  31.4352751
  60.8700943  87.9589176  32.3780513  34.2238927  91.0294342  41.6703176
  33.5488605  90.6128883  42.2060966  34.4656801  91.8163013  42.1587944
  45.9609699  96.6682148  19.2060804  46.3803434  96.0459995  19.8003948
  45.5933046  96.1238575  18.5098541  83.3705425  14.4359887  20.4603362
  83.7016392  13.5902071  20.1582408  83.4622002  14.4028175  21.4125609
  29.8935342  92.8878212  29.5830894  30.4402351  92.4011326  30.1999211
  30.4637361  93.0457592  28.8306522  93.8235855  26.4452791   4.7520763
  92.9228497  26.6003084   4.4677091  94.1944599  25.8793521   4.0750143
  25.6764221  93.4923649  36.8959403  26.5757036  93.2123184  37.0665336
  25.7583618  94.4044590  36.6173840  77.9498625  15.3674889  18.4373987
  77.1672249  15.8336699  18.1434870  78.5965300  15.5280828  17.7501845
  62.5183535 108.0180264  42.6780319  62.5085402 107.8615475  43.6223078
  63.4257746 107.8588104  42.4182892  16.2995493 105.7851410  16.8937719
  16.3262725 105.4105377  16.0133219  17.0521986 106.3756752  16.9257569
  41.3885069  98.8847637  17.1445894  41.8761873  99.3440723  17.8282833
  42.0630741  98.4712887  16.6058636  40.3347874  85.2489662  26.0916567
  39.5333219  84.7270775  26.1305475  40.8668327  84.8211956  25.4207039
  71.5666628   8.9617670  10.0030160  71.8285179   9.4831282   9.2441702
  71.9478512   9.4203740  10.7517540  91.3955498  56.4764977  16.6147470
  91.1680317  57.3290777  16.2438428  90.8564854  56.4064884  17.4026155
  76.7454529   5.9099746  53.5620117  76.5961552   6.4984238  54.3020582
  77.1841621   6.4541221  52.9080439  64.2118120  33.2632828  25.1896667
  63.3992815  33.0132604  25.6295705  64.6914482  32.4412823  25.0872421
  79.2572069   8.4890741  39.0094471  79.6475983   7.9821497  39.7213840
  79.9946976   8.7110019  38.4410405  85.8934402   1.6506834  14.1341221
  85.8623123   0.8293728  14.6247458  85.0040627   1.9994470  14.1942501
  46.1314106 101.7318439  17.8429341  46.1911392 101.9208050  16.9064736
  46.2731647 102.5779343  18.2675147  72.9663134   1.4503278  44.5002699
  73.1680250   2.3659422  44.3074131  72.2963572   1.4912736  45.1827049
 101.5964985  83.2638454  94.2972660 102.4040985  82.7930260  94.5030117
 101.0029984  83.0469322  95.0162506  83.1172180  14.6190560  84.8521233
  83.6758614  15.2401364  85.3194618  83.7170982  13.9362180  84.5519447
  95.2609444   6.0762984  35.3180385  94.7003746   5.9893596  36.0890293
  95.1389027   5.2563441  34.8394847  37.0160556  77.1391010  21.7833972
  36.0738850  77.2001266  21.6258478  37.3582339  77.9944754  21.5236402
  19.1974890 100.5054760   5.0420654  19.5129168 100.5362988   4.1388562
  19.2140281  99.5759392   5.2699459   9.3603629  74.4119883  91.7477322
  10.2221143  74.5327997  91.3489628   9.3492448  75.0236368  92.4839306
  58.8928032 102.5963879  35.3573179  59.7180986 102.1937943  35.0870562
  58.2820177 101.8632412  35.4325962  78.4142876  24.0931845  52.1100140
  78.9783192  24.1738176  52.8791714  77.5660372  23.8236547  52.4622345
  34.7795820  83.5371017  15.8549345  34.6061516  83.7412739  16.7738843
  33.9943957  83.0760765  15.5596948  80.1352119   4.5101300  60.4416323
  79.2793369   4.8776051  60.2210188  80.0049877   3.5624447  60.4074860
  83.3555889  11.9755661  56.5206051  83.9248085  12.7127588  56.2997723
  83.0820084  12.1458197  57.4219370  42.9740238  89.7559261  36.7885518
  42.8971529  90.3846455  36.0708928  43.9159346  89.6812725  36.9417167
  87.1187496   2.2770785  30.7305217  87.0014954   3.2195610  30.8497262
  86.3755417   1.8835403  31.1876869  87.5163460   6.0483533  48.2771635
  88.1585598   6.6857219  48.5894966  88.0405807   5.2992016  47.9939938
 111.1684799  87.8215790  41.3167763 110.3011417  88.1719303  41.1137676
 111.2465286  87.9107952  42.2666073  36.2057781  96.0059929  36.9358063
  35.3448725  95.9685040  37.3525405  36.3006830  95.1563549  36.5053034
  61.3664055  72.3118067  38.5644102  60.5744219  71.7826414  38.6591172
  61.0647964  73.2145882  38.6656618  70.1243162  26.9007969  28.0348158
  71.0604382  27.0482397  27.8999996  69.7034359  27.3451018  27.2988248
  78.6734009   2.1866208  17.8079045  79.3439245   1.6208047  18.1906319
  78.9313602   2.2769938  16.8905592  16.2205005  79.7459316   0.4444931
  17.0381558  79.9903727   0.0109932  15.6144428  79.5623446  -0.2732958
  64.9408674  94.6146584  53.3094025  64.5320320  94.4789505  54.1641951
  65.4702139  93.8294792  53.1697130 103.5619450  35.8633733  24.7428942
 103.9484215  36.0602379  25.5961895 102.6319408  35.7301879  24.9261594
  84.3711948  23.8173914  25.3002000  84.3417358  24.0269089  26.2337232
  84.7687912  22.9474950  25.2623963  63.8519526  21.5414095  31.7655444
  64.1239738  22.1450210  31.0742474  64.3265867  20.7318258  31.5770531
  98.1334591  17.8441846  31.6228914  97.5190353  18.2428098  32.2391772
  97.6616192  17.0909035  31.2677002  72.9394245  21.2636852  25.0237679
  71.9893265  21.3416028  24.9372959  73.0733204  20.9443283  25.9161329
  21.2591481  48.1936741  78.5035133  21.7181993  47.5472069  79.0397787
  20.4007053  47.8030777  78.3399725  29.8194170 107.1757603  28.2436562
  29.5261502 108.0855656  28.1939745  30.7749701 107.2318554  28.2451320
  29.8739314  92.7267170  22.9587817  29.6336412  93.6520767  23.0056357
  30.5638194  92.6916599  22.2961688  45.4870224  13.0252314  42.0911026
  46.2665033  13.5767198  42.0239925  45.7976484  12.2211158  42.5072050
  26.8897820  83.5049820  21.7344069  27.0106506  83.7861824  22.6413512
  26.1690521  84.0450573  21.4102221  40.7456446  79.9805069  80.9852314
  40.7439184  80.8706188  81.3372898  39.8300219  79.8078680  80.7660198
  46.9320440 107.3718357  42.4263096  47.1472788 106.7175388  41.7616320
  46.7428541 106.8606663  43.2131624  30.6419325  97.4431038   6.6790998
  30.1690269  98.2613373   6.5271139  31.4678693  97.5527477   6.2078893
  98.2746315  88.5811234  36.8253493  98.6760712  88.7424564  35.9715080
  98.9112568  88.9165497  37.4565554  38.1095552 100.0994205  11.3505697
  38.9039850  99.5826530  11.4849615  38.1840611 100.4242516  10.4532576
  23.1882453  82.9097748  31.4298797  23.8290048  82.8979015  32.1408772
  22.3870945  83.2418537  31.8349791  36.1276078  96.1584377  26.0833597
  35.8746743  96.8811417  25.5089355  37.0838690  96.1940861  26.1062598
  55.4028463  92.9398441  21.1490440  55.6107807  93.6271477  21.7819834
  55.8815145  93.1894112  20.3585815  28.3364511  72.6297045  87.4559879
  27.7431178  72.8646755  86.7425632  27.9594588  73.0495977  88.2291603
  24.6530342  83.0191612  54.8403740  24.6946239  82.9347515  53.8878107
  24.4111943  82.1455669  55.1479053  34.1129684  94.5654869  34.6616817
  34.2938614  94.4066811  35.5881214  34.6044207  93.8850117  34.2016125
  66.6474771  96.2528896  42.7402973  67.1809101  96.9657993  43.0916500
  66.8537760  96.2375450  41.8057203  76.4531612  24.9673223  32.8567839
  77.1571922  25.4729939  33.2628226  75.6597900  25.2567172  33.3073807
 113.3921051   9.3937290  76.2648487 113.2199669  10.2405787  76.6764879
 113.0367088   8.7519139  76.8796635  33.8848591  91.4275551  45.2667904
  33.1650686  91.9513130  44.9149323  34.4610524  92.0650101  45.6885529
  58.0864334  89.7577190  26.2881613  58.1486034  90.1673698  27.1510363
  58.0129957  88.8212776  26.4723372  74.1470814  83.7819481  36.0377192
  74.4746971  84.6391201  36.3100362  74.3733120  83.7229061  35.1095152
  69.1739464  99.1243267  20.1065898  70.0837135  99.1163158  20.4040670
  68.7259626  99.7051144  20.7215929  25.9812880  99.8696232  73.3868837
  26.3026333  99.5427799  74.2272091  26.0709238 100.8205509  73.4496498
  93.3045959   8.9681381  25.3026152  93.2868385   9.7765517  25.8148479
  92.4102306   8.8723236  24.9752545  81.5116215  30.2762508  10.4192078
  80.9537983  29.5205212  10.2349734  81.0360909  31.0205531  10.0502670
 109.8133183  61.6303301  74.8682499 109.9130535  62.5575638  75.0839472
 109.7067165  61.6158009  73.9171171  66.7372704  16.2346578  62.3112583
  67.0205736  16.2969542  63.2234478  66.1600018  15.4713774  62.2913408
  49.2575121 107.3255348  38.0993176  48.5582924 107.2943687  38.7522721
  49.2390490 106.4617920  37.6872039  84.2036629  36.9940305  54.6101522
  84.3851566  36.4278436  53.8600016  83.7105656  36.4396334  55.2149057
  43.1176138 100.4503822  50.8462238  42.6087093 100.5830574  50.0464439
  42.5785208  99.8656940  51.3789082  50.2535009  29.2678261  22.6502728
  49.4227409  29.0134525  22.2485757  50.8248615  29.4721389  21.9099784
  81.8712139   4.5394248  32.9996777  81.2794018   5.2640212  32.7973247
  81.8457890   3.9845610  32.2201204  72.7245045  74.4495153   9.6278453
  71.9203329  74.2436600   9.1512239  72.9638290  75.3259611   9.3265188
  57.8400946  49.3664646   3.1049359  57.1590424  50.0204182   3.2622552
  57.4805021  48.5551119   3.4635812  23.1352997  95.4053593  43.1682014
  22.2532105  95.2197647  42.8461695  23.7139058  95.1117039  42.4644852
  31.1692977  85.6632233  36.1347818  31.0641766  86.2172604  36.9082355
  31.0406566  86.2572956  35.3953481  58.6090279   8.2218355  31.8032622
  58.4200478   9.0047872  31.2860560  57.9764032   7.5728667  31.4952707
  66.7575026  28.1521726  38.9959145  65.8425379  27.9145169  39.1462183
  67.0786810  28.4240770  39.8556519  58.4965897  99.5914555  29.9408531
  59.4375753  99.4353580  30.0209308  58.4178638 100.2153492  29.2191982
  86.1518002  12.3269749  40.4857635  85.8210754  12.0697415  41.3463926
  85.5729198  13.0373693  40.2092457  36.5549254  77.1430206  31.9815612
  36.1760616  77.8771114  31.4980292  36.8002129  77.5152445  32.8286219
 112.1837902  62.4894047  90.7464790 111.5032196  61.9917917  90.2932262
 112.8788090  62.5917673  90.0963306  31.9959879 101.0841942  28.7473083
  31.8414211 100.6582260  27.9041600  32.3444486 100.3896332  29.3062329
  30.6209421 101.2950420  43.5035419  30.0458312 102.0594311  43.5379648
  31.1227703 101.3360119  44.3176174  15.3756595   3.8878584  49.4716024
  15.5917346   4.6701533  49.9791002  14.6841061   4.1731912  48.8744640
  66.3073063 105.1528263   2.7874118  65.4850435 105.2481079   2.3067492
  66.8697071 105.8448219   2.4394639  76.8576002   7.0739144  34.9175119
  77.7076197   6.8280226  35.2825308  77.0094109   7.1306294  33.9741302
  30.5899024  96.3409901  46.1376190  31.3793778  96.6384125  45.6854010
  30.7967424  96.4349174  47.0674706  44.7155190  98.8631821  44.8512697
  44.8909330  99.8041725  44.8491240  44.7549582  98.6143017  45.7747030
  52.7131081  93.5933495  20.8778000  53.4733152  93.0617714  20.6417036
  52.7281570  93.6212540  21.8344736  72.3214436 103.1904030   5.3350765
  71.8677711 103.9630413   5.6718892  73.2433605 103.4465313   5.3086305
  44.8114204  77.3999596  11.2001419  44.0007114  77.9052067  11.1393142
  44.6867943  76.8383265  11.9651723  37.1392560  93.7472916  35.8127236
  38.0625939  93.7766266  35.5620885  36.6986203  93.3561134  35.0583720
  12.7640891  54.8447418  38.2248807  12.1461821  55.0781298  37.5320935
  13.3836949  54.2496872  37.8027058  14.0380979  13.9584172  68.6417389
  13.4785926  13.7537313  69.3909311  13.8000834  13.3085966  67.9804373
  41.3792038  21.5160656  35.2996588  41.9011497  22.3008704  35.1326823
  41.3193846  21.0825944  34.4483328  56.1275530  91.4806843  74.9493074
  56.1633873  90.6004906  75.3237677  55.1925659  91.6737080  74.8802471
  87.9147339  31.3010144  14.5753968  87.4787140  31.7119527  15.3218889
  87.3270321  31.4609289  13.8369775  82.5641060 103.4505749  38.7227678
  82.5300503 102.5606251  38.3719707  81.9794369 103.4319115  39.4804239
  48.7078142 107.3157215  30.5975509  49.2413330 106.6242790  30.9893417
  48.2375860 106.8812466  29.8859620  56.2460566  99.1508293  33.4187531
  56.9528866  99.2345238  34.0587687  56.1977959 100.0108814  33.0013680
 110.2354431  21.1688900  45.2534771 110.8183670  20.4702210  44.9563360
 110.4365826  21.9086289  44.6802759  35.5144358  24.5007801  73.4466314
  35.2088737  25.3628349  73.7289858  36.2410164  24.2992425  74.0362883
  90.9641838  35.4455924  47.8409815  90.4054451  36.1881590  47.6115561
  91.3078594  35.6631565  48.7074566  63.4719181  92.5798512   6.1839181
  63.9127302  91.7544270   5.9824419  63.9123821  92.9007530   6.9708383
  40.4061365  85.3753281  16.0078204  39.9519372  85.2929401  16.8463588
  39.7484446  85.7368183  15.4136860  90.9772778  10.9350896  82.3456192
  91.8152142  11.2341595  81.9925594  91.0402966  11.1021149  83.2860184
 107.4242020  23.6288404  27.2049403 107.8687096  23.7051606  28.0492234
 106.4922523  23.6573839  27.4214816  96.5134525  91.3123512  32.6786304
  97.1078682  91.9292068  33.1056952  96.9270992  91.1255360  31.8358827
  68.8935423  11.6581762  30.1021481  68.8492966  10.7684100  29.7520185
  68.7831211  12.2224641  29.3368912  53.7657118 105.0841331  26.6813040
  54.1213226 105.7370281  27.2842145  54.5367527 104.6488762  26.3176060
 105.5968189  15.5950296  67.5567150 105.7549191  15.1417768  66.7285872
 105.7886410  16.5135193  67.3674679  10.2232683  10.4811263  21.8614388
  10.9610629  10.5006528  21.2519217  10.4922616  11.0516071  22.5814557
 114.1578007   2.9819539   3.1418508 113.6801052   2.1607003   3.2584062
 114.7851753   2.7970055   2.4429776 100.1118469   4.3175292   5.4399031
 100.7582855   4.2343023   6.1409163 100.2401257   3.5363474   4.9018222
   8.5909706  26.2616324  32.0815039   8.4623849  26.3485885  33.0260324
   8.8326740  27.1409845  31.7907286  66.4695501  97.0750237  14.8681259
  66.5517950  97.8474236  14.3087888  66.8882179  96.3729572  14.3700695
  32.5177717 103.8708973  12.8601646  33.1546044 103.2799721  12.4583173
  32.8165770 103.9658737  13.7645578 110.4881001  16.1911058  44.0949535
 109.7728348  16.6288066  43.6333895 111.2772179  16.4621568  43.6258411
  26.4349747  33.6013007  44.6083450  27.2266006  33.7158251  45.1341248
  26.0845184  34.4862771  44.5071983  74.2123413 105.3663731  54.2710257
  74.9339485 105.9710884  54.4437599  74.2149591 105.2557087  53.3202457
  95.4382610  17.3294961  21.8845892  95.6989098  18.2295418  21.6891074
  96.2284565  16.8121624  21.7290545  11.7177665   0.2144440  25.1449990
  11.0983264   0.9331852  25.2712393  11.6248190  -0.0225684  24.2222762
  24.2675900   9.9416524  61.6138411  24.9014664   9.2272687  61.5498972
  23.4188700   9.5221263  61.4727640  79.6534061  22.3456049  19.6387386
  78.7545919  22.6617312  19.5468950  79.7966814  21.8025637  18.8636184
  86.8210411  17.4501836  38.6951303  86.0848141  16.8744600  38.9018536
  87.1886921  17.0886779  37.8886676  66.0689878  11.3862348  27.6851892
  65.8771181  11.1097980  28.5812926  66.6954279  12.1031153  27.7846265
  46.9034004 105.7678127  19.7392499  46.7828894 106.6693306  20.0375319
  46.2889338 105.2569962  20.2662563  57.5865459  88.9879227  21.7139530
  57.5828695  89.5987606  22.4508977  58.4499454  89.0982628  21.3157034
  93.1187820   5.7386541  40.3390360  92.2980309   5.6523073  39.8541164
  92.8791714   5.5621588  41.2487984  85.4893589  13.8394320  55.3136683
  85.5943203  12.9690289  54.9294615  85.3940773  14.4234490  54.5612860
 103.3174706   5.2875990  22.9659700 103.4449673   5.8099097  22.1740294
 102.4300480   4.9386835  22.8824806  11.2931836  58.6907482  93.3605671
  11.7091227  57.8288937  93.3398914  10.5563402  58.6156940  92.7542210
  52.6135015 104.6981430  51.1634016  52.8074598 104.6431446  52.0991278
  51.7898607 105.1836872  51.1176586  88.6703205  84.2831612  52.9891157
  88.6070538  83.7535667  53.7839508  87.8904247  84.8378086  53.0081558
  64.5656395  84.5939732   0.8110178  65.0856495  84.9598980   1.5265045
  64.2484045  85.3584290   0.3301861   4.0009719  61.8817616  89.6948433
   3.8879570  62.2961521  90.5502605   3.9400321  60.9433365  89.8733807
  23.2348228  97.5495815  27.1247077  23.6886430  98.1361675  26.5195656
  23.8831687  97.3554611  27.8016090  76.5405703  12.0158422  63.1919479
  77.4901485  11.9379044  63.2839060  76.1894798  11.6224480  63.9908314
 111.9910717  25.7120562  70.6817865 111.2182331  25.5229521  70.1496267
 111.7246056  26.4425540  71.2399960  48.4840393  87.7135849  27.8785563
  49.2684364  88.1723022  27.5776625  48.3840513  87.9835796  28.7914300
  83.8362217  98.4623146  44.9531269  84.4107628  98.9363861  45.5542898
  83.5734940  99.1172409  44.3063879  93.5490036   1.3719697  28.5623264
  93.3456707   0.5583572  29.0237617  93.8867855   1.0876620  27.7130318
  88.8872337   3.5534444  45.2318621  88.7417603   2.6107314  45.1521015
  88.0336189   3.9072180  45.4817200  69.1197634  93.1424141  66.9846821
  69.0692663  93.6805916  66.1947155  68.9019918  93.7426853  67.6977634
 111.6878605   8.1890327  34.5676684 111.7547894   9.1254163  34.7545886
 110.9897327   8.1241757  33.9160275  41.4415932  97.5822163  32.0731688
  41.6335583  97.3359108  31.1683416  40.5317163  97.3162365  32.2059083
  95.8324051  14.7268474  45.4430389  96.3643646  14.4879484  46.2021017
  95.8346462  15.6840420  45.4406929  39.6881437 106.7285824   7.7911991
  39.1109896 107.4074459   7.4415207  39.1939259 105.9157944   7.6846200
  78.8236094  11.2782729  70.0755167  78.1070518  11.8863022  69.8936415
  78.8511944  11.2193811  71.0305023  86.5988159 100.8572197  20.0461912
  87.5007248 100.5557537  20.1552749  86.6775608 101.6763878  19.5573139
 104.3767738  52.1394253  91.7446136 104.6426678  51.5907383  91.0067368
 103.6676598  52.6805639  91.3973999   0.8870115   5.6301874  38.9399815
   0.9631155   4.6792576  38.8614154   0.3565441   5.8910263  38.1871200
  72.3318100  84.3998241   7.8990555  72.5154161  85.2442932   8.3106357
  73.1220579  83.8818741   8.0522293  26.9403338  54.8357010  93.5635853
  27.6903462  54.7569609  92.9740906  27.0147347  55.7170963  93.9294243
  68.5729742  26.7426682  52.2986126  68.3402348  26.2161326  53.0633497
  69.5099354  26.9104671  52.3995018 105.2204800   2.3905559  13.6842406
 106.0693741   1.9487631  13.6635935 104.7061062   1.9528221  13.0059791
  65.3726244  14.7780645  31.1674285  64.9615145  14.7188103  32.0298147
  65.7271147  13.9028943  31.0104418  56.9606829  95.1618767  51.8025684
  56.7907476  95.8049583  52.4909019  57.9147196  95.0904751  51.7717361
  19.4032657   4.1274008  23.2741880  20.2907228   4.0643179  22.9210973
  18.9167881   4.6195418  22.6128483  63.2899475  70.9751511  89.8237133
  62.6657104  70.2633858  89.6824837  63.7849569  71.0253716  89.0059853
 106.9884872   2.4427320   9.1026127 107.4362469   2.9557604   9.7753304
 107.6138306   2.3985876   8.3792609 108.1274223  38.6408401  41.4399147
 108.5692310  37.8813338  41.8196344 108.2960415  38.5710073  40.5002785
  82.0220566  97.3839092  41.0992622  82.6445389  97.8562737  40.5464268
  81.3332081  97.1019459  40.4974174 101.1375332  99.6249580  19.3111062
 100.7281113 100.4772282  19.1619325 100.4535389  98.9901066  19.0981662
 107.4900818  97.3667908  30.7340074 106.6889477  96.8771553  30.5478191
 108.0596256  97.1876335  29.9858332  69.6414804 100.2153492  12.7685225
  70.0037575  99.8789692  13.5881782  69.3391705 101.0975170  12.9844689
  72.0888805  10.8051479  15.1297224  72.4595261  10.2226555  15.7927108
  71.2350702  11.0564113  15.4820073  79.9902916  85.1532936  65.0514507
  80.4812717  85.4310608  64.2781353  79.1130972  85.5132294  64.9202681
  71.7508459  84.1449833  77.6977205  72.0039558  84.4771194  76.8364143
  72.3362875  83.4031296  77.8498697  43.5311270  85.9938335  37.7726912
  44.0519047  86.3300133  38.5020757  43.4287405  85.0610256  37.9614091
  53.3418608 100.3137493  20.9751248  53.0847597 101.1515617  21.3600802
  52.6628399 100.1299953  20.3259754   2.4113135  99.2267895  93.9926434
   2.6131627  98.3182907  93.7687588   1.4965597  99.3395615  93.7343025
 100.8013153   5.2466202  37.6025319  99.8707008   5.1148617  37.4213839
 101.2376308   5.0418991  36.7755175  98.6186886  94.6858120  26.0543370
  98.8638592  95.2471161  25.3187704  98.3290958  95.2944851  26.7339611
 101.5786934  11.9205666  30.4355240 101.3589859  11.0306835  30.7113314
 102.5156879  11.8871057  30.2427340  72.5328016 104.9362850  82.5845146
  72.2886658 104.0151596  82.4941254  72.2662020 105.3370190  81.7571259
  98.5961628  27.3670983  30.0188351  98.4282684  28.0464411  29.3657374
  98.1220341  27.6604462  30.7968974  93.6083794   1.3932881  25.5733252
  92.7158260   1.6298336  25.3210902  93.9179420   2.1395381  26.0866618
  99.0004921   5.9107584  15.2622116  98.9357662   5.0145388  14.9323153
  99.1247272   5.8101976  16.2059736  72.9568338  42.2455549  42.5178099
  73.5353327  41.8601131  43.1758404  72.8323746  43.1491470  42.8080988
  42.9324293  21.6720080  45.4297209  42.2221565  22.3047352  45.3229427
  42.5033045  20.8183026  45.3725052   4.6411279  13.0724108   1.6769136
   5.2057558  12.5812447   2.2737236   3.7523419  12.8822553   1.9771336
  61.7156076  98.4091091  23.6991191  62.3326159  98.8260078  23.0976796
  60.8923388  98.3748722  23.2119989  99.7600746   2.1695647  55.5909157
  99.9343967   2.8422174  54.9325943  98.8299370   1.9685905  55.4875183
  80.2159977  11.2660575  30.6937885  79.6636057  11.8607497  30.1864028
  80.9350681  11.0438645  30.1023531 109.9953175  11.1806726   8.1758779
 110.1569557  11.6078866   9.0170646 110.7635689  10.6268394   8.0369866
  73.3931971  64.6714592  41.1015701  73.4224129  65.2996778  40.3799582
  73.9846039  65.0356197  41.7602491  17.6309514  56.0127974  89.9643898
  18.1808650  55.5523443  89.3305016  18.0985284  56.8297195  90.1382923
  78.3460093   4.2194518  34.1635942  78.1747150   4.6832865  33.3439922
  78.0910110   3.3144081  33.9844227 100.8187485  19.9034524  29.2306423
 101.3794994  19.9756539  28.4582567 100.8590698  18.9775884  29.4701838
  35.1636219  28.2039332  89.5538521  35.3544378  27.9814959  88.6426258
  35.8261895  27.7328873  90.0591755  18.8203406  94.1068077  19.0199459
  19.5354891  93.7899780  19.5716810  18.2688594  93.3375168  18.8774776
 101.4717388  36.1861730  21.8938923 101.2758732  35.7200074  21.0811448
 101.5980148  37.0957637  21.6238308  67.8082180  96.4712524   4.7884390
  68.5150194  96.8059254   5.3403986  68.0072212  96.8072510   3.9145207
 102.4915600   4.4825593  39.6513510 102.4338627   5.2580839  40.2094412
 101.6802406   4.4920409  39.1435051   8.5810798  50.7599592  26.8082142
   8.8568872  49.8446941  26.7586350   8.0294549  50.8019018  27.5893545
 102.9921436   8.4455335  24.6022034 102.9146767   7.6205331  24.1230321
 103.7648106   8.8684607  24.2275715 111.7155838  45.9913254  32.2099614
 112.2459602  46.5070629  32.8173637 111.4360809  46.6190529  31.5435743
  14.0468121  36.2065721  32.6612306  14.0949667  37.1613002  32.7102566
  13.7563312  35.9363604  33.5323429  21.3661456  31.8566155  17.5168741
  22.0344710  32.2174263  18.0994439  21.3036132  32.4905753  16.8024385
  94.0368938  19.5015132  35.8978200  93.3553314  18.9165843  35.5668306
  93.7750721  20.3705668  35.5938029   2.7446693  39.4571209  15.4540133
   2.6174644  39.5925617  16.3930058   1.9606638  38.9861655  15.1715791
  18.7978029  21.4229059  43.6041403  19.1738665  22.2331643  43.2602072
  18.0118144  21.7036819  44.0727758  21.9314957  46.7381668  44.9571800
  21.3935876  47.4539566  45.2956104  22.2327399  46.2747622  45.7386732
   9.5763600  44.2991924   8.7434381  10.4855263  44.4737196   8.5001487
   9.4903028  44.6625185   9.6248138  40.9968567 106.8609810  83.6026001
  41.2181187 107.5056267  84.2746925  41.5922070 107.0556259  82.8787899
  37.4164677  45.6293821  42.2957230  36.6155505  46.1257267  42.1271896
  37.1275783  44.7181654  42.3453140   7.0865285 108.8015938  12.8801560
   7.5314969 109.0273285  12.0632851   7.4565834 109.4011688  13.5280776
  96.1801910  39.0201831  31.1394429  96.1937237  38.1667614  31.5727115
  96.9515228  39.4736791  31.4794827   5.6740004  30.1180363  27.3435211
   5.0561768  29.5452309  26.8891859   5.4768455  29.9944711  28.2720113
 107.9542065  13.9065158  29.2155790 108.7771416  14.1990745  29.6072793
 108.1731319  13.7327945  28.3000875  22.4974942  58.6654902  43.4507942
  23.3727384  58.3022976  43.5859776  22.6534271  59.5622110  43.1544781
  67.6850700  88.4044552  86.1873245  67.3154497  89.2486286  85.9285259
  67.1697235  87.7589417  85.7036304 108.7162876  33.5101318   6.5283543
 109.0853214  33.1864309   7.3500991 109.4725418  33.8273072   6.0346818
  28.6921287  14.2169464  46.5935659  28.1686234  13.5679233  47.0636082
  28.3305550  15.0599539  46.8671274 102.7703381   1.8902375  65.7661581
 101.9300652   2.1392643  65.3812456 103.2559109   2.7123660  65.8336496
  94.9554539  82.3614788  38.2603312  94.2921638  82.0562935  37.6413393
  95.7892036  82.1253300  37.8537297   6.0048276  69.8867512  11.1071610
   6.7948604  69.3782234  10.9241903   5.3212833  69.4621706  10.5887675
  93.0594444 106.0944462  11.1930537  92.7887726 105.3659916  11.7519069
  93.6103058 105.6902122  10.5227029  23.4324741   5.8051670   7.7018583
  23.5146332   6.4407951   6.9909018  22.6622987   6.0925359   8.1922448
 111.0317802  42.3538971   8.2762432 111.7470455  42.5627184   8.8771009
 111.4673042  42.0161343   7.4936360  91.0528946  38.0345869  42.5528193
  90.9018230  38.3028173  43.4591627  90.8909988  37.0911789  42.5520802
  94.7284317  46.5414143   5.5361760  94.3842220  46.7427635   4.6660000
  94.5288658  47.3184061   6.0583711  46.6997671  96.1748409  89.2004299
  45.8799648  95.7070065  89.3594646  47.3826122  95.5254555  89.3685055
  81.8869209  62.1924973  23.4716773  80.9579086  62.0667362  23.6649489
  82.3277664  61.4873695  23.9456844 103.2059479  75.2491379   8.4382319
 103.0694294  75.4642677   7.5155658 103.9477158  74.6441603   8.4358990
 108.8062096  50.8879852   4.5119369 109.5980549  51.2107611   4.0817797
 108.3536053  51.6788149   4.8051405  18.4309113  64.5212555  18.0667186
  17.5221479  64.6187830  17.7823412  18.8649583  64.0821552  17.3352659
   3.5883856  60.1555157  24.1093993   2.9536790  59.5824528  24.5394874
   3.2498336  61.0390902  24.2540240  86.1716461   5.0450855  73.5557079
  86.0069275   5.8227962  74.0888739  86.9622135   5.2577585  73.0597258
   9.1379613  56.3548946   3.9452156   8.2836980  56.3433790   4.3768781
   8.9353496  56.4635229   3.0160326  16.5245414  45.2692366   8.0203271
  16.5658867  45.6362963   7.1372712  16.0848796  44.4263077   7.9089803
 114.7007275   6.8756437  24.3300819 115.1546764   6.2658876  23.7483954
 113.9384079   7.1633172  23.8277435  99.1082573   7.0242172  35.1935363
  98.8221455   6.4114630  34.5161128  98.6642647   6.7274535  35.9879160
   4.4562918  14.6419537   6.4183426   5.1056135  14.1257071   5.9407419
   4.2957652  15.4018009   5.8587927  99.9659729  37.0740008  39.8357201
  99.5007133  37.8674459  40.1006842 100.5087376  37.3499632  39.0971470
  78.5082006  16.2300682  37.1687818  77.7112341  15.7475924  37.3885441
  78.3087778  16.6545928  36.3343716   6.4554769  33.8403082  62.3007917
   7.0148540  33.4667516  61.6197729   6.2353581  33.0981112  62.8637505
  38.5265374  15.0773954  10.4842389  38.6181474  15.2002227  11.4290941
  38.4415913  14.1304922  10.3729272   2.7384627  34.9276137  50.8782339
   2.5382885  34.0770602  50.4874372   3.2295436  35.3927636  50.2009535
  84.2346573  44.1711283  15.5046725  83.7004757  44.9254131  15.2557993
  83.6299610  43.4296560  15.4765439  55.4216194  89.3616390  92.4556923
  55.9779024  90.0378036  92.0689392  55.4732370  88.6289978  91.8418503
 111.6089725  21.9523501  13.5636127 112.3297310  21.4573336  13.1741393
 110.9305668  21.2976265  13.7289381 111.8172169  37.1662903  44.5926523
 110.9059429  37.0355010  44.8547697 112.3276329  36.8837333  45.3515148
  68.6352777  56.5133476  20.7173085  68.2343531  57.2136307  21.2321782
  69.5392084  56.7997169  20.5864191  13.4854674  47.6386070  47.9831600
  14.1269541  47.0173931  48.3278656  12.9334557  47.8546667  48.7347126
  56.4347267  88.6424446  75.6154442  56.0263491  88.4702587  76.4638567
  55.7980776  88.3259678  74.9745464 101.5845013  29.6695828  12.6469553
 101.7299843  29.3089509  11.7723060 102.4483585  29.9706912  12.9286039
 115.3760052  47.5375938  23.2427120 115.0769424  48.0185843  24.0143585
 114.9274921  46.6937685  23.2977557  42.7856493  52.1161270   2.3843774
  42.8709555  51.4417505   3.0583006  43.6825180  52.4100208   2.2247571
 101.3091755  24.6109152  39.2339802 101.0670757  23.8448095  39.7542715
 100.4893780  25.0916719  39.1197777  79.6324444  53.9958048  33.2260489
  78.9142704  53.8011169  33.8281679  79.1996861  54.2348003  32.4063945
  33.6468959  46.8483067  29.9190164  32.8424811  47.3537588  30.0359273
  33.8222718  46.4741325  30.7824254  94.3114376  57.7700043  53.4153748
  94.9232674  58.3620167  52.9778528  94.0156269  57.1776152  52.7241421
 116.1103916   9.0308905  21.6968369 115.4711151   9.5478845  22.1870136
 115.7014656   8.8916677  20.8426523  18.2866323  48.5736179  11.4558947
  17.7823710  47.9490852  10.9344435  19.1953826  48.4253836  11.1942995
 101.9579029  55.8404016   1.0079627 102.0843220  56.2215185   0.1390556
 101.2545681  55.2020264   0.8894760   5.8053607  33.4495997  27.3914409
   6.0813892  34.1162419  28.0204320   5.5441284  32.7039766  27.9318428
 101.6467476  22.5275183  55.9979248 101.1254597  22.3530102  55.2143145
 102.3851204  21.9217300  55.9342051 109.1842842  33.1177926  11.9096160
 109.8458958  33.8039351  11.9974601 108.3490276  33.5804200  11.9770813
  77.7390718  18.7542689  52.0306778  78.0883503  19.4520748  52.5850296
  77.8749990  19.0679550  51.1366129  31.1942220  47.5340939  23.9107132
  30.5938339  48.2075644  24.2304063  30.8494759  47.2947121  23.0504346
  52.9766226  56.1397362  11.8285513  53.6076784  55.4200125  11.8273199
  53.4013224  56.8315268  11.3213205  36.7456269  42.5647974  13.9450610
  36.6002798  43.2137012  13.2565606  37.6962733  42.4573708  13.9761066
  81.3360596  27.3447871  37.4288392  81.9042492  27.2172689  38.1885290
  80.6803608  27.9767919  37.7235556 100.9873295  56.0443401  49.4849443
 100.8959198  56.4250517  48.6114836 101.9327068  55.9869003  49.6234512
  83.0301952  19.6319807  78.7068129  83.6103344  20.2590442  78.2750034
  82.3637199  20.1738501  79.1292095 109.5294762  35.7996511   9.8570651
 110.0134468  35.5911970  10.6561553 108.9910984  36.5550256  10.0932825
  23.6122179  63.2021570   2.8834298  24.0720701  62.3945522   2.6542056
  23.7496185  63.2967472   3.8259828 102.6415157   0.2191640   5.5945241
 102.4755764  -0.1066466   4.7099096 102.5660515   1.1702744   5.5175436
  19.7014654  53.1730986  19.0651023  19.8007405  52.7547264  18.2099175
  20.2466154  53.9581251  19.0124190  11.8039870  31.1751509  23.8628125
  12.5651717  31.1744189  24.4431829  11.3423383  30.3632069  24.0722394
  34.0982270  67.5790644  27.4830151  34.9162197  67.7384043  27.0121312
  33.4228396  67.9705906  26.9291329 110.4580116  34.8349261  43.1934738
 111.3972664  35.0106597  43.2495785 110.0456142  35.6183910  43.5572577
  28.4790778  16.2984252  13.9382815  27.8619552  15.6040013  14.1688621
  29.3329000  15.9588277  14.2064166 112.0597267 108.8217735  79.7859430
 111.1810875 109.1293335  80.0087070 112.6221466 109.5841980  79.9224758
 106.6269970  20.5164480  22.0630932 105.7009983  20.7494545  22.1298814
 107.0418930  21.2904930  21.6823673  97.1269894  25.3587270   6.3740849
  96.5005589  26.0749984   6.4778942  97.0840549  25.1358724   5.4441798
   6.7318696   5.5607492   8.9056826   6.8635690   6.3251358   9.4665754
   7.6025635   5.1719218   8.8223934  57.1046638  77.9381609  75.6482315
  57.6949167  77.1852112  75.6181812  56.3076878  77.6352358  75.2131462
  26.9696879  42.0463228  63.9961624  27.9031873  42.2579241  63.9901829
  26.8043685  41.7171526  64.8796463   8.4301251  41.5979910  36.2290668
   8.6718982  40.7750607  36.6539955   9.0328854  42.2439003  36.5974641
  59.3946552   5.1631403  22.8379035  59.4771576   5.0674742  23.7867308
  60.2471685   4.8949227  22.4951077   9.1905993   9.6108973  34.5649934
   8.6300468  10.1367962  35.1354718   9.3594390   8.8124001  35.0651217
 103.3285427  29.0580368  19.0541351 102.7111435  29.6188903  19.5236957
 102.8208637  28.2781768  18.8298416  31.1802697  18.5224450  45.5312395
  31.0761738  17.5824618  45.6789827  30.4498339  18.9215279  46.0039234
  17.6811278  51.5247154  20.0904870  17.1135271  51.6438627  19.3289983
  18.3611894  52.1906137  19.9888408  40.6933641  71.5577888  74.1794920
  41.4207554  71.0752678  74.5723104  40.5835772  72.3248768  74.7414160
  35.6111550  57.7657175  88.7372208  34.7120428  58.0916023  88.6969185
  36.0330415  58.3085537  89.4032383 102.7767181  66.4898109  16.7486513
 102.7755070  65.9609556  15.9508169 102.2374439  65.9944963  17.3651540
  28.1704617  34.5519662   7.5728810  28.9239764  33.9703488   7.4720460
  27.4447823  34.0760040   7.1690470 103.3876801  41.5373945   3.0546010
 102.8737831  40.7782078   3.3298814 102.7496910  42.1237993   2.6479903
  14.6868336  24.4907260  33.7640285  15.1186323  23.9667678  33.0893064
  15.3367412  25.1497889  34.0079331  12.5180542 104.3854237  66.6645384
  12.6804137 105.3059673  66.4584398  12.1312380 104.4005966  67.5399685
  19.6876490  38.3896255  25.9038138  20.5553031  38.0553102  26.1310601
  19.0910673  37.6721597  26.1172748 103.6758232  35.7519221   4.5654362
 102.8151512  35.8256721   4.1530880 104.2957973  35.9421706   3.8614011
  87.4789619 107.6245785  20.1859498  86.7114830 108.1687260  20.0095439
  87.2831059 107.1973610  21.0198283 102.8290558  24.7009110  15.9682322
 103.3055878  25.5179691  15.8213711 102.4602318  24.4816303  15.1125956
  58.3121109  97.3546410  90.0078201  58.2855129  96.8595314  90.8265972
  59.0452290  97.9601765  90.1177883   6.5771312  35.9090352  36.2953472
   7.3168474  35.7470083  36.8808389   6.3605237  35.0474453  35.9390116
  30.3699136  95.6319141  78.1317377  31.3034296  95.8217239  78.2252789
  30.3274965  94.6806145  78.0344439  10.9885550  91.9143295  36.5158486
  11.7368507  92.2336483  37.0201540  11.2299550  91.0217953  36.2681890
   6.4567941  30.5898046  91.1680508   7.0582968  30.8478975  90.4696178
   5.7055438  30.2128816  90.7100296  37.1890497  81.2557888   8.3046615
  36.6219687  81.2707424   7.5336701  37.9272985  81.8180370   8.0699259
  76.3225079 105.3931713  59.7445107  76.6642284 105.6912804  60.5874777
  76.9204998 104.6953011  59.4769239  14.4715703  35.5633712  13.5774696
  15.3062761  35.9626794  13.8225210  14.2336214  35.9913635  12.7550137
  17.1693790  19.0974069  32.8589153  16.5945840  19.8615229  32.8145218
  17.3879266  19.0157056  33.7872434  20.5241203  43.3176422  33.2081389
  19.6780300  42.9972839  32.8955197  21.0122204  43.5224295  32.4106097
  16.2382507  44.4077539  19.4586802  15.6706381  43.9310837  18.8530135
  15.8258998  44.2920351  20.3147221  27.8076363  44.3722343  37.9594278
  26.9583440  43.9565754  38.1082916  28.4302711  43.6454201  37.9421687
  55.4176092  51.2848330  28.0212998  55.2105284  51.8506575  28.7650681
  56.3418865  51.4557457  27.8403783  13.4007430  42.4880171  30.4797673
  13.3118415  41.5622234  30.2534270  12.9795146  42.9528618  29.7567749
  24.0587974  54.7869921  15.1880300  24.3877554  55.6525612  15.4305279
  23.8445091  54.8640347  14.2583108  48.4420633  40.2076483   8.4694642
  48.6557865  40.2663994   9.4006485  48.1292200  39.3107200   8.3516520
  80.8814621  15.9077299  83.7349606  80.2708912  15.4882288  84.3411446
  81.7078209  15.4432476  83.8676643  13.9409447  69.8640251  37.3793602
  13.7979531  70.3069210  36.5429211  14.3426335  70.5299664  37.9373956
 114.0372944  73.4166098  18.7876642 114.7668171  73.8329983  19.2466187
 113.8404369  74.0099096  18.0627656  46.0867929  64.2064810   4.0931007
  45.8459330  64.5232916   3.2225561  45.2888393  63.7978268   4.4285101
  40.8599949  76.6608047   1.4695610  39.9405003  76.9009590   1.5839450
  40.8590269  75.7036066   1.4671659  15.9337783  68.9182329  15.8512163
  16.0088849  69.6249008  15.2099597  15.1196098  69.1046238  16.3187826
  34.7683358  68.3152914   0.4271939  34.7684002  67.5469685  -0.1436889
  34.0877962  68.8827038   0.0650549  24.8769379  38.8064265   7.1483964
  25.1931357  38.5458636   8.0134732  25.4605579  38.3593726   6.5354025
  58.5668135  69.8763132  25.0045776  58.5213566  70.3953218  25.8075690
  59.2869282  69.2640448  25.1555681  28.6850643  51.5048742   0.4868646
  28.8551974  52.3664713   0.8675672  27.7526093  51.3543224   0.6420876
  38.0376959  98.1595707  91.4254379  38.2511282  99.0822983  91.5641880
  37.1634412  98.0567932  91.8014050  28.2049227  71.3992882  23.9466071
  28.8304162  70.7166243  23.7037802  27.6713061  71.5252829  23.1619978
  11.1580718  65.0426960  22.7735257  11.5830696  65.5482244  22.0806742
  10.8823442  64.2327595  22.3443294  16.3961351  32.3552775  29.8978019
  15.5373740  32.1122193  29.5518446  16.2533140  32.4650311  30.8379006
 108.5863686  18.4086621  87.1331596 107.9472351  18.3134258  86.4270020
 108.8913059  19.3130243  87.0598602  31.5786529  42.2137117  26.5786839
  31.5970135  41.2591028  26.5107846  32.0240688  42.4037123  27.4043584
  29.2139673  63.7153006  11.2915885  29.2239690  64.1859198  10.4581296
  28.9629412  64.3762493  11.9368541  49.3843031  28.5197115  36.8745637
  49.9291468  28.5945797  37.6580000  49.0079260  27.6412153  36.9276357
 109.3194675  81.0068893   9.7966242 110.1065540  80.8401203   9.2780578
 109.1107082  81.9254303   9.6264732  62.3071575  60.0807381  29.1595316
  62.0115089  60.4097795  30.0083828  61.7210340  60.4935551  28.5252810
  67.5353098 105.1344681  71.7443800  67.7976179 105.5547333  72.5634050
  67.3878908 105.8610058  71.1388683  17.7663338  59.3445206   4.3825153
  16.8983519  59.4308090   4.7767144  18.3562589  59.7656870   5.0076848
  28.7258601  55.3969717  38.6261463  29.3800211  54.7047663  38.5304499
  28.6509943  55.5267239  39.5715523  12.0896590  48.5842848  17.3193645
  12.7323151  47.8765821  17.3681319  12.2790217  49.0230417  16.4899874
  17.8334463  55.1901436   1.8757121  18.1317282  55.9823227   2.3226026
  17.3218369  54.7214031   2.5350851  27.5869179  58.8159895  10.4922819
  27.4186945  59.5215082  11.1169243  28.0916882  59.2307663   9.7927129
  36.1941552  67.7433872   9.0400136  37.0214033  67.6360321   9.5094466
  36.4524436  67.8907824   8.1301814  61.5519905  27.7786016  24.5159245
  61.7285967  28.7122273  24.4002438  60.9985971  27.5453663  23.7705469
  32.8699946  39.8707628  30.0167584  33.4780812  39.9513102  30.7515883
  32.1083760  39.4222498  30.3841853  39.0476537  43.6440229  37.3538876
  38.3057952  43.2156610  36.9268274  38.9053416  44.5781517  37.2009587
  12.6861036  85.9615517   9.8052347  13.0475032  85.5714703  10.6011355
  12.2827613  85.2281284   9.3408692  82.3767757   0.3410047  90.1799107
  81.4851284   0.6373560  90.3625774  82.9296398   1.0864714  90.4141235
  24.1967821  52.0949173  21.4645410  24.1649628  51.9063759  22.4024487
  25.0275517  51.7194843  21.1728168  49.6600533  35.2653551   2.4411561
  50.4063511  34.6840215   2.5871766  49.9571609  35.8704448   1.7615777
  94.2345142  71.8573189  38.5303044  95.0107288  71.4997196  38.0991912
  94.4105721  72.7955389  38.6008430  65.5537176  94.9303913  84.8568821
  64.6624708  95.0314617  84.5226669  65.6443262  95.6234932  85.5108166
  18.8261485  63.9645863  29.9999952  18.4172797  64.5822144  29.3937016
  19.5592904  64.4500351  30.3782439  43.4692383  21.8796182  25.7098961
  43.8090563  22.1440125  24.8549986  42.6477528  21.4297390  25.5123997
  41.5530109  37.7510214  17.5699246  41.4579487  37.5407720  16.6409516
  41.1851931  36.9939137  18.0257046   3.1373432  43.0762672  34.7197151
   3.8340741  42.8193855  35.3237081   3.2224452  42.4698210  33.9840460
  36.8035007  44.2426491   6.2159997  37.1535444  45.1284742   6.3109732
  36.4627957  44.0254402   7.0837384  89.5046711  99.5964622  38.1108594
  90.1317692  98.9738083  38.4786749  89.9911976 100.0467968  37.4204087
  35.0060534  59.5488739  22.6013327  34.2746115  60.1497459  22.4593043
  34.6181726  58.6771202  22.5249934  24.6526742  48.1465340   9.0945995
  23.9797378  48.3374262   9.7480136  25.1439285  47.4127626   9.4640321
  60.3901148 100.8527565  75.0165701  61.0582113 101.4814472  75.2897406
  59.8481703 101.3352680  74.3922949  82.0788002  94.6434784  77.5484180
  81.1598110  94.6604252  77.8156233  82.5655365  94.8215294  78.3531666
  35.8152795  23.0112004  12.2747850  36.2262440  23.1594396  11.4231014
  36.4051604  23.4301019  12.9015172  54.7643423  48.8804054  23.2476807
  53.9131975  49.2805195  23.4256911  54.9043655  49.0218353  22.3113990
 112.1250439  56.8033743  40.6752872 111.9861984  55.8617783  40.5735350
 112.4366379  56.9037056  41.5747690   3.9978236  34.1074991  11.2925220
   3.8524017  33.3610988  10.7111704   3.7426510  33.7897706  12.1586442
  40.3543901  57.5544500   1.6641210  40.6998444  57.1019459   0.8946177
  40.4631329  58.4841871   1.4641416  20.1322985  77.5230312  70.0245810
  21.0060716  77.1528673  70.1500082  19.5390832  76.7803431  70.1374483
  38.9998817  49.1105318   9.2763370  38.3529568  49.6014643   8.7696761
  39.4612980  49.7769785   9.7854292 101.2056255  49.7845554  19.3392658
 100.8386707  49.5581388  18.4846818 102.1461010  49.8676157  19.1816986
  93.3517170  19.1927016  86.5605354  92.9710770  18.9560974  87.4063301
  94.2621803  19.4104981  86.7601395  60.8601618  64.6381998  14.8776817
  61.5057468  64.2792606  14.2689002  61.3796997  64.9673700  15.6111395
  42.6359224  62.7003622  23.9856052  43.0631685  63.5565376  24.0112543
  42.3860645  62.5300646  24.8937917 111.4710140  59.9402714  14.7697544
 111.4603519  60.7571030  14.2708516 111.4717293  60.2189207  15.6854963
  20.7263970  13.5330677  84.4678688  20.3297734  12.6715302  84.5970058
  20.7160592  13.6617696  83.5194206  45.2736282  23.4828520  16.1320961
  44.5988321  22.9045033  15.7765830  45.8093929  22.9142046  16.6851151
  19.4000912  47.7687645  25.9392262  20.1682305  47.3797607  25.5210519
  19.5192587  47.5905800  26.8721151  16.8138766  57.4345303  26.4687252
  16.8931782  58.2603788  25.9913230  17.5555301  57.4355125  27.0738530
  50.0088930  72.5576353  67.5029278  49.9991512  71.9190598  66.7899370
  50.9349155  72.6545763  67.7250051  99.0200138  23.5933590  72.7737093
  98.8752651  22.7276278  73.1555271  99.7284222  23.4618139  72.1435595
   6.6864508  48.0928135  13.8609707   6.9550490  47.1853495  13.7174606
   7.3461866  48.4463692  14.4576097  28.3161211  21.0235667  23.1996822
  27.8719378  20.5015612  22.5315166  29.2210984  21.0842323  22.8937984
 115.4720306  21.7985845  90.9705257 115.0042057  21.0153413  90.6808662
 115.2710915  22.4572015  90.3056335  39.3157196  65.8091640   2.1598150
  38.5389924  65.9252787   2.7070311  39.9772668  65.4561615   2.7547723
  16.8230176  33.6809683  13.7567091  17.2244787  34.4895601  14.0748930
  15.8860087  33.8023019  13.9100862 103.6820030  45.1768589  17.1389878
 104.2708588  44.4375944  17.2905552 102.9250908  44.9984980  17.6971114
  23.7090302  73.2722044  26.0036469  23.7689638  73.8649559  25.2544594
  22.7827382  73.2836914  26.2446475 106.5594101  48.8703918  15.9800875
 106.5700054  49.7303057  16.4004111 106.1882114  48.2854843  16.6406369
  11.0278368  74.3902063   6.8796009  10.4659522  74.6589041   7.6064551
  10.7181025  74.9050140   6.1344373  36.0530353  31.2375832  91.1368942
  35.7693768  30.9807062  90.2595234  36.9939828  31.0621476  91.1453533
  69.5653200 105.4176331  93.3660030  70.0010777 105.2190781  94.1948128
  68.7706947 105.8871746  93.6196613  23.7439990  12.0900214  35.6957126
  24.5998549  12.4968898  35.8306313  23.4014702  12.5088894  34.9061203
  16.3457775  40.1622629  14.3259418  16.9557369  40.7312441  14.7954535
  16.0591459  40.6847239  13.5768700  19.5596886  40.6063366  37.2492075
  18.9667392  41.3294268  37.0447946  19.3614995  40.3839111  38.1588650
  19.0657830  54.0256977  28.6426353  18.1470203  53.8027763  28.7923455
  19.1493237  54.0701389  27.6901245  27.7142882  49.2939329  34.8911166
  27.0380068  49.7376585  34.3792772  28.2190657  48.8006878  34.2444754
  84.5574665 101.6163349  45.2330875  85.0915623 101.1041164  44.6259546
  84.8480797 102.5192547  45.1045942  26.6919494  58.0110645  33.7918258
  27.3188853  58.0763006  33.0714607  27.2082233  58.1966400  34.5762062
  54.0453768 103.7165833  74.9073648  54.1431808 103.2889271  75.7581139
  53.6895323 104.5809841  75.1133156  27.9335213  99.0975761   6.3596499
  26.9781423  99.1552639   6.3721758  28.2078147  99.4856167   7.1905625
  26.8672276  18.6583292   0.8801596  26.3540745  18.0163717   0.3894497
  26.7812777  18.3858383   1.7937203  21.2852693  18.2833612  28.8897014
  20.6123877  18.7654936  28.4090686  22.0038223  18.9081454  28.9874649
   3.8323635  84.5015526  13.6469853   3.5318536  85.1126003  12.9742706
   4.7671083  84.3930912  13.4717083  52.9766703  52.1407652  13.0098283
  53.1972313  52.3037338  12.0927536  52.0447159  52.3498678  13.0728400
   1.8113470  52.2178459  16.8408179   0.9445350  52.4067688  17.2002316
   2.1321532  51.4826345  17.3630965   6.8435997  32.9807377  24.6317863
   6.4738780  32.9715586  25.5146527   7.7246869  32.6218891  24.7373557
 103.0420303  85.6519699  72.1561003 103.0967712  85.7208633  73.1092501
 102.2411346  85.1522636  71.9976902  39.1788936  55.9050226  19.1427839
  38.7315989  55.2312422  19.6548188  38.8059568  55.8256483  18.2648039
  85.1641560  80.7923603  83.3549023  85.3984833  81.7132854  83.2399082
  84.9541187  80.4866695  82.4724865   3.6139071  47.8570795  29.1790390
   4.4917580  47.9485369  28.8085723   3.7287289  48.0318737  30.1131129
  70.0723600  49.9713707  28.3806682  69.7138643  49.6309662  27.5610089
  70.3274775  50.8707905  28.1752634   2.3756768  51.0152435   5.1334548
   2.5868487  50.4524612   5.8783782   2.4021058  50.4302740   4.3762589
  26.3481879  32.3511648  13.7845755  27.1289682  32.8596926  13.5654628
  25.8148766  32.9462266  14.3115604  85.3880405  55.9244251  40.4757452
  85.5944824  56.6661739  39.9070430  86.2231350  55.4709005  40.5904961
  15.3983843  53.4875202  24.6312690  16.0453248  53.2133436  23.9812469
  15.1637876  52.6811600  25.0905991  13.6191893  39.8177958  30.2276421
  14.5286846  39.6432352  29.9856162  13.1036294  39.2876792  29.6198511
  10.2157032  31.7411733   2.0892249  11.0519814  31.2930822   2.2160563
  10.4556763  32.6510954   1.9140500  79.2076731   6.6836905  88.5490608
  79.3554497   6.7440450  87.6052666  79.6331596   7.4622023  88.9083767
  60.0061083  58.0759764  14.2079580  59.7053719  58.6491251  14.9131465
  60.8657646  57.7705669  14.4976854  34.7576094  72.8212547  10.2480876
  34.3611383  73.6375570   9.9436259  35.6945419  72.9363155  10.0895095
  19.0501368  43.6708069  37.3293257  19.2548120  43.9835358  36.4481091
  19.5288014  44.2619228  37.9104424  16.0133326  63.1409883  45.9403896
  15.1410890  63.4889889  45.7551384  15.8594859  62.2301626  46.1913061
  37.8928447  65.5508566  19.6797490  37.3275566  64.8883486  20.0769472
  38.6852741  65.5426311  20.2166080  88.0828285   3.2776642  87.0127773
  88.9720535   3.4863827  86.7265034  88.1207561   2.3529951  87.2572708
 108.6998940  76.0214186  23.6443233 109.5587254  76.0271645  24.0669465
 108.5107422  75.0944376  23.4988451  83.8637352 102.5606155  17.5006020
  84.6780300 102.8343105  17.0784009  83.6260509 101.7462444  17.0572758
   7.4883044  39.3392491  20.5179071   7.7993572  38.5131168  20.1477957
   7.9327822  39.4054794  21.3630629  15.7012630  76.0568953  14.7926807
  16.6008532  76.2107658  15.0812852  15.2301037  76.8515348  15.0432587
   0.5862089  29.1275358  55.5627441  -0.0772722  28.6482072  56.0589981
   0.1181228  29.4614744  54.7974920  59.5799732  68.5842371  35.1711798
  60.2543354  68.9546633  34.6017504  59.5339298  67.6619244  34.9192858
 104.3038654  65.4999828  58.0695343 103.4265232  65.2686262  57.7646065
 104.6675301  64.6780109  58.3986855  31.8802547  68.6319971  26.5256786
  31.9122529  68.8494253  25.5940485  31.1702561  69.1716909  26.8733335
  28.7611842  55.2914381  26.4169574  29.4738436  55.9296942  26.3857102
  29.1639113  54.5000648  26.7744064  27.3684716  14.9265218  18.4851277
  28.0885696  14.7133148  17.8916359  27.7958488  15.3008735  19.2554808
  36.9215512  17.0326328  27.2773671  36.6112447  17.8826666  27.5894332
  37.5829053  16.7694080  27.9173350  24.0706587  40.1188946  23.0927444
  24.6126270  39.5813227  22.5152349  24.6980429  40.5776739  23.6514473
  11.6246593  58.4653378  13.7738943  11.3808775  59.1324472  14.4155848
  11.4714146  58.8815832  12.9256666  17.7145624  42.0116472  15.9298670
  17.9552484  42.7821159  15.4153907  17.9546642  42.2389174  16.8281615
  24.0455842  43.0054426  72.2808933  24.5669842  43.3744574  72.9937744
  23.7360144  43.7674570  71.7912674  43.3827972 108.2983685  87.7696228
  44.0645456 107.6644421  87.5469589  43.5929489 108.5724640  88.6623383
  91.6629887   7.2188586  78.4061909  92.2745705   7.5546658  79.0614986
  91.8935108   6.2943202  78.3149719  23.6391330  35.5880952   8.9948010
  23.3066821  34.8592234   9.5186859  23.0238271  36.3023663   9.1604728
 111.2098885  23.6035991  23.4896398 110.9303856  23.1558323  22.6911330
 110.3934860  23.8537860  23.9222288   0.7278056   3.3584857  41.3303995
   0.2035595   3.5886669  42.0974827   0.1268623   3.4555438  40.5916977
  13.4562480  94.2099285  20.2944231  13.2225025  93.9542580  21.1867380
  12.6809275  93.9993763  19.7740650 103.9984703  64.8477554  19.7844768
 104.3012810  64.3973827  18.9959967 103.1692600  64.4211483  20.0004601
  39.2786860  73.6261225  89.5459461  39.6985698  74.2108107  88.9150143
  39.6529078  72.7648973  89.3602562 108.8409901  22.4471116  19.3277049
 107.9501820  22.2010589  19.0784109 108.8382816  23.4041834  19.3123925
  32.5826669  47.9301786  11.9463575  32.9865026  47.6780128  12.7767563
  33.1741166  48.5891199  11.5827417  11.3880694  28.9527035  48.6215687
  10.5778193  28.4553504  48.7327814  11.5727770  28.9030290  47.6836729
 113.5389233  30.8601332  16.7849445 113.7270641  30.4235101  17.6157248
 112.7363300  30.4431438  16.4715862 114.9731731  81.2930202  39.7037458
 114.0828800  80.9420300  39.7238064 115.4579639  80.7521439  40.3271770
  99.0575409  46.8256807  33.3187580  99.8505306  46.7377949  33.8475966
  98.4021854  46.3032055  33.7811112  36.1233807  80.1933193   2.5641540
  35.7730770  81.0137081   2.2170353  36.0783935  79.5831776   1.8279953
  89.1347694  43.6750364  51.8287277  88.9398003  44.4393253  52.3710203
  90.0130272  43.4071970  52.0991945   9.3497002  55.5572128  14.8418307
  10.1344633  55.4365540  14.3072093   8.9402074  56.3481092  14.4910741
  60.8959532  15.0944662  38.5177207  60.5192614  15.9524596  38.3223104
  61.0671425  15.1168489  39.4592214  39.8788166  39.0716720  11.3881183
  40.4929495  39.1598749  10.6592214  40.4355431  39.0113044  12.1644175
   9.0888393  76.4764452  13.5579276   8.9772403  77.2360754  12.9863143
   9.4609475  75.8018494  12.9898703  29.1830206  34.9869418  18.9173317
  28.4908962  35.0406814  19.5763516  29.0211439  34.1579270  18.4670424
  92.1934128  36.3780189  27.6130390  91.7692089  36.6853142  28.4141946
  91.6414070  36.7126346  26.9062471  41.9994640  66.3322496   9.0290654
  42.7283287  66.0406160   9.5767331  42.2636747  67.1989107   8.7203264
  42.8704739  59.3527126  30.8419251  42.8492117  59.9072409  31.6218472
  43.7278223  58.9281988  30.8731723  35.0086856  39.8202634   8.0076790
  34.8927140  40.7703018   8.0221242  34.1232848  39.4694042   8.1035739
  31.3813090  45.6175661  18.8313770  31.9906378  45.0110912  18.4104991
  31.9257784  46.1247778  19.4334757  76.3925123  20.1116776  89.2523670
  76.1323357  19.7964859  90.1179218  75.5660391  20.2547693  88.7911701
  29.2796516  51.8111134  47.2411156  29.0948248  50.9739637  47.6668596
  28.4301996  52.1052980  46.9123077 113.9849091  62.6061869  13.3579302
 113.8502789  63.4829473  12.9982102 114.0311337  62.7401924  14.3045759
  23.1659555  57.1779013  41.1882305  22.3106241  57.5847769  41.3263988
  23.0026674  56.2393904  41.2818384  22.0985484  39.0397024   3.3882138
  22.9207492  38.7184334   3.0180717  21.5656209  38.2533956   3.5062805
   2.1125078  50.3745604  67.9227638   1.7291921  50.4208374  67.0468903
   1.8695883  49.5065689  68.2449675  12.1684349  41.5536499  34.8525286
  12.5318277  42.0877457  35.5588722  12.2073555  40.6571817  35.1857901
   6.1589050  69.9973965  14.5135510   5.4387200  70.5076122  14.1430843
   6.4444202  69.4307137  13.7969041   1.5684718  57.8628778  28.3041096
   1.6815270  58.8065958  28.1907916   0.6398360  57.7101994  28.1293011
  17.6682329  50.3299618   8.9761561  18.2824934  50.2658463   8.2448524
  17.9648161  49.6646070   9.5971018  68.2068205  76.7471457  84.7779751
  69.0322638  76.2632561  84.8049450  67.7542067  76.4936924  85.5824184
  10.8192551  27.9721975  15.4439008  11.6258013  28.0338383  15.9556782
  10.9853399  27.2662115  14.8192179   3.8852552  61.7031765  17.1953833
   4.3461037  61.7987633  16.3618886   4.3434241  60.9913301  17.6421356
 111.6132259   6.2253404  69.0447140 112.4582195   6.6066313  69.2831278
 111.7660904   5.8186108  68.1918144  48.4839630  50.7705832  32.8182006
  47.5825691  50.5766916  33.0753541  48.7609243  51.4623117  33.4190655
  21.2809491  57.1479940  27.1667910  21.6146541  56.4324856  26.6255736
  21.4969683  57.9406738  26.6756392 104.8883057  40.3013802  22.3626471
 104.1715813  40.6126451  21.8097901 104.7893143  40.7891369  23.1802821
   8.1775826  41.8938303   9.8832852   8.8064539  42.5578690   9.6007925
   8.2714963  41.8646908  10.8354211  52.0187330  12.7620220  25.6001806
  52.4061966  11.8886578  25.6579518  51.1486959  12.6140201  25.2295613
   3.1236142  32.1841407  26.0740161   4.0357244  32.4427629  26.2059283
   2.7050978  32.9619050  25.7050180  17.7291739  23.1796122  21.7707181
  18.1369638  23.1880450  22.6366663  17.9157066  22.3060894  21.4266324
 114.1500854  76.9949389  32.0240641 113.3796787  77.3890829  31.6149616
 113.7968922  76.4634037  32.7374744  26.7837477  51.3720369  20.7347059
  27.0165849  50.8923483  19.9397719  27.5965786  51.8008184  21.0024452
 111.5136623  19.1531873  27.1650052 111.3753128  20.0738740  27.3873329
 111.5046120  18.6993194  28.0077100  33.0312371  46.4106512  33.1168342
  32.3487234  46.7854214  32.5600958  33.8433075  46.8048906  32.7984786
 108.9859486  10.4401028  28.4713054 108.7801933  10.2642190  27.5531769
 109.5475769  11.2148297  28.4467387  72.9122019   1.1903048  86.5139866
  73.0998278   0.2529503  86.5629292  73.6281061   1.5508699  85.9908104
  90.6665230  76.8218708  11.6159523  90.6237316  76.1608744  12.3069584
  91.3271618  76.4902258  11.0078406  38.9489818   9.6863639  19.5669127
  38.1035948   9.2731100  19.7423327  39.2597508   9.2652059  18.7654889
  36.6184449  63.5411263   7.0107508  37.1826935  62.9568195   6.5043527
  35.8801460  63.7241364   6.4296716  20.5756521  51.3238621  34.4935656
  20.7574844  50.4485607  34.8356414  19.6322989  51.4357328  34.6110535
  22.6978230  42.7187395  41.4859819  21.8654561  42.2573423  41.3834810
  22.6277971  43.4721804  40.8997631 104.9924278  53.9505672  10.5692351
 105.5141449  53.1498575  10.6231523 104.4235706  53.8152075   9.8114049
  47.8877068  49.5726442  16.8531597  48.4236097  49.7739697  16.0860181
  47.8301144  48.6172104  16.8610394  27.0801282  49.0845442  23.0328941
  27.5931382  49.1831779  22.2308207  27.7306533  49.0866613  23.7350655
 105.4123211   0.3297184  88.4811020 105.5699635   0.5253759  87.5574684
 106.0741043   0.8380939  88.9499569  15.9274781  50.0521040  21.9274664
  16.6803610  50.6081629  21.7269778  15.5512309  49.8411417  21.0729694
  86.4744759   7.4587417  75.1121330  85.6544399   7.9051203  74.9011517
  86.9847870   7.5003624  74.3033743  56.0105705   2.5658470  85.7049751
  55.7047749   3.3925271  85.3317165  55.8706570   1.9228873  85.0098038
  73.8957930  89.0938187  26.9219422  74.4288254  89.6651268  26.3690257
  73.5410976  89.6747780  27.5949287  24.1191483  65.3378820  36.1432266
  24.6727777  65.6105471  36.8749237  24.7028136  65.3476572  35.3846312
  28.8400245  26.3631129  29.6606588  28.5038948  26.1829281  30.5386019
  28.1822205  25.9933186  29.0717816  15.7912278  43.7469244  22.0984864
  16.6595328  44.0394449  22.3754549  15.5628645  43.0541754  22.7183080
 103.8978767   3.3489609  85.9119034 103.1188583   3.3050323  86.4663696
 103.5543537   3.4332263  85.0224495  14.0700090  42.2888708  23.8822460
  13.5038078  42.1177959  23.1296635  13.6833787  43.0566740  24.3032265
  44.0466642  75.5570841  13.0632424  43.5503817  74.7809649  12.8032970
  44.9628258  75.3061533  12.9452837 113.8325310  79.4819736  25.9786725
 113.1821251  79.3444967  25.2899766 113.6581993  80.3667641  26.2995815
  83.5313320  45.4843807  90.9942436  83.6410046  46.2253094  91.5902519
  83.5868931  45.8700371  90.1199341 105.8541775  18.2169688  66.4001322
 105.8023643  19.1717362  66.3557768 106.2817287  17.9620683  65.5825377
  46.8133879  75.5078888  16.8141115  47.1256447  75.7442999  15.9407055
  46.4207697  76.3120222  17.1538949  37.9702330  54.8128319   4.2258227
  38.0655932  53.8697767   4.3591797  38.0455709  55.1876450   5.1033586
  45.1679564  57.9811335   2.6147738  44.4108963  58.4638405   2.2829919
  44.8254299  57.1118116   2.8225860  73.7688208  87.1811771  74.0552902
  73.0975485  87.4957085  73.4497356  74.0928650  87.9724026  74.4856358
  28.5201740  41.9974089  46.9621515  28.1283283  42.7064753  46.4523363
  28.6162686  41.2782669  46.3377905  18.1023097  75.9994078   6.8499148
  18.4572780  75.2561522   7.3375630  18.6394238  76.0454321   6.0589522
  44.7101831  90.1305199  17.1858108  45.4374886  90.5374622  17.6566172
  44.8079252  89.1939163  17.3574126  36.2345767  23.9985490   9.6847647
  36.7363024  24.4156003   8.9843571  35.4117465  24.4867706   9.7133768
  61.1545801  84.5381641  91.6392708  61.0470104  83.6633301  91.2660027
  60.3225946  84.9775791  91.4633656  83.5211754  25.7427597  89.4477463
  84.1985703  25.1209712  89.1817665  82.7068520  25.3678179  89.1122913
  75.6402969  90.1770020  81.6573906  76.4172792  90.4102421  82.1654606
  74.9389029  90.7076073  82.0352077   5.8813787  45.3585958  28.4144068
   6.2247413  44.5148182  28.1205153   5.5030799  45.7505083  27.6273084
  43.8911390  85.8295631  25.2156734  43.3003759  85.0787354  25.2747679
  44.7291756  85.4542542  24.9453735  48.3069324  54.7949791  33.1229520
  48.8568401  54.3372917  33.7588382  47.4148130  54.5226860  33.3379292
   6.8724704  57.5561810  11.3812780   7.4995422  57.9149675  12.0091999
   6.8700808  56.6151142  11.5562642  17.1097946  67.5974369  24.6446204
  16.1726081  67.7074051  24.4839406  17.5324535  68.1287527  23.9698672
   4.0297604  62.1715307  36.3918352   4.3421116  61.6854382  35.6286955
   4.5962882  61.8834972  37.1075964  31.4083862  84.7839832  10.7062995
  30.5268240  84.7666836  10.3337705  31.8995118  85.3717327  10.1322103
   9.1798145  39.2551398   1.6279769   8.9049560  38.7357807   2.3835899
   9.0249670  40.1621771   1.8916781  24.7250962  38.5384345  13.9406765
  23.9914227  38.2749343  14.4961250  24.6605754  39.4923759  13.8952458
 113.9980125  57.7502346  29.0872884 113.7654018  58.5822678  28.6751652
 114.5561123  57.3123837  28.4446096  32.6083803  72.2005844  22.1157956
  31.6949034  72.1029091  21.8470025  33.0893517  71.5915251  21.5554881
   4.0422517  51.0542727   9.5603663   3.3442247  50.6853056  10.1015222
   4.8290995  50.9787846  10.1001847  19.4060433  62.0598125  37.6914239
  19.8297012  62.0854521  38.5493803  20.0437927  62.4556780  37.0974565
  42.8806400 107.9409313   5.1795179  42.2759533 108.4648132   4.6540383
  43.2517958 108.5611534   5.8070481  15.4110563  48.4407902  23.9875960
  16.0553360  47.7407646  24.0929651  15.5301261  48.7423182  23.0869627
  83.2991886  20.1869559  82.5422764  84.2103291  20.1295328  82.2546005
  83.1415749  19.3636239  83.0043507 113.2468033  76.9399452   4.4607911
 114.1233826  76.6471481   4.7099903 113.0061245  76.3764906   3.7253827
  35.9740424  66.9392633  21.5435910  36.2957335  67.8309155  21.4105415
  36.6913295  66.3791084  21.2470174  27.6678324  66.9432402  10.9424365
  26.7628169  67.0609522  10.6537759  27.9312849  67.8060150  11.2625015
  30.6179333  52.0277023  10.3300166  30.6031537  51.7964411   9.4012916
  29.7602153  52.4202061  10.4927850  97.6081944  63.0082798  16.7614365
  97.1729660  63.1732416  17.5978553  97.5334930  63.8353205  16.2853539
  25.2267456  75.8871365  25.4223323  24.5750308  76.1304569  24.7648406
  25.9003067  75.4181242  24.9298167   4.5099232  59.9319935   0.9203951
   5.2360815  60.3178358   1.4103453   4.1002703  60.6738663   0.4753800
  27.8363371  47.9289341  55.3455162  28.2515240  48.0468512  54.4911480
  27.5713301  47.0092344  55.3581429   7.7491266  50.6661081  22.1644735
   7.3625535  50.9703350  22.9855943   8.6572731  50.4625511  22.3882318
  14.2671883  58.7407684  13.8453186  14.5483613  58.3765364  13.0059671
  13.4088886  58.3469915  14.0018153  79.8703337  45.1490641  19.7725046
  80.6011868  44.5770264  19.5382798  79.1003990  44.5815992  19.7347677
  38.8129020  72.2892427  12.8794444  39.5660877  72.1053028  12.3180985
  39.0891814  72.0065165  13.7512040 114.4915962  23.1273413  88.8622475
 114.3804455  23.8931608  88.2988644 114.3094254  22.3812485  88.2909393
  73.5859108  92.2681141  74.3046856  73.5338354  93.0469894  74.8586512
  72.9777384  91.6475201  74.7062159  23.8691759  28.6016011  33.0831146
  24.3687534  27.7908301  32.9866409  23.9075947  29.0109015  32.2186923
  49.0518379  84.4006729   8.0491054  49.3128681  83.9612579   8.8584322
  49.7690678  84.2261124   7.4397278  46.9178200 103.1090355  28.3324504
  45.9979630 102.8476810  28.3746767  46.9069576 104.0514660  28.4996009
  55.7289648  65.1847267  16.6724968  55.7368851  65.0981092  17.6257372
  56.5429878  64.7695541  16.3874996   3.5363016  68.9279222  10.1008117
   3.4727234  68.2559490  10.7795179   2.6592636  68.9667749   9.7193319
  98.1926918 108.0412102  56.0838842  98.2531548 108.8799191  56.5412092
  97.2948742 108.0128860  55.7532167  32.7910399  81.8576908  25.4355931
  33.1466222  80.9769821  25.5545211  31.8749809  81.7843056  25.7033324
  53.4067631  58.5120821   6.2006980  54.3564415  58.6180544   6.2564379
  53.0773258  58.8665628   7.0265579  24.3791270  51.7749691  24.2396235
  25.2953315  51.7503691  24.5156598  23.8894629  51.9270992  25.0479031
  37.1390963  56.8353176  29.6800113  37.5325084  57.6719761  29.4320965
  36.6061997  56.5879488  28.9243245 107.3484993   9.8566359  93.5951042
 108.2941628   9.9813873  93.6750793 107.0557785  10.5871356  93.0502033
  61.5556288  65.3416967   6.2646997  62.2588491  65.4014540   5.6180614
  61.3673162  64.4053316   6.3279170  27.9815722  48.4639597  11.3648045
  27.5931096  49.2638493  11.0105407  28.5771060  48.7695980  12.0490241
   6.7498940  35.2913523  29.0819955   7.3592329  35.9681010  28.7871242
   6.9215089  35.2067184  30.0198746  45.4606152  40.8532143   5.9460777
  46.0905409  40.2548027   6.3477343  44.9502039  41.1925364   6.6813153
 109.9976635  58.1935072  35.0023961 109.6026039  58.5271549  34.1968918
 109.4630814  57.4342442  35.2347064  74.4960594 108.8132000  94.4353390
  75.3799152 108.9022446  94.7918510  74.6197701 108.8109112  93.4861660
 107.0058346  78.3592319  14.0473247 107.0537472  78.8020658  13.2000732
 107.8929138  78.4227657  14.4012892 114.2847157  60.1518631  27.7159166
 115.0376320  60.5767250  28.1268382 113.6918926  60.8716869  27.4999666
  30.7944417  44.7968435  26.3706350  31.0427284  43.8740349  26.4254618
  29.9646306  44.7936726  25.8935237  85.8285999  30.3127575  82.6922131
  85.4810143  29.4245934  82.7733231  86.6749287  30.2001500  82.2594547
  30.7450843  52.7214718  34.8323250  30.3180051  53.0343485  35.6297851
  31.3497519  52.0437765  35.1345539 101.2781525  14.2663860  78.5018492
 101.1618519  13.8169789  79.3389511 100.9259701  15.1439905  78.6501932
  36.1395550  68.5135269  13.4382486  36.0250807  67.7825308  12.8309810
  36.3317227  69.2640591  12.8761053 111.9285297  60.2854729  17.6900542
 111.1372089  59.7594166  17.8053820 112.2780323  60.3895664  18.5750663
 113.7211514  10.9218788  84.9882698 114.3882942  11.1690652  85.6286240
 112.9011440  10.9284723  85.4820156   0.8858376  73.5131311  19.5636201
   1.7425755  73.7591648  19.9124765   0.8156083  72.5750446  19.7405016
  27.4249959  74.3693924  21.1129594  26.7724490  73.6882687  20.9502196
  27.1514130  75.1004553  20.5589485 105.6683540   7.3460710  84.6745396
 105.3119183   7.2088432  85.5522346 106.0443306   6.4994037  84.4336414
  24.8556828  21.8691659  78.8212729  25.1607776  21.9641924  77.9189873
  25.1681709  22.6581335  79.2641163  19.3771374  74.1961813  17.5246811
  19.1904867  73.4038877  18.0283296  19.5159173  74.8735952  18.1865585
  50.0078678  58.9484215  20.4935980  49.9300528  58.4317684  21.2956214
  49.1871023  58.7912130  20.0268412 115.8079147  37.7809262  17.2328472
 115.2927780  36.9800735  17.3303211 116.2381458  37.8936195  18.0804515
  20.7620144  75.5579329  22.4981022  20.7339883  75.9639645  23.3644629
  20.3672338  74.6952200  22.6250267  56.6118002  15.4790330  89.2822456
  56.5605402  14.8983824  90.0414848  57.4010086  15.9996438  89.4317150
  10.5940080  40.4898739   5.9758931  10.0029528  40.2748442   6.6974527
  10.5149829  41.4385748   5.8761507  11.3557124  42.9001760  50.0697470
  10.8877409  42.8409767  49.2368412  11.2526488  42.0342588  50.4644537
  12.1696138 100.6223965  18.5811710  12.5631821 101.4884949  18.6870098
  12.2316957 100.2234268  19.4490421  64.7626162  59.3878078  27.9126787
  65.3352118  60.0741959  28.2550740  63.9468527  59.4897556  28.4029555
  36.7187381  37.4706697  24.1352749  35.9079790  37.5158095  23.6284566
  36.4474726  37.6429725  25.0369167   7.2220993  31.7629981  84.1543865
   6.8453825  31.6940117  83.2771397   6.8994915  32.5999928  84.4884396
  21.4578390  73.2219172  38.9295793  20.9097338  72.6300192  38.4143424
  21.4625835  72.8406048  39.8075390  82.8767300  12.6077938  72.2153044
  82.1932125  13.2766724  72.2556973  83.3752537  12.7256501  73.0238962
   1.1558104  15.4701459  88.6923409   2.0788130  15.2314210  88.6068535
   0.6829964  14.6474099  88.5667038 104.1302204  36.3120484  18.4363770
 104.0183926  37.0063329  17.7869952 105.0573254  36.0802412  18.3819377
  54.5622730  42.6910114  14.9571192  54.8669481  42.0660734  14.2992008
  54.9887276  42.4125528  15.7675695  38.7801480  44.9815130  32.9739594
  39.0978622  45.5836535  32.3011184  37.8264785  45.0293350  32.9071712
  46.9805002   7.6785213  25.8867550  46.7109394   8.5586649  26.1492729
  46.3407660   7.0988047  26.3001561  34.9861860  44.6426773  12.5928199
  34.8031855  43.9036131  12.0127082  34.2047954  44.7162628  13.1407666
  20.9775209  55.5483961  14.2985153  20.3435564  55.6153727  15.0125420
  21.6225934  54.9133730  14.6097422  39.0264678  59.4904757   6.3395721
  38.5736418  59.4259262   5.4987311  39.0697575  60.4301357   6.5167785
  37.9824424  41.6234779  20.1234126  37.3223877  41.1630869  20.6416798
  38.6423326  40.9576273  19.9299765  21.5275955  44.5104599  39.6522546
  21.1419559  45.2303219  40.1515722  22.3769498  44.8459530  39.3654156
  17.6250875  69.6135283   9.3389875  16.7886102  69.6878433   8.8796234
  18.2737505  69.9235487   8.7070411  28.9467645  60.9759378  22.0173216
  28.5355663  60.1592970  22.3005867  28.3596087  61.6622543  22.3342586
  61.1808300   1.5284094  81.7239475  61.1832762   2.4766749  81.5934944
  61.0412502   1.4163628  82.6642609  24.0232420  19.0749943  52.3598194
  24.7185397  19.6817517  52.6140594  23.2880592  19.6396077  52.1211767
 115.6004143  21.7876625  71.5576363 116.0909462  22.1072865  72.3149061
 114.7085476  21.6669202  71.8835640  24.3844843  75.0429726  20.2630115
  23.7661695  75.5635452  19.7502494  24.0644360  74.1443491  20.1837420
  28.3708048  90.1898384  18.0430126  27.8182030  90.2708054  17.2656417
  28.2212973  91.0009956  18.5287023  31.7380238  42.8762388  37.0053077
  32.4579859  42.2600412  36.8704581  31.9931364  43.6547136  36.5102077
  17.3258650  66.6051102  75.0149059  17.6603127  66.1284542  75.7746315
  16.3783967  66.6335154  75.1480532  91.2682304  12.8283946  94.4801912
  91.9533059  12.3718946  93.9918148  91.0356125  12.2257917  95.1865861
   1.3601543  60.4877234  28.7506986   1.6510825  60.7196903  29.6326208
   1.7722303  61.1393452  28.1834149  20.8397484   7.1053511  29.0692568
  20.4449987   6.5950125  28.3621764  21.7790389   6.9395626  28.9887643
  28.8344312  56.1140251  46.8230915  29.3547821  55.3475952  46.5821457
  29.4436598  56.8489408  46.7525864  34.1164708  49.8070717  76.3304615
  34.3855047  50.4073477  77.0258141  33.5035133  50.3152752  75.7991934
 114.9334908  52.5933313  23.6156726 114.0550137  52.2319889  23.4975886
 115.5213451  51.8723679  23.3900976  78.9717865  67.8526688  18.4111154
  79.2360353  68.7496662  18.2066441  79.7321081  67.4736261  18.8521087
  94.2628193  36.5842462  18.2117653  95.1901150  36.4939857  18.4313262
  94.0145016  37.4376273  18.5671639   3.7283736  16.0768116  76.6267252
   3.3162346  15.8997607  77.4723148   4.6493164  16.2315345  76.8368578
  25.2460122  58.4489346  44.0648460  25.2981877  57.5575781  43.7198877
  25.8699298  58.9470243  43.5367727  98.7521839  21.2074733  74.2889357
  99.5460987  20.6728172  74.2802525  98.5005760  21.2476802  75.2115965
  40.7030773  53.0944967  31.2662125  39.8135042  52.8810310  31.5478635
  40.9781456  52.3382711  30.7478547  69.1744757   2.4192260  70.3926134
  69.1792870   3.0298945  71.1296940  68.7526321   2.9036683  69.6829700
   2.9297441  16.1627734  91.8047523   3.3085144  16.8849754  91.3035679
   3.3568314  15.3799379  91.4569092 104.5043373  77.1652603  32.0633316
 104.3658924  78.1049156  31.9445109 105.2161789  76.9499540  31.4607072
  48.1706905  98.4927654  83.6179924  47.7051306  97.8655815  83.0646992
  48.3212805  98.0229187  84.4382381  82.5002384   9.4247103  77.1656561
  82.9937077   9.0577048  77.8991556  81.6934204   8.9103645  77.1385384
  34.4301939  18.1735981   0.9959838  34.1666913  17.6443481   0.2431940
  34.9081993  18.9103377   0.6152481  40.7012224 107.4496078  15.2270579
  40.8382273 106.6911316  15.7946622  39.7573614 107.6055622  15.2593660
  55.8656836  52.1480656   6.7660302  55.9839869  52.9479027   6.2536860
  55.9540129  52.4313116   7.6760858  16.8135107  47.6522636  18.7231863
  17.0717645  47.2239161  17.9070663  16.4127755  46.9555235  19.2429864
  17.1451008  60.6386614   8.8056701  16.4809990  59.9511194   8.8555205
  17.9743838  60.1659441   8.7345356  96.3481045  20.6318831  62.5009346
  96.3108349  20.6942129  61.5464926  95.4323483  20.5717826  62.7729750
  24.2224741  60.6781721  45.4583502  24.7936940  59.9523687  45.2070570
  23.6897707  60.3276396  46.1722040 103.9272690  20.1839066  86.8310642
 103.6051083  20.4781914  87.6830196 103.3046150  20.5468559  86.2011337
  77.6094484  52.1741486  28.8952041  77.1916485  51.4094448  29.2913127
  78.1098270  51.8198204  28.1601501  11.2063229  58.3766031  38.6672258
  11.1023045  58.9148998  39.4518614  11.9339180  58.7806034  38.1943345
  66.0707998  96.2519169  77.5466347  66.6583252  96.9412231  77.8563118
  66.5165520  95.8816624  76.7847633  24.7834802  75.1260376  28.0328989
  25.0272655  75.0950098  27.1077824  25.0456882  76.0005474  28.3204865
  50.1657152  49.7569990   8.4862566  50.2169180  50.6596708   8.1719476
  49.2482567  49.6411037   8.7333745  10.9882629  52.4558306  51.0848093
  11.9342208  52.5087595  51.2211657  10.7982862  53.1488228  50.4524279
  59.6992111  76.8510818  70.7602024  59.0984678  77.2522879  70.1322126
  59.9316692  77.5622416  71.3572359  80.7441235 105.2197552  78.4695673
  80.2045727 105.8063889  77.9394913  80.1761436 104.9629211  79.1959715
  24.1170430  68.3784676  42.5889301  24.0001893  68.8975430  43.3846331
  24.1939998  69.0269423  41.8890810  22.2740602  84.9599552   9.1030306
  21.9494820  84.1019249   9.3763041  22.2901464  85.4774761   9.9081045
  53.3302879  58.0413246  36.9247437  52.8000975  57.3563814  37.3321581
  54.2251682  57.7032471  36.9582009  23.3544397  51.7180443  31.1886668
  23.7679100  52.5424004  30.9323311  22.4281645  51.8397093  30.9802341
  37.3798132  51.9455385  22.6156425  37.7448654  52.4672270  23.3303499
  36.6224146  51.5062189  23.0023980   9.9959636  19.0989208  36.6149044
   9.6020597  19.6608615  35.9476018  10.8727610  18.9091337  36.2810802
  49.9270010  52.3058891   8.2650828  50.5345201  53.0354309   8.3872545
  49.2771578  52.4165630   8.9591175   0.2728492  69.8942661  55.8704329
   1.1570653  69.9249935  56.2357378   0.1897763  69.0080118  55.5184650
   7.0063585  16.2081075  87.1016312   6.2414843  15.7754433  87.4811077
   7.4738842  16.5712130  87.8538322  93.7872314  75.0316525  50.9661341
  93.1336403  75.5772448  51.4036036  94.5917511  75.5492735  50.9984970
   2.1472591  50.5218220  34.0151048   2.2927701  51.3890171  33.6369109
   2.2816320  49.9167824  33.2856512  22.3293519  80.0142479  15.8351421
  23.1563902  80.0449848  15.3542089  22.4831295  80.5537033  16.6107559
  45.6868792  62.7220345  19.6308482  46.1930609  63.0657101  18.8947117
  46.2533808  62.0564318  20.0210762 113.8990402  10.5618346  92.0211697
 113.0091953  10.3639519  92.3131371 113.9332485  10.2383423  91.1209393
  58.3486652  82.9155540  90.9784889  57.5563145  82.5361824  90.5983829
  58.0340433  83.6527920  91.5016747  25.6734991  65.0674486   7.4000013
  26.1417294  64.7110462   8.1549633  26.1257720  65.8877563   7.2030801
  79.3389082  84.3018246   9.7717297  79.0496397  83.8024712  10.5354023
  79.7354269  85.0920868  10.1384616  68.4600925 100.8860111  24.2823792
  68.6330128 100.7780647  23.3471370  68.7690735 100.0713348  24.6786785
   2.8508848  58.0806303  36.9897842   2.9936081  58.8856554  37.4875736
   2.6640666  58.3793068  36.0997701  85.7789612  53.7487984  12.1691418
  86.4517689  53.9979935  11.5355325  85.3936577  52.9505110  11.8078744
  24.0593410  69.4446325  30.0924826  23.2292843  69.1101551  30.4321337
  23.8140082  69.9557066  29.3212199  37.7138543  80.1276016  31.3214517
  36.9748545  79.6543503  30.9391642  38.4428859  79.9548578  30.7257104
   2.1361805  16.6763365  71.1792040   1.7140397  17.4483776  71.5560102
   1.6072528  15.9401464  71.4866018 101.3293839  22.9848504  76.5872383
 102.0979977  22.8055358  76.0456514 101.1973476  22.1807194  77.0894051
  27.6570439  81.0644627   6.2613457  27.5470901  80.5932617   5.4354441
  27.4455047  81.9734097   6.0485178   8.7200731  43.3448792  89.6514320
   8.2200176  43.9662743  90.1806259   8.7593710  42.5520420  90.1863194
   7.0971465  88.7868595   8.1698555   7.7806759  89.3623447   8.5131299
   7.5461596  88.2393837   7.5257385  65.8541489  33.6973190  47.9731274
  65.9938431  33.5456109  48.9078474  64.9614525  33.3919263  47.8116989
  20.7304621  92.5078773  15.5658019  20.3283978  93.3337212  15.2964318
  20.1233745  92.1450996  16.2108350  31.0481954  47.8016710   1.7378084
  31.6601849  47.4452114   2.3817328  31.4995193  47.7048922   0.8992554
  44.5724964  68.3578253   5.8366889  45.0564909  68.9145517   6.4466327
  43.6661053  68.6575031   5.9065127   2.2597766  89.3939590  30.1475167
   2.4102823  89.5025444  29.2084789   3.0324391  89.7799301  30.5601311
  38.9170671  79.8312235  10.9515965  38.6163306  79.1010952  10.4105735
  39.6737266  80.1817608  10.4816854  11.0829043  10.3073621  61.0968256
  11.4240086  10.8394444  61.8156910  11.3777363   9.4186962  61.2957716
  80.0276661  82.9114246  20.2569056  79.1097403  83.0863190  20.4644203
  80.0796127  81.9583321  20.1851797  48.7769318  91.8889332  34.8254490
  48.1747007  92.1676826  35.5152655  49.6091461  92.3041344  35.0518703
  84.5147800  69.0842104   8.6223578  84.8101044  69.3280125   9.4996101
  83.8068390  68.4579182   8.7734050  61.7925024  81.6165543   7.3023498
  62.1144676  81.2315273   6.4872897  62.4620247  82.2557068   7.5461781
  73.4874964 105.7462025  94.2820168  73.9407635 106.5758991  94.4316387
  72.8117514 105.9553432  93.6371422  74.5363474  54.0791559   1.9804975
  75.0252342  54.1532183   1.1609015  75.1748228  53.7458229   2.6109484
  97.1232414  96.1462021  87.8255081  97.3749065  95.3556824  87.3480415
  96.2051678  96.2845802  87.5926495  32.3266292  91.7937183  60.4262400
  31.9148159  92.6539230  60.3444529  31.8346930  91.2345123  59.8249722
  44.5914555  84.0045834   1.9514897  44.4120073  83.9845371   1.0114752
  45.0756502  84.8193264   2.0855774 104.5331001  11.1846375  20.9040499
 105.0210857  10.7993746  20.1762605 103.6653900  11.3643622  20.5421138
  12.0852768  89.9996376  21.2710977  11.7324090  90.4882812  22.0147038
  11.3389313  89.8874187  20.6823659  14.4503498  14.1301286  79.7405243
  14.9689150  13.6914837  80.4150009  15.0990093  14.4841075  79.1321087
 102.3336506  17.8462255  88.9223385 103.2358646  17.5355446  88.9979839
 102.1427536  17.8016722  87.9854202   2.4145402 102.8884506  22.1053624
   2.4299844 103.0211258  23.0531979   2.8707835 102.0575619  21.9723535
  61.4771414  89.7613430  37.0043707  61.4056063  90.4137039  37.7011752
  60.5716944  89.5790958  36.7530203 101.3278770  57.8173876  92.4079800
 101.9812202  58.1696510  91.8035984 100.5415535  58.3367252  92.2399807
  12.3870444  84.8635292  45.5751276  11.9785941  84.3162727  46.2458849
  11.8801773  84.6888351  44.7821569  20.8335352  66.0834932  12.6868093
  20.9823084  66.1213112  11.7419982  20.4234219  66.9220877  12.8984523
  19.4446492 102.8238964  17.2748673  20.0687289 102.1419716  17.0263898
  18.6201203 102.5524902  16.8714762  45.7112503  59.4398594  15.3063440
  45.9650326  58.5250854  15.4288614  45.0969505  59.4217730  14.5724905
  42.6870680  60.6196070   6.1130130  42.3330545  60.5822706   5.2244687
  42.4975157  59.7573042   6.4827889  44.9103308   7.5720364  88.8257599
  45.5626249   8.1062174  89.2789555  44.1470289   7.5850356  89.4032001
  52.2927189  72.5722933   4.3971029  51.9000006  73.4213066   4.1941625
  52.1580935  72.4650621   5.3387022  32.4972773  92.0853043  10.2430332
  32.7690339  91.3028622  10.7227862  31.6050529  92.2540760  10.5458248
  29.0425992  81.0109615  22.9059005  29.4081116  81.0274792  22.0213890
  29.0662479  81.9241238  23.1919146  33.9281487  69.2892313   9.9368876
  33.4769797  68.4603453  10.0969720  34.6087575  69.0723085   9.2997468
  27.5467113  64.5998706   0.0045793  27.9121974  65.0972624   0.7361905
  28.3112720  64.2500122  -0.4528792  39.7368050 105.8563232  53.4854841
  38.8433790 106.1313057  53.6914110  39.7024965 105.6016350  52.5634241
  38.5169220  96.6499233  32.4203944  38.6507893  95.9449959  31.7868447
  37.6337242  96.9709873  32.2384167 101.1837673   4.8705474  77.3769665
 101.9541740   5.2370673  76.9429541 100.8816433   4.1806030  76.7862654
  54.1734099  94.3777139  -0.0810321  53.5752975  94.9664052  -0.5413993
  53.6575901  94.0349443   0.6488149  41.2167311 105.4835987  17.3813295
  40.8339596 105.5235291  18.2577562  41.3309193 104.5484066  17.2122145
  76.0927820  91.6592884  14.9710381  77.0286131  91.8505859  15.0331593
  75.6639814  92.4819374  15.2068782 110.8303356  16.5948939  88.3266830
 109.9462509  16.8735564  88.0879879 111.2466049  16.3782263  87.4924183
   5.8002591  63.9458847  24.7053695   6.4589494  63.6653376  24.0700340
   5.7955277  63.2540131  25.3668261  45.8772230  89.0744019  27.3341322
  46.5866852  88.4498596  27.4852562  45.0920391  88.5318375  27.2610068
  58.7898016  66.5337372  12.1922588  58.5047626  67.3640633  12.5737667
  58.0535936  66.2551403  11.6476309  48.2071400  80.0374985  24.8498917
  48.3817196  79.8545885  23.9266920  49.0641975  80.2531147  25.2175808
  20.8625746   5.8863872  77.7052927  20.1948476   6.4944059  78.0226040
  21.0214853   5.2984589  78.4437513  32.8708744  84.2649841  34.4626164
  32.5733018  84.6788025  35.2728224  32.2320271  83.5711002  34.2994261
  41.2678099  60.8680439   0.6533346  40.4599190  61.2619209   0.3240857
  41.2683964  61.0694218   1.5891120  99.2964649  25.3509688  84.3808746
  99.1718006  24.5511055  83.8700771  99.0284729  26.0558462  83.7913322
  67.7274227 102.3614216  32.7710319  66.9533348 101.8184185  32.6221204
  67.5641108 103.1558609  32.2626734  26.1499500  82.9652786  24.6080375
  27.0057702  83.3893490  24.5450425  25.7928967  83.2691956  25.4425287
  23.1507897 100.5740929  22.5411701  23.0456376 100.4054928  21.6048217
  23.4213471 101.4909363  22.5905442  35.2436423  76.5529013  90.8947086
  35.9343314  75.9848833  90.5533409  35.7113743  77.2397232  91.3698196
 105.2271557  18.9398885  90.1700783 104.7196293  18.4037352  90.7793331
 105.3123856  18.3965659  89.3866444 100.2649403  52.4249172  88.8997078
 100.6957340  52.8449249  88.1552315  99.5954514  53.0517006  89.1738605
  43.3846998  90.9440899  31.1232281  43.5012245  90.5238152  30.2711582
  44.2684746  90.9969807  31.4870644   7.0816159  27.5667596  92.0563698
   8.0017167  27.7022505  92.2828388   7.0236933  27.8116727  91.1328506
  69.0045834   2.2144954  30.4522133  68.9050531   1.4282025  30.9889364
  68.5116100   2.8881729  30.9205794  84.1049290  17.7950191  94.6013832
  84.7369003  17.1756697  94.2363453  83.3723640  17.2492290  94.8871994
  13.5348749  89.0570259   3.0632630  12.7996325  88.4471893   3.1244591
  13.8017619  89.0190315   2.1448082  88.9594650  44.3567276  89.2887497
  88.0371380  44.1033363  89.3251228  89.0384865  45.0654984  89.9272156
  27.9399014  14.4453228  89.0704823  27.3948908  15.0423038  89.5831299
  28.5468006  15.0180435  88.6015415  52.0576143  85.3239918  16.9618666
  52.1469402  86.2730503  16.8750572  52.3997736  84.9749374  16.1388695
  24.7504377  88.7969685  28.8792253  25.3589559  88.9940357  28.1671143
  24.8963332  89.4940662  29.5187545  77.2602892   0.0959135  24.7530961
  78.1374741   0.4705206  24.8334146  77.1179342   0.0195445  23.8096261
  55.9995127  88.9901447  19.0868127  55.2996635  88.6407661  19.6385181
  56.7799091  88.9567661  19.6400714  42.2730637  55.6289768  13.1782246
  42.6975965  55.7349157  12.3268819  42.2649193  54.6832514  13.3257747
   1.7819831  56.8161201  91.7267704   1.7588282  56.1725521  92.4349403
   2.1834178  56.3505507  90.9930611  35.4668307 108.0193901  43.2810163
  35.1541376 108.8630962  43.6075497  36.0061288 107.6724911  43.9916801
  58.8179255 106.5105057  17.9404747  59.4551897 106.1762142  17.3093045
  59.3365526 107.0379543  18.5479820  10.5273783  95.3983498  47.1223354
  11.1199236  94.7254181  47.4574184  10.1353657  95.0055122  46.3424397
  46.1012363 106.0624790  60.3308296  47.0476675 105.9479141  60.4167032
  45.8248520 106.4146042  61.1769104  44.1135454  85.3023720  21.9518256
  44.6494389  85.0330734  22.6978302  43.2124043  85.2347565  22.2674322
   3.5976249 101.2407589  28.3026314   3.1819767 102.1019650  28.2602024
   4.0370944 101.1450291  27.4576855  62.5596619 104.9172306  74.1343689
  63.3370495 104.9053574  73.5760164  61.9012213 105.3824139  73.6183310
  39.3073583 102.3857117   1.0969437  38.8547349 102.4164963   0.2540812
  38.7524486 101.8324947   1.6467291  91.3104439  83.1204319  23.0465627
  90.6909657  82.5825691  22.5534368  90.7691383  83.7966442  23.4539223
  38.8418961  78.9391470   7.9930913  38.2106876  79.6188498   7.7568406
  38.3235955  78.1355762   8.0363822  56.9209194  96.5370655  20.7814217
  56.1440706  96.7925262  20.2839494  56.5805101  96.2625790  21.6328979
  29.9053645  69.3626213  23.5068727  30.4525161  70.0653887  23.8575554
  30.5287290  68.7209940  23.1663394   8.6373913  86.0810947  24.8039699
   8.7799352  85.3012085  25.3403378   7.7545482  85.9708595  24.4508839
  38.2992458 102.8618526  25.6715846  38.0562449 102.8921700  24.7462416
  38.4081125 103.7796021  25.9208202  10.0282943  63.7343311  20.1037216
  10.1687479  64.5959377  20.4963255  10.6810629  63.6798763  19.4057536
   7.6590174  90.9215355  37.7617478   7.9150873  90.4692173  36.9579649
   7.5804585  91.8402863  37.5049305  59.7134304  68.9747620  15.3062356
  58.9837313  68.4098053  15.5603921  60.0808477  68.5558701  14.5279253
  78.1606722   9.3565577  78.5166073  78.5493183   9.9725419  79.1376925
  77.2861910   9.7069830  78.3471394  36.7044997  96.9561386  17.4683940
  37.6612902  96.9820690  17.4579084  36.4878702  96.0393047  17.2989607
  50.5593348  88.5905552  12.3207843  49.7898102  89.0777016  12.6153171
  50.8134127  89.0163231  11.5020084 107.8659058   4.7133678  33.6153150
 108.5953522   4.7883704  34.2305541 107.3717022   3.9528751  33.9213300
 115.5843258   2.9172093  84.7868633 116.3757515   2.3789108  84.7764683
 115.0799561   2.5872061  85.5304623  25.1909375  71.4019251  23.3235979
  24.9247694  70.8576202  24.0646219  24.7074914  71.0451174  22.5784802
  31.8035817 100.0787354  32.9961109  31.0314846 100.6141186  33.1790400
  32.2146940  99.9512768  33.8510799  60.9326696 101.1664295  33.5871506
  60.3993273 101.5643501  32.8990817  61.8355703 101.3389587  33.3202553
  17.1435189  86.8226337  35.0030208  16.2902606  86.5158272  34.6963406
  16.9393790  87.5496960  35.5911875  69.4373178  90.0815392  26.8900013
  68.6916685  89.6547699  27.3120308  69.1336012  90.9712219  26.7098260
  61.0762644  99.5961857  30.5167198  61.5140629  99.4731998  31.3590026
  61.4623165  98.9311028  29.9467540  22.0195627  46.7447948  27.5244236
  21.2113786  46.4087152  27.9118800  22.6010156  46.8893290  28.2709193
  20.0645518  65.8310270  19.9282217  20.3212738  65.4587936  20.7718873
  19.6363425  65.1090288  19.4682312  54.5238113 106.4610672  41.2903881
  55.3426313 105.9653473  41.2961435  54.4725132 106.8489552  42.1639681
  48.5875988  60.9248590  11.6353595  47.8539658  60.4201555  11.2842333
  48.7516689  60.5412722  12.4968541 106.8450737  46.0879803  53.8100100
 106.6787338  45.2187204  53.4453821 107.7669144  46.0675478  54.0669489
  29.9202490  67.1622562  30.4980373  29.6041369  67.3020172  31.3906598
  29.1710043  67.3767328  29.9422812 107.9841042  22.2462916  82.9715824
 108.6256504  22.3009777  82.2633076 108.2948971  21.5269017  83.5212421
  71.0705757  82.3196030  33.4671354  71.0575104  82.8331375  34.2748165
  71.8270969  81.7411137  33.5633326  74.8095226 108.3478546  60.1342154
  75.5373669 108.6090374  60.6983614  74.3088007 109.1527271  60.0012159
  40.4921579  86.1880684  21.1795568  39.5506763  86.3577652  21.1472058
  40.6418896  85.5370903  20.4939556  19.4533563  83.5543442  12.8324533
  18.9813232  83.2358170  13.6018431  19.4288743  84.5077324  12.9141521
  29.7108984  49.4646692  21.7133331  30.5604887  49.8213863  21.9725227
  29.8957372  48.9548588  20.9245634  71.3948059  53.9869738  30.4453373
  71.9680023  54.1099262  29.6886611  71.9524527  53.5718155  31.1032915
  61.8883038  85.6291866  13.2983649  62.2541380  85.1047516  14.0106654
  62.2879744  86.4921856  13.4066164  79.6367836   2.0197153  40.8385420
  79.2209625   1.9336569  39.9806857  79.7462463   2.9630905  40.9580946
  54.4807386  23.1033731  87.9767704  54.6586275  24.0220809  87.7753544
  53.7862873  23.1325769  88.6348820 103.6720848  59.3603992  87.0522213
 104.5072365  59.5852709  87.4623299 103.8737297  59.2942429  86.1188412
  46.8653202  58.9698744  10.7342637  47.3137093  58.1415701  10.9048223
  45.9823561  58.7138033  10.4677474 107.0195770  10.2336740  75.7118464
 106.3430977   9.8702306  76.2832689 106.9505405  11.1808717  75.8313608
 112.8577137  45.1502752  92.1187973 113.0073547  45.5190945  91.2482738
 113.2679272  45.7746601  92.7172089   6.3137072  44.8434591  71.3763762
   6.8582255  45.5050373  70.9497070   6.9394517  44.2462921  71.7863369
  23.5065079  88.8119793  36.3555741  24.4483209  88.6823750  36.2441111
  23.1822658  88.9848423  35.4717088  31.0056686  57.3565435  35.0458694
  30.2540183  56.8043423  35.2611089  31.6365528  57.1855307  35.7451344
 107.9572296 105.3756618  23.0899668 108.3570004 106.2267590  23.2690024
 107.9048729 105.3317261  22.1352100   8.3681828  36.5354657  86.1866951
   8.8248098  37.0842099  86.8243504   7.4483579  36.7871284  86.2692738
  76.8569040   0.3914215  15.1478708  77.6373625   0.9377654  15.2407598
  76.7292690   0.0066965  16.0150075   1.6183597  60.8387566  13.9467108
   2.2033556  61.1011505  13.2359636   1.3127194  61.6643476  14.3224990
  59.1547251  98.2813835  41.2533951  58.9718151  97.6025963  41.9030333
  58.9622021  97.8663445  40.4126167 108.1215763  52.2548294  77.8461456
 107.7786446  51.9975567  76.9903183 107.8005600  53.1474400  77.9743290
  87.1418667  15.9835243  31.0728621  87.4511814  15.9954584  31.9786310
  86.7504597  16.8471861  30.9420347  58.6405849  90.4393005  23.8584471
  59.2991590  91.1313534  23.7985945  58.5878897  90.2390003  24.7929692
  73.0947828  94.5927525  33.8753963  73.9278078  94.1215706  33.8923979
  72.7531767  94.4435692  32.9937625  30.1207566  77.0872259  10.6786382
  30.5281162  77.7567101  10.1290154  30.6785703  77.0429373  11.4552438
  70.5466270 109.2055893  43.8293886  69.6935415 109.5460892  44.0986967
  70.6208467 108.3633423  44.2781067 104.8164082  48.4193420  75.6936598
 103.9665031  48.5687160  75.2794409 104.7423840  48.8394928  76.5505314
 104.4836044   3.8262901  60.2639818 103.7911320   3.4344685  59.7318220
 104.8897362   3.0845565  60.7124424  76.6522503  13.3738804   6.8318295
  77.3262358  13.9773774   7.1445060  76.8147039  13.2997930   5.8914298
  44.6869183 103.5031414  19.8595345  44.5349789 102.5995445  19.5826399
  44.1184139 103.6191654  20.6208277  47.3180532  81.4964962  17.0095634
  46.7337894  81.2354851  17.7214217  46.7566872  81.5177345  16.2345481
  99.7712421   4.9674729  32.5593901  99.9087429   4.0512845  32.3187137
  98.8908291   4.9870315  32.9345250  90.8879852 101.3770580  10.5015481
  91.3901234 102.1360970  10.7981062  91.0728359 100.6988811  11.1512685
  58.6803770  96.3998127  43.2656670  59.1153479  95.5571079  43.3955908
  57.8183746  96.2887669  43.6667347  50.5170012 108.1344032  17.4964929
  49.6719313 108.3420563  17.8952014  50.2964973 107.8080940  16.6240633
   6.1041963  15.9616482  80.5861187   6.9276267  15.8603823  81.0635471
   5.7155836  15.0868964  80.5906200  58.4852409  73.6758471  27.6309323
  57.7865648  73.9678335  27.0454121  58.9510822  74.4781208  27.8666854
  29.2918253 104.3097973   2.8304818  29.5810246 103.6722279   2.1777217
  28.9159584 105.0247478   2.3168615  26.0941696 108.4641361  13.4485340
  26.3384914 107.9003048  14.1824508  26.8410158 109.0528965  13.3398461
  77.7392101  82.1029568  48.8809824  78.3319092  82.6803398  48.3997631
  78.3004665  81.6603756  49.5176506 109.4571114  11.1337316  48.1095409
 110.0352764  10.7560921  47.4467087 108.7671757  11.5667951  47.6068735
  72.8628159   7.6574707  50.8106136  72.6055431   7.1666718  50.0301266
  72.3554134   7.2627527  51.5198231  33.9393997  89.2098618  39.7965765
  33.5388803  88.4502888  40.2195072  34.0842009  89.8321819  40.5093050
  68.7743711 103.3215809  25.3307414  68.7329674 102.5034237  24.8356318
  67.8868008 103.4425640  25.6681037  14.5924127  87.6826382   8.6375260
  14.1483915  88.2658577   8.0219513  13.8825250  87.2364998   9.0993178
  73.3421469   0.2668167  35.5580187  72.6787090  -0.1757892  35.0286937
  72.8412867   0.8309586  36.1471820  41.6839123 102.3075199  39.2044425
  42.1877432 102.4057293  38.3965206  41.5816021 101.3616085  39.3094254
  30.2608514  86.4353371   6.9905376  29.7016835  86.1429501   6.2707645
  30.4412723  87.3548889   6.7953497  99.5499325   7.0488894  18.0301106
 100.1248360   7.7971733  18.1906927  98.8348389   7.4050635  17.5028360
  76.9761658  96.1435127  44.3230820  76.9616747  97.0107269  44.7279882
  77.8535557  96.0690498  43.9477491 104.6785069  13.1505346  14.5147920
 104.6608353  12.9018009  13.5906434 104.2173767  12.4412620  14.9625909
  28.1453776  98.0872250   0.1451482  28.5563397  97.3560238  -0.3160333
  27.5283265  97.6733398   0.7486184  26.2849641  75.1030159  11.0718465
  25.4585528  75.5844450  11.0330439  26.9087863  75.6601334  10.6063390
  40.3582525  98.1899548   9.3425411  40.5699253  98.3783531  10.2568352
  39.8832774  97.3594761   9.3728793  14.5299542  20.0832367  87.7345276
  15.1156688  20.3746510  88.4332752  15.1088989  19.6722853  87.0925140
  53.3990765 106.3226891  75.2041674  52.6620960 106.7684555  75.6217527
  53.3121109 106.5351295  74.2748976  64.8474550  98.0769157  25.0843716
  65.6829548  97.6138210  25.0234103  64.3040895  97.6813793  24.4027996
 101.2639809  85.4155350  18.3000350 100.6905079  85.0656414  18.9818966
 101.2628269  86.3612080  18.4480941  53.3186960  95.4891109  39.1667652
  52.5957155  96.0962296  39.3246818  53.9223480  95.9762287  38.6059141
  21.6061020 101.5166950   6.5747219  21.6186452 102.3484898   6.1012340
  21.2213874 101.7306995   7.4246794   5.3029823  46.7410231  93.2011890
   5.6116635  47.6468897  93.2199955   4.5934275  46.7163992  93.8431835
  31.0459876  95.4188728  36.5162921  30.9967971  94.4658089  36.4421844
  30.9629750  95.7336998  35.6161690  25.2356386  96.9324589  14.7747707
  25.4571462  97.7035713  14.2527151  26.0497332  96.7055702  15.2242196
  89.4262123   6.7327088  44.6294737  89.4020844   5.8358896  44.9631882
  88.5825920   7.1060282  44.8847342 114.1603756   6.0582680  28.7019277
 113.2207203   5.9442353  28.8442945 114.5295429   5.1841712  28.8280368
  92.2986221  14.2785573  23.1750607  92.3623180  13.4102893  23.5729098
  92.6769447  14.1705251  22.3024631  68.7672472  99.9886417  17.2613084
  69.6511221  99.8871613  17.6144290  68.8647604  99.8300171  16.3223934
  53.5570383 105.3043175  44.2848730  54.4722748 105.5473709  44.4245052
  53.5850477 104.6640968  43.5738420 101.6638184  22.0536613  94.0341282
 100.7474041  21.9577980  94.2934036 102.0821476  22.4757218  94.7845268
  50.3887415  93.3613110  19.4691193  51.3303328  93.3520508  19.6410310
  50.0350761  93.9821815  20.1060462  42.3807049 103.4007168  22.0258498
  42.2310925 102.8108215  22.7646852  41.7727757 103.0984306  21.3511062
  91.0657310  37.7426362  29.7655892  90.8154583  37.9965210  30.6539226
  91.5278339  38.5061240  29.4194984 103.2126904  35.6465483  87.3656464
 102.3138142  35.7833600  87.6648808 103.1765842  35.7989454  86.4213467
  28.6787343  96.8224430  33.7830567  28.5039425  97.1383190  32.8965425
  29.6025205  96.5720654  33.7703109   5.3755879  71.2466669  85.6152439
   5.9327888  70.5226040  85.3297806   5.0627750  71.6431522  84.8021126
  70.7920504   0.0962327  25.2128983  71.4523029   0.1245459  24.5204449
  69.9744844   0.3312428  24.7740459  94.3829918   0.2395971  56.5140629
  93.5386658   0.2543378  56.0633659  94.3588829   1.0016198  57.0928288
  28.3126521 100.0519943   8.7445325  28.1598330 100.9792137   8.9265776
  29.1748428  99.8731422   9.1198623  87.7453041  95.2463913  25.1958418
  87.6056671  96.1207485  25.5594945  88.6448002  95.0268650  25.4386330
  47.3868513  81.5796947   1.1508182  46.9409895  81.9640446   1.9056150
  47.3023844  82.2386074   0.4616667 103.1494808  62.9814672  92.8331089
 102.3222160  62.6194239  92.5156212 103.7750149  62.8006268  92.1315193
  63.8170195  92.2072315  33.3316660  63.0240917  92.4172497  33.8250136
  64.2421961  93.0530739  33.1902385  80.9766674 105.9557056  69.4534969
  80.8288002 106.8370628  69.7963953  81.0239410 105.4006672  70.2319098
  38.3770347  77.4003267   1.9929111  37.8017807  76.6465950   2.1240565
  38.5343385  77.7378654   2.8747022  50.0917196 102.1991158  25.5773401
  50.0879669 101.3682652  26.0526347  49.7225332 101.9863892  24.7202063
  41.4906502  99.0560055  40.1401091  40.9121418  98.3554173  40.4413366
  42.3449039  98.6355305  40.0416899  63.6256647  48.4476137   8.1420314
  62.9475927  48.8650990   7.6108474  63.2045794  47.6639128   8.4952092
  34.0569496  25.1537776  94.6280766  34.2223001  24.2110491  94.6406078
  33.8950372  25.3563213  93.7066650  27.8770638  79.5580387   4.1504511
  28.3863997  78.7759590   4.3629685  28.1784725  79.8103142   3.2776731
  95.7045364  49.7675800  81.9384766  96.4887238  49.2323780  81.8166542
  95.8109474  50.1540136  82.8077126  59.5685053  79.2633343  22.5623512
  60.5203629  79.1871119  22.4961185  59.2330599  78.6516953  21.9069099
   5.0657088  33.5796380  78.3956957   4.3374774  34.0131998  78.8405943
   4.8392811  33.6238098  77.4667120  41.5207624  67.1040630  62.0332527
  41.5105057  68.0541801  61.9174719  41.4720392  66.9777155  62.9808283
  71.7702961 104.5731354  10.7994366  71.6532898 104.4188499   9.8620248
  70.9287596 104.3346977  11.1882818  71.1821079  90.4905605  43.1607342
  70.6050730  91.0958385  43.6264610  71.8958426  90.3194427  43.7751722
  44.9804211  73.0723858  16.8362141  45.6467152  73.4449244  17.4137044
  44.3562794  73.7851286  16.6995502  19.0126979  97.7119827   5.4805630
  18.5711312  96.8762684   5.6316543  19.8904622  97.4692535   5.1858735
  10.5999887 107.2889137  29.8927879  11.0104716 106.8248272  29.1631532
   9.8264503 107.7019978  29.5090795  36.0240388  93.6721325  40.1228905
  36.8971491  94.0532494  40.2159786  35.7953286  93.3790970  41.0049629
  79.4472408 101.7345619  51.7373276  79.8549700 100.8908367  51.5421009
  80.0783825 102.3833466  51.4259243 102.6281548  14.6806240  39.0492725
 103.0920219  13.8459039  38.9836788 102.5563335  14.9864197  38.1450820
   0.4113946  14.7759283  91.4952087   0.7700942  15.3052175  90.7828712
   1.1531342  14.6304858  92.0824909  51.7986250  99.8321533   6.5590239
  52.5931072  99.3023109   6.6245836  51.2045479  99.3076229   6.0222065
  49.2145538 108.0976868  24.9132323  49.7485542 107.5005627  25.4371738
  49.3899202 107.8434944  24.0072203  54.6547985 104.8305798  19.6969008
  53.7027931 104.7317886  19.6841872  54.9893904 103.9377308  19.6125984
   0.3558720  78.0740881   2.1158254   0.7670070  77.5249195   1.4482844
   0.0725473  77.4581242   2.7915078  42.4053288  65.8553648  12.4114454
  42.4727392  66.7941093  12.5859499  43.1400108  65.4696798  12.8886437
  20.1982951 104.8344231  33.6066794  19.4628179 104.4855213  34.1102433
  20.0764513 104.4781876  32.7266288  98.9146996  55.8360577   2.9122436
  98.7223721  56.7265606   3.2059151  99.4374943  55.9531116   2.1190134
  66.2227726   9.8986930  20.4026628  67.1508551   9.9739766  20.6245422
  66.1891747  10.0509918  19.4582534 106.1649513   4.1768751  29.3788028
 106.8243217   4.8701870  29.4066954 105.3896809   4.5672935  29.7822332
 109.7956562  13.2091498  13.0737126 109.1213989  13.3338940  12.4058473
 109.6096420  12.3461187  13.4435868   9.3370843  74.8043489  75.0356388
   8.4802186  74.5660353  75.3895044   9.3809682  74.3551588  74.1915226
  54.4436121   6.1785275  41.3873148  54.1170883   6.0147822  40.5025530
  55.3733778   5.9550285  41.3446617  48.4787416  84.2112827  73.7173080
  48.1980658  85.1194668  73.6047459  48.9998436  84.0231514  72.9367399
  53.0208683  99.8563766  35.9525895  52.4992180  99.9955750  35.1621866
  53.1796598 100.7368374  36.2929010  90.4560471   0.3967852  34.8214579
  90.0887489   0.8487012  34.0617919  89.6958733   0.1768722  35.3599763
  84.9909210  84.7019291  30.9909058  84.9946308  85.3128147  30.2539992
  84.4927025  83.9482498  30.6747150  68.9987326  90.4941940  23.0750942
  68.6140871  90.9540367  22.3288918  69.0503263  89.5809746  22.7929640
   8.2658476  51.1454344  90.6167412   7.7126276  51.6406965  90.0126743
   7.8920490  51.3187742  91.4807224  25.8955598  35.5616665  90.9808159
  24.9597573  35.3649640  90.9381962  25.9982753  36.3530540  90.4522419
  43.4482527   9.8518187  40.9616804  43.3693886  10.8052123  40.9941339
  42.6663971   9.5313704  41.4113998  48.3580303 100.0907230  11.0518456
  47.7921534 100.8596897  11.1204302  48.9955187 100.1987553  11.7576611
  63.5080862  95.5305767  36.1796260  63.1906033  96.0815525  36.8950725
  63.4183836  94.6360493  36.5082645  95.6208801  24.5174265  22.4544978
  96.4845371  24.8581481  22.6873946  95.0141048  25.2169180  22.6969028
  31.1943221  89.1563797  28.0075788  30.8096552  90.0222015  28.1439948
  31.0531282  88.6983204  28.8361192  99.2148590   2.6189306   8.0931127
 100.0080681   2.0841515   8.1257403  99.5148373   3.5049537   8.2961166
  83.7623596   0.3857850  42.1265268  84.2430878  -0.4134651  41.9112825
  83.5090160   0.7488093  41.2778473  22.9796576  84.2529678  22.0282531
  23.7918639  84.7039413  21.7976665  22.8856778  84.3954277  22.9701138
  47.4468708  87.2446632  14.4400036  47.5158930  87.3671818  13.4931898
  46.5054846  87.2023678  14.6080410  46.1598825  75.5465698   9.9401355
  45.8917570  75.6256485   9.0246654  45.7401752  76.2873840  10.3774834
 111.4229202   0.9551873  45.2456093 110.6032753   0.6386694  44.8658276
 111.9313717   1.2630707  44.4953299  50.5274677  76.3235331  10.5774105
  49.9770260  77.0880079  10.7471943  50.1893759  75.9621763   9.7580534
  99.3834209   9.8300672  33.5122895  98.9046383   9.3886530  34.2138243
 100.2827168   9.5142877  33.6005497 102.4036503  33.6904931  68.7498903
 101.9058228  34.4644070  69.0134430 102.6630592  33.2801843  69.5748663
  90.9459305   4.6683016  27.3455763  91.7144680   4.9615428  27.8350639
  90.2631569   5.3002882  27.5706124  62.8838587 102.1955585  48.1372643
  62.9671812 102.7517986  48.9117908  63.5471439 102.5269508  47.5319099
  66.5718412  89.2283440  19.2282283  66.7759895  89.9749756  19.7913516
  66.6444445  88.4671497  19.8040271 110.3285313   2.8964391  31.8433952
 111.2405682   2.9407388  31.5562558 109.9376202   3.7103897  31.5257406
  40.0776958  86.0784054  10.2562118  40.0027895  85.1906300  10.6061816
  40.8587694  86.4368916  10.6776822  38.1857944  83.9228058  22.3382020
  38.9667249  83.5128880  22.7101541  37.9555774  83.3675575  21.5932655
 109.4359779   4.8171949  21.6453123 110.2402878   5.0819457  21.1989737
 109.7341824   4.4427174  22.4742103  40.2386618  54.8934507  15.1270306
  40.2843380  53.9442825  15.2420413  41.0957718  55.1335812  14.7749996
 107.4961090  25.4657269  91.4456177 107.0953274  24.8139048  90.8705235
 107.5575066  25.0297952  92.2955704  53.4051418  16.1123097  37.4692988
  53.9706421  16.2606370  36.7113829  53.5418892  15.1918840  37.6936865
  26.0240698  67.9118776  75.0747633  25.9697247  68.5391521  74.3537903
  25.4455495  67.1955681  74.8131418  46.3981819 101.8317795  49.7682238
  45.6947470 101.6240406  49.1532040  45.9740067 101.8313026  50.6263065
 108.7996578  18.3827043  89.8624229 109.6332836  18.7855709  89.6195030
 108.4155655  18.1066298  89.0302658  52.2788811 104.6645164  32.6856637
  51.9745779 104.9489117  31.8238354  52.1831083 103.7122250  32.6712513
   8.4114349  91.2140274  23.9776587   7.6905888  90.7658386  24.4200826
   8.1560934  91.2256527  23.0552173  73.7348032  65.4994726  17.4335992
  74.3236780  65.2415133  16.7244351  72.8641844  65.4942894  17.0358217
  69.2772675  79.1093159  27.1060324  68.9458799  79.8890114  26.6605115
  68.5712433  78.8546467  27.7000904  32.2054410 103.2843494   2.4645928
  32.1088076 103.9560795   3.1396315  32.3935986 102.4815559   2.9507548
  25.4129887  55.7306433  27.9926538  25.5519700  55.4011440  27.1047640
  26.2088537  56.2234640  28.1925511 104.3382072  21.3342690  13.4141564
 104.7527504  22.1968055  13.4345591 105.0545216  20.7203674  13.5761690
  49.0467024  98.0985928  38.6377716  49.5121670  97.6495743  37.9321074
  49.2203951  99.0275955  38.4861016 112.8981686  33.3154869  88.7484550
 113.8425350  33.1866193  88.8367367 112.5707531  32.4752474  88.4274769
  93.8508034   1.3676879  11.0543346  94.5486259   1.8798009  11.4630044
  93.2508659   2.0224948  10.6972218  58.5381269 101.9394016  26.1385703
  58.4414244 101.1144829  25.6627607  58.1310415 102.5930119  25.5699658
  36.7796111 107.1041012  11.1023283  36.8967748 106.4371490  11.7788517
  36.8306589 107.9353809  11.5741265  51.7263651  71.3182592  11.2928438
  52.3792696  71.6096449  11.9292712  51.9334459  70.3959036  11.1424637
  84.6402931  97.9366493   1.9750696  84.1839504  97.2486019   2.4594054
  84.3979263  98.7465858   2.4239548  35.4369831  99.9242306  33.8865447
  34.5083308  99.8453617  34.1047525  35.8882785  99.4506741  34.5853329
  87.4000454  44.3908834  81.7608166  87.9656124  44.2480659  81.0018921
  87.0244122  43.5299492  81.9449806 114.2617798  15.2569258  80.1421356
 114.8686028  15.3640187  79.4096470 113.9190388  14.3688953  80.0413418
 112.7291775  25.7327771  47.6503706 111.9966793  26.3144231  47.4469852
 112.5550365  24.9412346  47.1410847  34.2511034  12.2038889  39.7816443
  33.5710382  12.3349440  40.4423761  35.0729322  12.3352158  40.2544928
  55.5070925  92.1005344   0.1973327  55.0768089  91.2623310   0.3661327
  54.7980309  92.6833057  -0.0744197  41.2904263  90.8736134  20.1183128
  41.2022161  90.3390789  19.3291831  40.4404545  91.3036060  20.2125907
  40.3431416  94.2223072  17.2687578  40.3822136  95.0774765  17.6969945
  39.8184752  93.6822319  17.8597617  84.4891262   3.0583379   7.5427407
  83.5460567   3.1650081   7.6671451  84.7157288   3.6988646   6.8684959
  41.8583488  93.0513191  32.4793935  42.5329971  92.5018311  32.0804620
  41.3860703  93.4278202  31.7368078 100.5074120  93.7444592  91.6209030
 100.3008175  93.1269360  90.9193134 100.1641941  94.5825672  91.3110638
 100.9102345 104.0638542  17.7605116 101.6863155 104.4672775  18.1493390
 100.3315067 104.8000431  17.5621963  23.3162522  86.0241318  12.6556039
  23.4989858  86.9634819  12.6770782  23.4930563  85.7252789  13.5476029
  76.5763187  99.6994591  16.3645792  75.9535360  99.0184021  16.1105382
  77.2339392  99.6941662  15.6690669  71.1883831  82.9455853  28.9673471
  71.4279222  83.8633347  29.0961313  71.9734287  82.4563408  29.2134714
  57.5679588 101.8304157   3.0390990  57.8719711 101.2850189   2.3136038
  56.8620539 101.3235378   3.4403536  95.6748486   4.3032360  53.9929724
  94.8648453   4.7981417  53.8696957  95.6657314   3.6506507  53.2927704
  76.7670870 107.5450420  29.9992394  76.0649014 107.1269798  30.4976320
  76.3142490 108.0404282  29.3167782 100.8524036   4.5067894  29.1645503
 100.5429363   5.4093069  29.2415357 101.4274025   4.5151991  28.3993483
  58.8473034  90.6166458  16.7042851  59.4849443  90.2760315  17.3316801
  59.3191242  91.3023663  16.2316275  43.9912271 100.1505852  27.8031421
  44.4010162  99.3730450  28.1822729  44.0066004 100.7974815  28.5085011
  68.1173420  93.7594795  32.8983545  68.7094450  93.3608723  32.2605777
  68.6705780  93.9407158  33.6581707   8.5752457   0.5698875  80.6779289
   9.2665923   1.0947966  81.0813427   8.3835691   1.0185077  79.8543787
   6.2313193  14.4997227  33.6191082   5.7929903  13.7716794  33.1785917
   6.2053007  14.2684901  34.5475936  99.8050499   8.7687355  37.4334216
  99.1117191   9.4283926  37.4140882  99.7185230   8.3058184  36.6000843
  87.1698093  78.0418491  13.3529460  88.1012726  77.9168224  13.5345459
  87.0611382  78.9914799  13.3017218  38.8698769 105.2894974  19.8303413
  39.2680717 105.8384991  20.5058217  39.3222475 104.4494343  19.9070299
   5.6312168   4.3434727  33.4981871   4.8397198   4.8435086  33.6975098
   5.6039804   4.2200866  32.5493646  87.5115013   5.5606502  42.7346373
  87.6557255   6.3178372  42.1671009  87.9039192   4.8276389  42.2603607
  87.8062725   6.9353497  58.1464052  86.8570995   6.8740070  58.2538223
  87.9606915   6.6872412  57.2349072  56.2350607  94.4004345   6.9821548
  57.1275616  94.5079041   6.6533226  55.6825829  94.4743347   6.2039942
  68.4285593  88.4448528   6.6181946  67.6280832  88.9695930   6.6075414
  68.3974886  87.9439926   5.8030796  58.6477327  97.3424625  38.8487291
  58.8024378  98.2256126  38.5135317  58.4035158  96.8325043  38.0763745
  15.0129974  34.3330574  82.6014709  15.4585493  35.1101947  82.2641754
  14.8456645  34.5336676  83.5223389  72.8520060  72.7584505   6.9545847
  73.1353903  72.5860119   6.0567033  72.9549074  73.7041616   7.0607716
  55.6795454  82.4976158  18.9693022  55.3903675  83.4075356  19.0375769
  54.9927711  82.0654964  18.4615219  60.6743288  80.9630966  14.2067027
  60.1526642  81.4598179  14.8370671  61.0365820  81.6268158  13.6197817
  97.7288437   3.0360457   1.4701185  97.3625088   2.8025541   2.3230627
  97.8760052   3.9803827   1.5230487  34.5428681  86.0495472  24.7028494
  34.5076656  85.2148628  25.1700687  33.9262486  85.9446335  23.9782786
  54.0142155  99.4366264   9.7314012  54.5822430  98.6791897   9.8723185
  53.5850430  99.5745564  10.5758071  30.5880117  84.3240833   0.7594167
  31.4683628  84.6794224   0.6371430  30.7309890  83.4473133   1.1158668
  35.5524683  98.9369774   7.2748792  34.8110533  98.6463642   7.8059882
  35.2271652  99.7087002   6.8113703  20.3055954  91.9318199  10.3769064
  20.1717138  92.7546978  10.8472133  19.5405543  91.8545532   9.8068434
  67.2563839   0.4240545  37.6179671  67.9879713   0.9208031  37.2515559
  66.6353130   0.3432782  36.8941045  28.7412858  96.0996056  20.1459599
  28.6543345  95.7947350  19.2427850  27.8709316  95.9769344  20.5249977
  13.6374998  66.9623518  92.9897690  13.5686171  66.0119200  93.0801201
  13.4858894  67.2985315  93.8730717  51.0276699 106.1389923   7.9352456
  51.6574907 106.8542862   7.8462702  51.4538908 105.3911114   7.5166208
  72.0799828  20.1405120  48.4052420  72.5791454  20.9561825  48.3633947
  72.7436543  19.4515705  48.3716011  53.1896830  91.9871998  31.8110037
  53.2770967  91.0759354  31.5313816  53.8419771  92.4599838  31.2940693
  75.9964371  78.4573507  42.8419781  75.5462217  78.9771414  43.5078287
  76.6839266  77.9961872  43.3225155  79.4782877  81.4202690  11.6821802
  78.7746143  81.0532475  12.2173190  79.5867777  82.3133945  12.0089734
  76.0236359  22.2676063  32.5439668  76.2170172  23.1926942  32.6957798
  75.9169292  21.8982339  33.4205580  47.7127409  98.4999943  17.9928076
  48.3837318  97.8827286  17.7012610  47.0322323  97.9490089  18.3795309
  71.9086504  87.2209072  18.5267735  72.7755213  86.8406296  18.3847964
  72.0830393  88.1290627  18.7738872  58.7876511 102.6638794  31.6217232
  58.9978313 101.7589378  31.3911915  58.8078070 103.1342220  30.7882929
  60.0938129  81.4288902  54.2789793  60.1616335  81.9347668  55.0887394
  59.5997810  81.9934845  53.6845112  94.4764709  10.9625840  40.2443647
  94.3971062  10.1829553  39.6947217  93.8992023  10.7909012  40.9883499
  64.6264076  24.3861389  14.2659378  65.3945971  23.8838792  14.5376945
  64.8675442  25.2984071  14.4267201  20.5885029  29.3843746  81.7078209
  20.1378965  29.1507339  80.8962727  20.7586956  28.5459781  82.1371841
  51.4387655  92.2759342  36.2660360  52.1622896  92.5784874  35.7172084
  51.6383839  91.3560581  36.4398289  66.4557171  96.9114780  38.2569647
  67.0679235  97.6472569  38.2649112  66.3976145  96.6581821  37.3357177
  88.5300922  13.2796049  23.0950499  87.9436111  12.9190350  23.7600780
  89.2919254  13.5848498  23.5876632  58.1441498  92.8644848  25.8353519
  58.9238977  92.3257065  25.9693146  58.1653643  93.0894279  24.9052000
  19.2493141  87.2936916  91.3227940  19.8584569  86.8505096  90.7322311
  19.6674919  88.1336784  91.5119743  66.7124128 100.4312229  19.2759156
  66.0960579  99.8845291  18.7886107  67.5756550 100.1163578  19.0077662
 100.1146030   5.1927048   8.5947984  99.6806335   6.0133171   8.3613557
 100.8635616   5.1404941   8.0010277 104.9708176  22.6140571  36.0099697
 105.0588894  23.1895542  36.7697597 104.1243362  22.1841502  36.1319733
  68.4200144  99.5364952  32.3116946  68.1457520  99.7165775  31.4124823
  68.6296654 100.3968811  32.6750207  24.6396708 100.1417446   9.4544649
  25.2955842  99.4781208   9.2409062  24.5787144 100.6807613   8.6658072
 115.4105949  45.4034567  64.2877054 115.6596565  45.0523615  63.4327602
 114.4547367  45.3536987  64.2978430  74.9241400  65.6469917  23.9396906
  74.5251274  65.9990835  23.1440473  75.7428455  65.2504921  23.6417961
  69.5408344  88.8373566   9.5881546  70.1434994  88.4359646   8.9621282
  70.1098537  89.2702579  10.2245867  74.1523314 106.4327049  45.3929520
  74.0852642 106.0863590  44.5031357  74.8121834 105.8825302  45.8150148
  71.2296629  80.5488014  17.0520020  71.6433191  80.1395702  16.2919652
  70.9942913  79.8154736  17.6203895 110.5320740  96.9696522   7.9313600
 111.2519741  97.5877190   8.0576795 110.1676369  97.1979713   7.0762092
  96.3250065  16.7528844  18.0145633  95.9391499  16.5593290  17.1602297
  95.6673145  16.4613855  18.6459959  22.9143405  97.2041798  10.0354373
  22.3504329  96.6249275  10.5479884  22.3875761  97.4359798   9.2705703
  86.9212437  18.5026300  47.5139523  87.0567417  19.3808091  47.8698683
  87.1393108  17.9147887  48.2372236  21.3710046  39.7483301  92.8022766
  20.7976270  38.9940000  92.9381371  21.8748522  39.8153567  93.6133766
  65.2511024 101.9907093  28.4125710  64.4378567 101.4928055  28.4959793
  65.7213259 101.5632057  27.6967692 112.9170895  26.7402792  50.1827049
 113.1595612  26.8250751  49.2606163 112.5647259  25.8534122  50.2571201
  98.9284420  10.0723767  53.6159039  98.7438869  10.2270353  52.6894855
  99.8804283   9.9822414  53.6586761  64.1500854 108.6450100  24.8532081
  63.5591602 108.0334568  24.4138360  64.5824957 108.1188393  25.5258083
  51.5166664  94.5739555  16.1270571  51.7123699  95.2023029  16.8221200
  51.1152649  93.8326168  16.5804124  77.5400972  88.6373806  45.1920652
  76.8939686  88.0393887  44.8163605  77.4727488  89.4289780  44.6581459
  50.0428534  89.7442722   7.5801492  49.6119499  89.7412014   6.7254281
  50.2309704  90.6672573   7.7502322  80.5779171   7.5412178  48.6554432
  81.1027431   7.3271859  49.4267893  81.0832882   8.2155681  48.2014799
 110.7039833   2.7275148   4.7463813 110.4440784   3.2551080   3.9911801
 110.4066277   1.8427625   4.5341921  44.5290518  39.6764326  90.4256058
  45.4384661  39.6862626  90.1271152  44.5375538  40.1852512  91.2363243
  43.1155968  77.8551149  18.2341063  42.3381376  77.3604345  18.4931040
  42.7958488  78.7457895  18.0902660  31.3109517  47.4404287  66.3586664
  31.0618639  47.7594566  65.4912519  32.2367120  47.2125721  66.2733221
  88.8261890  15.1610303  48.1721210  89.5446968  15.7504213  47.9427814
  88.4455299  14.9087656  47.3308802  49.1885090  97.9994488  20.6407237
  48.7268066  97.3419189  20.1204276  48.8216496  98.8348103  20.3512025
  65.7501411  82.5310040  92.2262478  65.5821800  81.9176769  92.9416943
  65.0556135  82.3546791  91.5916061  52.1151543  90.2694607  17.4434900
  51.6664314  89.4997692  17.7934206  52.4730873  90.7092476  18.2146585
  86.0180092   9.0828967  85.3994370  85.4327106   8.3256304  85.3850269
  86.7642784   8.8190895  84.8611927 110.0337410   1.4953296  40.2852297
 109.1244602   1.4318536  39.9929738 110.2704144   0.6001269  40.5277824
  46.4273310  98.9121437  25.0997400  45.5540514  98.5971260  24.8665619
  47.0155430  98.2045746  24.8359442  82.8474522  91.0771656  22.4111080
  82.0757675  90.6889915  22.8234768  83.0538273  90.4872799  21.6860771
  29.8631001 101.0268116  24.0734863  29.6379471 100.3434467  23.4421754
  30.1677680 101.7581654  23.5363317  95.8513355  27.5860095  49.5345354
  96.2977886  27.4047375  48.7074614  94.9205303  27.5020838  49.3276787
  18.2423854  13.9676297  28.1582093  18.9962888  14.2648363  28.6676526
  17.7516830  13.4084988  28.7605524  50.5973196  98.0739975  10.3345501
  51.0863066  97.5291252   9.7179228  50.0507593  98.6312580   9.7805053
  77.1862078   3.4931460  13.1469333  77.6037312   2.9903415  12.4475825
  77.3282003   2.9698518  13.9357507 111.2873554  32.1143889   1.1283475
 111.0537052  31.9188023   0.2209425 112.2415543  32.1895838   1.1190931
  77.6804018  95.1190948  67.3379612  76.7350006  95.0558281  67.2021723
  78.0473471  94.4194126  66.7975616  33.4590530  97.9000282   0.6175063
  34.1937232  98.4903049   0.4499707  33.2209516  98.0668259   1.5294924
  63.3270979  95.8313942  31.3787675  62.5963402  95.5151844  30.8475065
  63.9821720  95.1356602  31.3233447  53.5368586 108.6152172  29.6937966
  52.7039909 108.3399487  29.3106580  53.4136486 108.5080910  30.6369710
  62.6749516  24.1329026  33.4726119  63.0108690  23.3228874  33.0888581
  63.4365416  24.7110939  33.5162568  72.0320654  97.5855255  23.4373665
  72.6111937  96.8667889  23.6908865  72.0389652  98.1758308  24.1908383
  32.9011059  95.1131630  16.9728291  33.3793545  95.8689785  17.3137879
  33.1080461  94.4042015  17.5817442  84.9911499  21.6382909  15.6003237
  85.5744839  22.3743844  15.4155982  85.2348614  21.3548398  16.4815116
  54.1340208  95.2879620  26.5048242  53.8256931  95.7184219  25.7074094
  54.6303654  94.5315933  26.1921144  98.7439251   7.7067119   8.2783031
  98.8044548   8.1328899   9.1332543  97.9646111   8.0889159   7.8747982
  85.4403496  28.5130405  21.9725561  84.7548103  28.9147949  22.5062799
  85.1417446  28.6308527  21.0707855 107.3259926   8.6595595   6.4869750
 107.4331665   7.9518217   7.1224701 106.4173794   8.9412755   6.5931839
 106.4879799  34.1028929  23.8331151 106.6390514  34.6729112  24.5870972
 106.4779472  33.2186651  24.1995454  83.1583500  21.0402131  32.7243233
  83.1651211  21.3323975  31.8128347  82.6284313  20.2431226  32.7164006
  49.3378735 108.3270454  66.3464975  48.7649870 109.0612793  66.5677357
  48.7449121 107.5823498  66.2462378  68.9489603  76.6720438   1.7926919
  68.5110474  75.8310795   1.6613576  69.8465681  76.4400578   2.0308459
 110.7688332 100.7586288  29.8851943 109.8679447 100.4488659  29.7919893
 111.1832619 100.5449867  29.0492296 102.3355293  62.1578598  86.8186283
 102.4232292  61.3006878  86.4017487 102.1842003  62.7629614  86.0925579
  63.4211063  93.0905056  37.5838542  64.0878057  92.7171421  38.1603456
  62.8705359  93.6167145  38.1636882  14.0989673  95.4516602  45.3036261
  14.2378902  94.6508980  45.8093166  14.9792659  95.7338524  45.0552893
   6.6815841  14.3338978  89.8071957   7.5054055  14.7237408  90.0997257
   6.0064673  14.8087454  90.2919292 104.7863865  12.8084826  43.1611633
 104.8481560  12.8931749  42.2097206 105.6521034  13.0624759  43.4809399
  46.4761209  85.4048538  20.5782771  45.6372261  85.1520061  20.9636974
  46.8512392  84.5833588  20.2609968  53.8867664  90.4733562   6.7811328
  54.6983480  90.6829548   7.2433388  53.4006691  89.9178791   7.3905462
  72.5515413 106.1602116  24.1392660  72.9222012 106.9276714  23.7035608
  73.1487370 105.4462624  23.9159298 104.5017719  14.6228456  32.6055622
 103.8580608  14.3257189  33.2486749 104.5732403  15.5654287  32.7560973
  36.7839789  87.7108479  68.6378765  36.7584109  88.4584808  68.0407000
  37.7022052  87.6450539  68.9001036  59.9685001  17.7745783  35.5299854
  59.4212675  17.4824119  36.2589622  60.8499670  17.8292799  35.8991170
 102.4328899  16.7045307  44.5882368 102.2560215  17.5135207  44.1081476
 103.3159351  16.4534223  44.3173027 107.7771378   1.6925092  26.7558837
 108.2061577   1.4993094  25.9223056 106.8427849   1.5939488  26.5728760
  84.7772598  17.8529024  31.0177302  84.1692162  17.4673772  31.6485095
  84.5349216  17.4587619  30.1797795 103.1572342   2.8814241  51.0152435
 102.8730011   2.0830244  50.5702734 103.9674187   3.1286043  50.5694294
  28.4782767  45.0275850  87.1176720  28.4363675  45.3536463  86.2187004
  27.7233624  45.4247570  87.5519466  71.9896650  96.6984940  36.0834312
  72.3921728  95.9359455  35.6678152  72.2435522  96.6314697  37.0039105
 107.9548168  17.3278821  43.3836603 107.8262329  18.2167411  43.7147617
 108.2573318  17.4489808  42.4836302  89.9550819  23.4930444  30.9309006
  89.8223400  23.2433724  30.0164199  90.0446224  22.6610947  31.3957429
  86.6969204   9.6121860  45.2350521  86.9382668   8.6977732  45.0872993
  87.0556736  10.0794971  44.4806337  98.1182384  85.7178116   7.3760194
  97.3728561  85.1485920   7.1846533  98.1785488  85.7204437   8.3313143
  45.9581709  33.7414312  92.4064445  45.0709057  33.9735413  92.6805210
  45.9267998  32.7944732  92.2703648  84.4723320  82.6916695  28.0232382
  83.8848019  83.4464073  27.9857135  84.0506935  82.0901871  28.6369705
  21.3595247  50.4565001  80.2267075  21.4926720  49.9436617  79.4295263
  21.4618587  49.8242903  80.9381008  93.0705261  11.9473577  35.1609564
  93.9215469  11.6895413  34.8066640  93.1754589  11.8789148  36.1099219
   1.9259654   7.6051903  40.5097151   2.1299751   6.8233752  39.9965119
   1.6209620   8.2426542  39.8640800   1.8564107  42.8852844  89.4948769
   2.5436062  42.2282457  89.6057510   1.1131617  42.3970842  89.1406631
  36.0652685  86.0481930  15.7245529  36.9029069  85.9399605  15.2741277
  35.7625270  85.1544666  15.8852863  80.1227951   8.5137671  41.7368841
  79.5585012   9.1981566  42.0966339  80.4641056   8.0562884  42.5052929
 116.1108687  17.0382047  55.3815031 116.0930859  16.1176705  55.1197147
 115.3531197  17.4263167  54.9439907  99.6040630  32.5774622  50.5160141
 100.3658581  32.4848461  51.0881281  99.8664188  32.1558499  49.6976948
 112.7406788  12.1050811   8.8581461 112.5424767  11.3294041   9.3828100
 112.6095200  11.8220580   7.9532003  77.1290112  94.6850872  70.3519201
  76.2032223  94.4578934  70.4387331  77.4097443  94.2438889  69.5501947
  57.7322292  90.7314110  32.2494102  57.1997738  90.2507591  31.6156197
  58.4648466  90.1455784  32.4399471 104.0905380   8.7931663  17.5846040
 104.5941544   8.7949550  16.7706001 104.7157860   8.5116494  18.2524669
  20.1726913  94.3623161  24.8467946  19.9527729  94.7295380  23.9906359
  19.8125076  93.4756947  24.8267961  72.8503180   6.0977590  16.4709032
  72.0630646   5.7063383  16.8493915  72.6874924   6.0988778  15.5276549
  77.7890205  92.9978657  18.4924126  76.8848562  93.1994152  18.7334359
  78.2066393  92.7481174  19.3167019  80.7113266 101.9218731   7.9585296
  81.2006855 102.6442051   8.3522236  80.2620697 102.3162842   7.2109717
  85.6633568  24.2892146  34.8633909  85.5272007  24.6252322  33.9775109
  85.9390068  25.0533724  35.3696656  85.5552959  89.9725533  15.4243898
  86.3630009  89.4648647  15.5025351  85.2954102  89.8697567  14.5088971
  12.5889659  23.6003089  30.8497286  13.3971167  23.3449960  30.4048228
  11.8974233  23.1430483  30.3712773  55.4016733 105.7933331  22.1812558
  55.2215004 105.3909206  21.3316464  54.8382187 105.3211117  22.7942514
 103.3541012  20.0561333  27.7474976 104.1351032  20.3035092  27.2524524
 103.6783791  19.4646692  28.4266472  48.6265039  42.6116991   7.0862108
  48.6717224  41.6697216   7.2501093  48.3822441  42.9903030   7.9307401
 114.8943329  10.5512989   4.2611626 114.6919632   9.8280191   4.8545820
 115.5930996  11.0345411   4.7021046  42.2424889  44.9981880  56.7777348
  42.3594856  45.4642153  57.6056004  41.7164183  45.5912447  56.2413025
  29.1991258  56.2979507  13.1805217  29.9433970  55.7122517  13.3192551
  28.9396787  56.1444998  12.2720218  50.5265379  21.4957404   0.7637373
  50.3818130  20.5653238   0.5916630  49.8685074  21.9429302   0.2315246
  30.7165837  31.7494631  15.9962058  31.0762739  32.5268030  16.4235187
  30.4078007  32.0644069  15.1466787  21.7958450 106.9087505  81.3922405
  20.8545184 106.8732834  81.2223053  22.1959519 106.5509510  80.5996990
  35.8446383  35.1265073   7.3351562  35.8348656  34.3060613   7.8281105
  36.0984468  35.7890058   7.9777366  55.4010010  50.4018307  11.6076064
  55.7498264  49.5104551  11.6089129  54.5146799  50.3126955  11.9579220
  18.7431347  34.5796585  37.5396824  18.7838483  33.6233568  37.5475478
  18.4174991  34.8126817  38.4091043  72.2284508  79.2928457  93.3816528
  71.4488745  79.5396185  93.8792419  72.0332861  78.4164906  93.0497742
  68.2473040  50.8104897  30.1828218  68.2908773  51.7494345  30.0019598
  68.6224174  50.3989458  29.4042635  13.4256530  33.1037426   3.0096483
  12.9227686  33.5630751   2.3370753  14.0585768  32.5793147   2.5191244
  47.8304911  88.6234665  78.2206917  47.9053020  88.7047195  77.2698832
  47.8984308  87.6832390  78.3868122  54.6866322 101.0684395  81.4530945
  54.3833113 101.8672848  81.8844509  54.8842049 101.3404179  80.5568600
  22.6672673  27.5502610  21.8866992  23.0167246  27.5681090  22.7776480
  21.7869806  27.9174566  21.9672966  20.1753187  27.7131176   1.8108994
  20.9821224  28.1645966   1.5629750  19.8915207  27.2726011   1.0098783
  10.4794943  41.5248632   0.4654852   9.5869893  41.2299585   0.2846543
  10.4598308  42.4665022   0.2947153  38.1753516  83.8420582  90.2086353
  38.0851793  84.5491219  89.5697498  37.2969103  83.4681511  90.2776623
  52.2681665  86.3753700  92.5403595  53.1131792  86.2775421  92.9792309
  52.0981169  87.3172283  92.5553417 109.0690136  41.3887453  12.6218760
 108.2579613  41.8873596  12.5228739 109.6908855  42.0143080  12.9936016
  19.2502701  31.6046977  43.4715080  19.2521775  32.1260238  42.6687336
  18.3479857  31.2961245  43.5545588 111.3513279  11.6154850  86.2208271
 110.5707455  12.0565343  85.8855629 111.2617683  11.6607618  87.1727467
  29.3949866  30.5034518  18.5233843  29.6714640  30.4724741  17.6075065
  29.8810720  31.2392807  18.8955510  83.5295677  69.6561956  92.6545906
  83.9206028  68.7991238  92.4850273  83.6616516  69.7985172  93.5918903
  56.4841366  47.5109339   4.7293556  56.3531590  46.6287518   4.3817472
  55.8609533  47.5782871   5.4527754  43.8072205  51.7390347  42.4700880
  43.5579824  52.3582220  41.7839956  44.7007513  51.4794922  42.2454119
  88.9261436  80.0298691  49.9628305  88.5934830  79.1354513  49.8881102
  89.7741127  79.9345779  50.3965425 106.8896961  65.1571417   3.9785358
 106.6347885  65.0183773   4.8906770 107.7919197  64.8409557   3.9312240
 109.3743420  43.1058693  92.6939011 110.0008011  43.0734634  93.4169006
 109.8746586  42.8178740  91.9303799  80.2418137  85.0177193  88.6057568
  80.1397324  85.4187202  89.4688988  80.2849865  84.0778542  88.7818909
  62.5817919  64.2633057  19.4690466  62.6779318  63.6571836  18.7344694
  62.6015806  63.7037754  20.2454233  21.0493588  51.9084644   5.6285745
  21.7611265  51.4584780   6.0836893  21.4371920  52.1951771   4.8017663
  78.2518101 106.5167999  89.7065163  77.9774618 105.6115723  89.8532867
  77.4377632 106.9879818  89.5289421  74.3794680 104.8233891  74.8754263
  75.0122833 104.1277122  75.0537777  73.6974907 104.7019386  75.5360222
  18.1637442  57.1217918  13.1787896  18.4668374  57.7816296  12.5551033
  18.0841637  57.5941944  14.0074849  15.1070476   1.6185398  70.1733732
  15.3320920   1.8877867  69.2828178  14.8856473   2.4347928  70.6216431
  72.3431206  29.8221803   8.3317411  73.1542110  29.9575448   8.8216794
  72.4095440  30.4214191   7.5882810  48.0607557  92.2833347  61.4392948
  48.3884430  92.4283504  60.5517006  47.2012997  91.8808365  61.3145304
  44.5681238  44.7919559   1.9628681  43.7635088  44.6654844   2.4656881
  44.8661470  43.9050722   1.7607422  20.3896236   8.4352481  42.2682381
  21.1694098   8.2140106  42.7773714  20.2287722   9.3580323  42.4652815
  40.6999254  51.5269804   9.7901714  41.0904169  52.2554111   9.3073213
  39.8725319  51.8756914  10.1219118 105.6211948  27.6478791  91.6897869
 105.9407520  28.4913826  92.0101261 106.4122105  27.1230435  91.5670109
  47.4372768  18.4772193   7.8546566  48.0129766  18.4091496   8.6163449
  46.5599394  18.3174896   8.2025003  18.5238171  53.7903643   7.0873183
  18.6378431  52.9420805   7.5158560  17.9223287  54.2682457   7.6583439
  46.5861654  93.9074612  71.5218401  45.9761190  93.1714249  71.4736557
  47.2943687  93.5951042  72.0849657  39.0970254  15.0620413  21.5554357
  39.3581438  14.6335077  20.7403255  39.2653155  14.4084656  22.2342205
  36.6806269  49.1842747   2.5198704  35.8310556  49.1469193   2.0804769
  36.7935014  50.1077795   2.7448815  28.4322929  55.8407211  41.4171791
  29.3402815  55.6563139  41.6575575  27.9636860  55.0288010  41.6106319
  47.4644375  89.4436073  86.8019676  48.2562256  89.0072536  86.4874840
  47.7597523  90.3152847  87.0650101  63.5590696  39.8620391  38.3576274
  63.0268002  40.3665686  37.7425122  63.0220985  39.0982056  38.5684776
  11.3264263  54.1894436   8.2420290  11.6066432  53.8884687   9.1063917
  10.9431124  55.0519466   8.4013879  61.5967274 104.5773315  79.7548628
  60.8211327 104.1610622  79.3788290  62.3335648 104.1471481  79.3209934
  64.4483614 108.0926895  87.5822830  64.8932743 107.7333164  86.8147278
  65.1575089 108.3535099  88.1699181  34.5457578  98.0030918  69.3333435
  34.3444490  98.8210869  69.7878838  33.8820148  97.3871040  69.6435452
  22.0082355  57.8305578  13.6754262  21.7696023  56.9072485  13.7578142
  21.4398217  58.1638145  12.9811084  56.0928535  75.7291651   1.0482511
  55.3238869  75.5707932   1.5958302  56.6449976  74.9588156   1.1821453
  58.9633608 101.4686298  66.8515491  59.6396399 101.7675495  67.4594402
  58.4346199 100.8566570  67.3635483  91.4686871 107.3007202  72.9844761
  90.6748676 106.7669106  73.0180407  91.2301636 108.0506516  72.4395609
  78.5326004  90.2553654  90.3272152  77.8095818  89.6975231  90.6140614
  79.1410923  89.6556950  89.8955154 114.1894531  65.1272106   9.6930361
 113.6735153  64.3254662   9.6079582 114.4094563  65.3671074   8.7928796
  45.6708670  26.6824508  44.4809723  45.2486038  25.8348346  44.6205187
  45.4362059  27.1969748  45.2532625  49.4695520  39.7281671  44.8445177
  48.8719940  39.4825506  44.1382408  48.8969612  39.9163795  45.5881214
   9.5951641  47.4963856   2.3800318   9.3422037  48.3857250   2.1324056
  10.5522633  47.5096416   2.3757523  14.2274594  59.0075970   8.2315326
  13.9644682  58.1094360   8.4324688  13.4023023  59.4774437   8.1107509
  56.0027838  29.0742660  27.5393319  55.8599949  29.0201545  26.5943885
  56.9483280  29.1904807  27.6324153 109.0864182  49.6857738  92.9951191
 109.4965172  48.8219261  93.0377769 108.2558250  49.5797634  93.4589100
  16.8627679  60.3772736   2.3116632  17.1882915  59.8434687   3.0364531
  17.5169885  61.0686779   2.2107372   5.4887450  29.6807194  36.8645358
   6.4145011  29.5276403  36.6753960   5.4595780  29.8353958  37.8087068
 110.0139713  61.7683840  24.2728043 110.8567619  62.1423054  24.5299482
 110.2263260  61.1681938  23.5580230  86.3233280  74.4115305  84.2032528
  85.8202267  74.6367693  83.4206963  85.6692791  74.0916014  84.8246193
  22.2429991  41.5021753  25.7044601  22.9515004  41.9646215  25.2567959
  21.6119027  41.3036537  25.0126958  95.4592419   6.3623053  82.7211189
  95.9090519   6.2153995  81.8890572  96.0983086   6.8289095  83.2597446
   9.3981951   2.3222780  74.7170639   9.5261878   3.1410953  75.1960087
   8.4699839   2.1194142  74.8332596 112.8818035  55.8391142  11.4351451
 112.4165726  55.2058792  11.9817674 113.0162525  56.5953970  12.0062780
  52.0612192  64.7585201  10.7103837  51.3134336  64.8579597  10.1211810
  52.7765322  65.2164173  10.2689242  28.9606404   0.2831100  92.8115177
  29.0255547   1.0919326  92.3037529  29.3936133  -0.3758188  92.2687626
  46.1153173  43.3094406  24.7417188  46.7852926  43.6514044  25.3336906
  45.2867889  43.5920572  25.1288843  55.1729488  77.1812439  87.5959873
  55.7591343  77.3924017  86.8693352  55.3877306  76.2761879  87.8217602
  40.1598787  47.3281765  31.1714935  41.0183811  46.9582510  30.9656954
  40.3323221  48.2545805  31.3396358 112.2423458  18.1207943  94.1371155
 113.0657578  17.7763665  93.7912750 111.6586113  17.3627090  94.1652107
  40.0551844  59.8684406  78.5795641  40.0618267  59.0995169  79.1495991
  40.1682043  60.6091547  79.1752148   8.0727392  48.6654234  10.8845329
   7.3215562  48.1195974  11.1169720   8.7212306  48.4824991  11.5644073
  52.1897173  55.1092339  23.9839220  52.6011992  54.2766428  23.7521839
  52.1571636  55.1022482  24.9405432  36.0869050  15.0123346  13.6236799
  36.0279107  15.9304857  13.8877821  36.0421443  14.5234048  14.4453704
  60.0627565  20.8925867   5.6686968  60.7198763  20.7739830   4.9828702
  60.0067711  21.8410039   5.7853234  61.0553789  37.7801466  50.8268595
  61.6798067  37.5941110  50.1256323  61.3724232  37.2692776  51.5716553
  82.0933151  99.0558052  91.3609791  82.2976971  98.4216404  90.6737423
  82.9473591  99.3625450  91.6655159  19.0820551  57.5572062   2.9853234
  18.5235512  58.0087185   3.6181268  19.4252813  58.2554483   2.4277517
  39.0598845  59.5741177  10.4692888  38.1778884  59.2984724  10.2196205
  39.0217566  60.5305529  10.4662955 109.1000080  12.9819274  85.6184292
 108.2814407  12.5992978  85.3025627 109.4663334  13.4278297  84.8547459
  98.4918594  84.5914268  81.2037468  99.3105221  84.8635769  81.6184139
  98.4076691  85.1639843  80.4413033  56.7804146  61.5259409  14.2477775
  56.6162443  61.7347145  13.3281612  57.1610785  62.3257017  14.6106887
  37.0470357  40.1298189  10.8468544  37.5982809  40.8715820  11.0961592
  37.6540375  39.5006490  10.4570806  34.6205926  56.5131760   1.6671345
  35.4288697  56.1532354   2.0323257  34.7580147  56.4977407   0.7199764
  69.2150021  88.2727718  78.4899759  69.8323631  87.6414108  78.8594198
  69.7077656  88.7121773  77.7969170   4.0001789  78.6182737  25.0450635
   4.7618812  79.1521645  24.8192334   3.7798548  78.8811827  25.9386897
  99.4869137   7.3278195  64.1588879  98.6066151   7.1209496  64.4727516
  99.5977211   8.2586157  64.3527269  66.6328716  90.5664253  94.2463970
  67.0270538  91.4356709  94.1737747  66.7780590  90.1652527  93.3895302
  45.3397989  50.6436634  37.3125505  45.9950638  49.9656820  37.4774647
  45.5959558  51.3681984  37.8832197  40.4548311  78.6655283  83.8739777
  41.2568235  78.6705160  83.3514690  40.1994991  77.7437973  83.9120388
  27.7789688  58.1665993  28.5778332  27.3243642  58.6532021  29.2654276
  28.6156631  57.9200840  28.9720488  35.7142305  45.0827312  36.5321970
  36.4185452  45.7274246  36.5996146  35.6576824  44.6974564  37.4066091
  49.5511055  55.5756092   6.0847497  50.0847387  56.1054945   5.4925609
  48.7416124  55.4158926   5.5995250  87.8795910   1.8983611  80.8336258
  87.6093006   2.3316243  80.0240135  88.3474445   1.1159153  80.5418777
   7.7753121  62.0969200  10.0505829   7.9904127  63.0247498   9.9552399
   6.9582629  61.9892120   9.5636940  29.1073680  70.8676195  19.1134167
  28.7791729  70.5234861  18.2826984  29.0362120  71.8179560  19.0238225
  34.9389172  97.9919720  40.2499151  34.9568224  97.5496387  39.4012356
  35.8216143  98.3474541  40.3533983  98.0386257 108.9081669  80.0595856
  98.0050755 109.1433048  79.1323233  97.2307491 108.4178448  80.2117252
  15.6202567  10.3632271  72.4863386  15.7373154  11.3131452  72.4727154
  16.4103818  10.0185442  72.0702505  35.5070782  30.5565476  26.8891311
  35.5855179  31.4485621  26.5509176  36.1833715  30.0638151  26.4242911
  51.8136454  33.3699751   8.4062904  52.1521235  32.4783158   8.3249784
  52.5280571  33.8613057   8.8118082  66.7666054  61.4920473  19.9707365
  65.8914900  61.1541080  20.1610041  67.3233557  61.1110115  20.6497598
  43.3464813  13.0502141  67.9411030  42.5846863  13.4248757  68.3832932
  43.0152321  12.2531760  67.5272942  84.3452740 102.3932457  91.1863422
  83.4636497 102.2489834  90.8425999  84.6803379 101.5141582  91.3628864
  31.6353416  48.7625742  40.1672554  31.7934918  47.8791142  39.8345089
  31.0620737  48.6347818  40.9230757 114.7306824  25.6813335  82.0963287
 115.6050110  25.9031415  81.7760563 114.2638016  26.5167117  82.1161366
  38.7174058  25.8648586  87.2416592  37.9062748  26.1060858  87.6889992
  38.7402821  26.4271951  86.4673996  96.1483002 108.2584763  52.2718048
  95.8093071 108.1714725  51.3808823  97.0348549 107.9003716  52.2267771
   2.5972202  75.6680679  12.5593030   1.9812933  75.1271391  12.0650780
   2.0953879  75.9724522  13.3154440  57.1295595  27.6738501  19.3342328
  57.9493856  27.3065472  19.6647048  56.5688896  26.9124937  19.1851747
   7.3133647  20.6482935  91.4728928   6.8815207  20.2167034  90.7356930
   7.9670823  21.2179399  91.0674477  59.9308681  60.4392385   5.9867555
  59.6806526  61.2919140   6.3425177  60.7988501  60.2718687   6.3539439
  44.6339941 108.3526993  92.9164028  44.0648937 108.5702324  92.1781349
  44.5577288 107.4027443  93.0058193  92.1594048   9.0135694  59.2090034
  92.2493649   9.6590185  59.9100971  92.5625706   9.4297582  58.4471130
 104.7664452  16.6581750  88.8623524 104.4940376  16.3468421  87.9991627
 105.2847862  15.9391594  89.2236996  97.0967960 107.4701881  89.6832466
  96.7170811 108.2113457  90.1552010  97.0938873 106.7545700  90.3189468
 113.1801224  50.8142710  82.5993347 112.3820305  50.7773829  82.0721531
 113.5373592  49.9273205  82.5554466  27.3275256  45.8043051  13.5090649
  27.8474808  46.6047335  13.4370279  26.7830348  45.9413481  14.2842925
  92.0689011  14.8380101  78.3950710  91.9063568  13.9571083  78.7324429
  92.8180885  14.7352636  77.8082180  21.3466835  73.2349443   2.8495291
  21.3083291  72.4127150   2.3609598  20.7980418  73.8376427   2.3475511
  99.5990276  34.3126321  79.1380358  99.9031258  33.4097362  79.2304325
  99.8519897  34.7357154  79.9585485  19.9997783  25.7656622  89.4205379
  20.2324200  26.6935134  89.3859196  20.1230955  25.5218887  90.3379250
  58.1450605  53.0583572   1.8336697  57.9535294  52.6170301   2.6611814
  57.5367069  52.6667404   1.2069543  36.3782811  24.3786716  30.5192900
  35.5436087  24.2078137  30.0829792  36.1335111  24.7280169  31.3761902
  34.1207266  64.7072411  13.3968699  33.2903910  64.2549419  13.2478642
  33.8897514  65.4578733  13.9440751  78.7387609  92.8565502  85.2212811
  78.0318022  92.8923607  84.5769501  78.3061361  92.6072311  86.0379219
  36.3884592  29.9546671  29.5779037  36.3429260  28.9988995  29.6036911
  36.2033439  30.1787543  28.6659002  70.3754663  96.8357372  76.8701839
  69.8061657  97.1255207  77.5830317  70.5617809  97.6324844  76.3734818
  62.0962858  52.8131676  22.9993868  63.0464888  52.8340244  22.8857398
  61.7485857  52.8024530  22.1076345  39.3306351  32.3179936  15.8734310
  39.1887903  31.9292307  15.0103128  39.4779587  31.5697122  16.4518785
  18.8950694   7.7029681  83.0711937  18.1804168   8.3134973  83.2521820
  18.4766233   6.9728822  82.6150036  87.5021076 109.5054245  84.9529648
  87.2742939 109.4583702  85.8814621  87.1857262 108.6796570  84.5865726
  34.3658948  93.4786701  14.1792083  33.4943318  93.0835438  14.2012799
  34.6078634  93.4734154  13.2531118  31.9668221  66.9303131   2.4172805
  32.4827242  67.6891756   2.6896816  32.5980210  66.2115526   2.3825581
  63.5873747  20.0880671  20.1182103  63.7404871  19.6851206  20.9728599
  64.3497992  19.8388600  19.5958745 107.7746964  14.7379541  74.5316792
 108.3098888  15.3598607  74.0386963 108.0047226  13.8829827  74.1678905
  33.4898829  57.6431131   9.7992009  34.4129848  57.6258278  10.0518191
  33.2704139  58.5738754   9.7573364   0.1430240  29.9597168  73.9564848
   0.2605733  29.6843791  73.0473089   0.9157640  29.6234536  74.4103909
  55.7169771  56.9192219  23.3957672  55.9633017  57.5902510  24.0323806
  54.8479128  57.1831989  23.0936599  68.8656378  63.4902906  19.4704318
  68.2764959  62.7549314  19.6389329  69.1434956  63.7786627  20.3398371
  33.5826993  39.6863174  27.3192215  33.6930966  39.6274877  28.2682133
  32.6393366  39.5998597  27.1820211  25.0003791  66.7817259  10.8243048
  24.6331382  67.5511789  10.3892136  24.4521141  66.0549259  10.5286646
 109.0372181  76.0259199   2.0661636 109.5490932  76.8255424   1.9444430
 109.1995811  75.5145979   1.2734348   9.6098226  40.0010777  83.2341576
  10.1652086  39.8432159  83.9976025   9.3742681  39.1265535  82.9243946
  64.6629381 101.9267464  84.4632053  64.4077206 101.5695000  85.3137779
  64.2740965 102.8011990  84.4442749  45.5506039  49.3940592  13.2658422
  45.0240993  49.9345493  13.8548231  46.4235687  49.7853899  13.2978463
  44.5835304  59.4294834  24.4706392  45.5391407  59.3919277  24.4302678
  44.3936443  59.7573233  25.3496718  10.5399930   5.6199718  81.8145370
  10.3622746   5.5172306  82.7494717  11.4942217   5.6673485  81.7559147
  18.0341852  78.5488319   8.0394202  18.1567359  77.6344919   7.7840883
  17.6145768  78.9551067   7.2810638  63.5888672  46.5739346  20.0501680
  64.4883585  46.2621593  19.9504197  63.1195831  46.1927843  19.3080580
  64.2082977  52.3839283   1.7924577  64.6733046  51.6116333   2.1142718
  63.8134384  52.7690268   2.5747731  49.7941732  34.2677283  17.6883495
  49.7755289  34.8965359  18.4097946  50.7216978  34.0597057  17.5758517
  56.3792086  80.1578903  25.5794597  55.8565092  79.9211693  26.3456106
  56.1269236  81.0609913  25.3871393  21.6580486  63.5539007  30.1120615
  22.3127556  63.6549616  30.8029866  21.1519337  62.7842855  30.3723979
  60.2506208  53.5765886   6.7450196  60.3346634  54.5299339   6.7276371
  61.1366796  53.2612419   6.9230425   2.0820966   2.3157617  63.0441332
   3.0316782   2.3025449  63.1639338   1.7534509   1.6641662  63.6635256
   4.2649511  60.6582880   6.2612146   5.0954652  61.0709095   6.0241038
   4.5177180  59.8710394   6.7434788  47.2179651  83.9638138   5.7022512
  47.4301195  83.1465340   6.1531132  47.4036932  84.6475792   6.3458335
   2.0014052  21.4069176  76.9238997   2.4879621  22.0882869  77.3878241
   1.5154341  20.9500337  77.6104259  81.3042164  94.0692997  92.8496647
  81.3132286  94.8237514  93.4387016  80.7582951  94.3464279  92.1138668
  66.4419127  33.9668679   8.6572093  66.6473818  34.0286446   9.5900530
  66.3000917  34.8728228   8.3826840  80.0882721  56.6360617  39.5400667
  79.1648626  56.7527533  39.3166399  80.0773144  56.0907316  40.3266621
  34.6114421  44.8443174   1.1774327  34.9595523  45.1941204   1.9976094
  33.8393331  45.3805017   0.9969310  18.4567928  40.6855822  67.4386501
  18.1827676  41.5316391  67.0846272  19.3464434  40.5639887  67.1070337
  97.3427296  12.4900007  62.3266840  97.2697544  13.2648051  61.7693806
  97.6634789  11.8035722  61.7417336  42.3801231  33.9290547   8.3733928
  41.7354345  33.4097791   8.8539767  42.0281029  33.9854550   7.4850619
  73.6835146  96.9607162  82.4687576  74.1292000  96.9542408  83.3158398
  73.5427713  96.0360813  82.2650909  11.8880188  64.9285126   6.8529248
  11.9865918  64.3177080   6.1225575  12.2595417  65.7495642   6.5303224
  16.9524717  80.9365177  26.7015409  16.8214869  80.8277225  27.6434755
  16.0701835  81.0522270  26.3488221  49.4145632  60.3324413   8.3439273
  48.9709091  59.6450710   7.8470129  48.9072990  60.4091930   9.1520256
  37.1330881  34.1269279  89.7544003  37.0439291  34.6674371  90.5393410
  36.5669107  33.3725524  89.9174786  53.2158661  52.9717016  10.1916671
  52.7794886  53.5942411   9.6100688  54.1257286  52.9635859   9.8944932
  69.9419212  52.3857403  26.9771910  69.5166302  51.8305016  26.3236880
  69.4505882  53.2067728  26.9501853  15.5318725  57.9889107   2.6550621
  15.0975478  58.2896805   3.4532675  16.0748959  58.7292337   2.3843572
  98.5369492  12.1503484  92.2817898  98.7855721  11.2565434  92.5174332
  98.1567192  12.0704436  91.4069843 101.2938786 102.8647327  76.5930796
 102.1957016 103.0494595  76.3307428 100.8633900 103.7196636  76.5891171
  84.3948269  85.2782249  88.2230854  83.7664700  85.6180573  87.5859642
  84.1341782  84.3665028  88.3536816  62.6210213  67.1637678   8.4453845
  62.5899315  66.4825916   9.1171479  62.0163918  66.8601704   7.7682704
  28.2021070  39.2709708  33.8092113  28.9066148  39.1153669  34.4382477
  27.4173594  39.3703270  34.3482232  47.7844334  51.9885731  29.1357780
  48.5947466  51.8716192  28.6398554  47.4565220  51.0996532  29.2719102
  81.9887257  91.0179424  89.3092918  81.6121387  91.5209103  88.5871887
  82.9190445  90.9502316  89.0944481   7.6111042   3.8720003  89.3001938
   7.2210580   3.6622652  88.4515953   8.1284690   4.6607542  89.1376114
  18.9283514  22.2095156  93.5334778  18.9262581  23.1663132  93.5058403
  18.3605254  21.9899893  94.2721272   6.6623676  65.4244280  11.0914361
   6.5029049  65.1482153  11.9939387   7.6083285  65.3336477  10.9767663
  86.7953587 107.3316479  80.1287079  87.7322483 107.5234222  80.1699257
  86.3710213 108.1709766  80.3067589  37.5777388  34.3882322  30.0309896
  37.7393579  34.1021490  29.1319513  37.8537178  33.6478138  30.5712175
  72.8652525  40.7934999  12.7013958  73.0852652  41.6206312  13.1299758
  73.5491419  40.6760502  12.0420551 114.2413616  31.2566519  92.9811478
 114.4907761  30.7011461  93.7196827 115.0556183  31.6859841  92.7186680
  37.2957015  63.7849236  27.0666027  37.4011040  64.4141102  26.3529849
  36.7426419  64.2363739  27.7042150  59.9577475  92.7617073  70.2065563
  60.0483084  92.8053665  71.1584616  59.7364855  91.8475723  70.0286961
  65.1918459  96.7910290  87.0307159  66.0238934  97.1418667  86.7131519
  64.5267391  97.3446846  86.6216564  71.4428949  67.9102612   9.2463392
  72.3155928  67.5817871   9.0301549  71.5701771  68.4196424  10.0466895
   9.8201317   7.1364450  84.4136333   9.5347178   7.8711790  83.8705540
  10.1001048   7.5403255  85.2350521  53.4160662  31.1724401  77.2718191
  52.8650236  31.9237447  77.4911976  53.1610012  30.9409928  76.3787317
  89.7218323 107.8632736  83.8242722  90.3708363 107.1702957  83.7025547
  88.9216328 107.5135136  83.4323788  88.3957005  89.3346882  69.7961903
  87.6156044  89.7875500  69.4758892  89.0651703  90.0169945  69.8461294
  48.2906961   1.9533843  79.0106487  48.7359571   2.5931379  79.5662498
  47.5888872   2.4494636  78.5892248  97.0185852  99.8673344  92.5487328
  97.1805382 100.4831982  91.8340874  97.8211784  99.8887920  93.0698967
   3.9346483  31.6456127  63.7839174   3.7393641  30.8915997  64.3402958
   4.8639154  31.5537596  63.5735416  27.3902774  51.5547562  23.9491987
  27.2430921  51.4544678  24.8896837  27.1852994  50.6950235  23.5816741
  32.8506589  55.6328058  14.5821202  32.9044652  55.5993843  13.6270189
  32.9756546  54.7256851  14.8609447  22.8163719  12.4977911  87.8752708
  22.6256800  12.0655203  88.7077427  23.4210229  13.2034445  88.1048012
  58.5789871  90.4490662   2.5592220  59.3036032  90.7175827   3.1240773
  57.8611326  90.2607536   3.1637529   5.8701372  35.4284525  22.2093201
   5.9328300  34.4810867  22.3309708   5.1748419  35.7013083  22.8079391
  85.5632973  19.8089206  68.1159782  85.6216335  20.6734467  67.7092505
  86.2931538  19.7856331  68.7348413 102.9009151  13.8832974  90.8133698
 103.5558987  14.4272220  90.3759003 102.1093464  13.9908898  90.2860451
  34.6203828  65.7813978  23.7717104  35.1787257  66.0698843  23.0497241
  34.1981745  64.9868011  23.4452391  62.0117331  35.0806665  23.2472277
  61.1395979  34.7238779  23.0789566  62.4368238  35.0886035  22.3896360
  94.0978432  98.9627647  61.8341064  94.8393726  98.9307499  61.2296724
  94.4949436  99.1078186  62.6928902  61.3523674  77.7950954  74.4205093
  61.9241762  77.2522497  73.8777494  61.2542248  78.6086607  73.9258194
  60.8433104  47.4995089   3.0750889  61.4558840  48.2161570   2.9095453
  61.3943577  46.7178679   3.1153119  39.0196514  44.7272253  16.8793619
  39.0542507  45.0105047  17.7930284  38.2627916  45.1860523  16.5148425
  19.7649002 101.6212654  14.0540421  20.0286889 100.8973312  13.4860969
  18.8084865 101.6198635  14.0152788   7.0844096  15.0944626  73.6251068
   7.5914109  15.1596296  72.8158283   6.4305794  15.7900155  73.5547924
  88.0517578  50.0750971  18.0704999  88.2050228  49.1937447  17.7299631
  87.8764439  49.9446583  19.0024233  99.6166134   2.6981586  84.6267128
 100.4116535   2.1861178  84.4785118  99.8742580   3.3602753  85.2681637
 103.6775875  53.8235569  60.6389761 104.4104958  54.3145323  61.0104895
 102.9349995  54.4252491  60.6916523  37.5985193  77.5452948  15.8074200
  38.2917094  77.9881001  15.3178871  37.1903753  78.2390976  16.3253844
 106.6654110  68.5670614  86.3576698 107.2643852  68.7922573  85.6458092
 106.2819958  67.7310085  86.0926342  37.3935461  16.4674616  24.7145438
  37.2998309  16.8372607  25.5924368  37.9498553  15.6981778  24.8368287
  46.4360857  27.4845576  15.2246630  45.8254004  27.2550344  15.9251022
  47.2066259  26.9416499  15.3912532  67.8261471  82.4481010  72.5311613
  66.8846703  82.2758007  72.5439024  68.1564760  81.9199753  71.8043852
  35.3814101  47.7463055   4.6224934  35.6173277  47.4400997   3.7468147
  34.5886111  48.2658195   4.4890520  70.8580351  87.9217148  15.8945394
  70.7934856  87.8570747  16.8473709  70.2176857  87.2897720  15.5676806
  14.4192600  39.1551852  43.7775421  14.6129477  39.9443221  44.2834854
  15.1256502  38.5487199  43.9999056  74.5518970 104.3727398  71.9118309
  75.4237223 104.1064548  71.6198587  74.6326399 104.4562435  72.8619576
  56.8269587  27.3342204  77.5517321  57.6857948  27.6329803  77.2527790
  56.3854599  28.1307912  77.8463268  77.7681732  16.0938549  53.5157442
  76.9786787  16.3434672  53.9959812  78.3248615  16.8718076  53.5491753
 115.4931545  25.8510971  47.9980421 115.8383369  24.9601722  48.0557680
 114.5683575  25.7359624  47.7795458  92.9572964  98.9252186  55.9856129
  92.5951672  99.8061752  55.8906603  93.3018303  98.9028358  56.8783760
  57.1698809  20.8311009  18.7528622  57.0994377  20.6768608  17.8108013
  57.8298187  20.2044201  19.0494812 107.5150681  23.6071157  36.2392426
 106.7973995  23.1427860  35.8084536 107.1470451  24.4618773  36.4632320
  97.7862263  12.4035418  89.8418522  96.8518257  12.4170864  90.0490856
  97.8260422  12.5865149  88.9031506  21.3361192  11.3242340  64.1702080
  22.1913004  11.2632525  64.5958567  20.9899664  10.4322886  64.1992712
  23.0460882 102.9688835  13.0554950  23.9525414 103.2684994  13.1247962
  23.0275989 102.1464539  13.5448730  28.7446046  28.4406281  76.0966253
  29.6873283  28.4976077  76.2523651  28.3496046  28.6204386  76.9497776
  23.3579350  63.1280708   8.3218217  24.1044521  63.7067175   8.1665516
  22.6477170  63.5096836   7.8058827  12.7005839   8.7300861  81.7554855
  13.5436535   9.1710347  81.6504574  12.3792231   9.0273362  82.6067162
  70.7716894  28.1856275  85.8643723  71.1582470  29.0103793  85.5701065
  71.3778067  27.8612018  86.5304089  43.5942173  62.5934315  17.8206718
  42.9690647  62.7784157  18.5215247  44.4058037  62.3701382  18.2764173
  54.5285559  53.9809465  14.0176105  53.9926910  53.2529736  13.7027490
  55.4305506  53.6883545  13.8871169  10.8511043  13.9307392  78.8138437
   9.9303764  13.7839651  79.0305185  10.8666635  13.9844859  77.8582811
  84.6709538  99.5332241  91.5858459  85.1114368  99.3205738  92.4086380
  85.2640343  99.2119694  90.9066772   9.3689555  11.4608121  59.3649149
   8.6022347  11.4565516  59.9379349   9.9982184  10.8874464  59.8025370
  68.6025572  54.2225933   8.8983452  69.4329453  54.6519470   8.6925769
  68.3016539  53.8693523   8.0611408 113.2235718  15.9481156  69.0675926
 113.8585663  16.0986722  69.7678471 113.7238312  15.5060685  68.3816099
  68.0943966  15.7970989  18.5312498  67.3504353  16.0640299  17.9913425
  67.8989553  14.8932195  18.7783074 105.5268764  16.6557729  21.9241524
 105.0874043  15.8563089  21.6343975 104.8618317  17.1258032  22.4271703
  75.5876112  84.3699551  82.9244518  74.8488617  84.3095207  83.5301113
  75.5181122  83.5838795  82.3827171  31.5435600  33.4875560  49.9606228
  31.1450052  34.3518662  50.0623846  31.9993186  33.5314322  49.1200352
  13.4807229   3.4741646  80.1386166  13.5223949   4.2667443  80.6736946
  13.6432767   2.7601755  80.7550812  55.6380129  25.3803754  19.4042456
  54.7370720  25.0684619  19.3191028  55.9777975  24.9238467  20.1738954
  34.4605899  47.3513699  27.1456146  34.2246437  47.2080564  28.0621409
  34.1207385  46.5825319  26.6877675  88.3227539  40.4266024  67.7632809
  87.9048347  40.4389668  68.6243391  89.0631390  41.0273838  67.8477430
  98.0038643   3.6622804  93.5557938  97.7049923   4.1871771  92.8132343
  97.8113937   2.7591765  93.3036232  73.9626741  34.5533895  49.6996975
  74.0065098  33.9195490  48.9837646  74.6784878  35.1638913  49.5232534
 109.3863678  90.3719044  68.6731863 109.2145824  89.4626045  68.4284306
 109.1417408  90.4215145  69.5972681 112.3208046  73.7838268  91.5395355
 112.6593781  72.9849672  91.9437885 112.2397232  73.5665083  90.6108665
  65.6281471  59.2405415   6.5108824  65.1062489  58.8627720   5.8029640
  65.7720089  58.5135031   7.1166456  50.7820034  35.3820777  14.2762852
  50.8630800  35.1225448  13.3585155  49.8990536  35.1089311  14.5253313
  69.6861744  69.6383953   1.3785012  69.0996504  69.1964817   1.9924462
  69.4536829  70.5642223   1.4493804  17.3831236   3.7706453  84.7158813
  18.1649351   3.2194975  84.7510910  17.5603199   4.4776151  85.3363800
  94.5116615  96.4686489  87.2486687  94.2812729  97.3571968  86.9773102
  93.7121677  95.9609413  87.1098328  41.1341715  44.5207214   7.3907971
  41.7085648  44.2912054   6.6603029  40.8855963  45.4298258   7.2235465
   1.9526143  18.2212150  76.4502478   2.7709392  17.7260959  76.4881086
   2.2276121  19.1288614  76.3206959  44.3594551  55.3290176  11.1303723
  44.4287491  55.4975128  10.1906705  45.1534462  54.8394346  11.3451076
  57.3256493  63.3952999  25.8014083  57.1538496  63.9416933  26.5683317
  57.0770168  63.9428425  25.0566840  38.6708212  32.0950484  19.8468864
  38.4846759  32.3258042  20.7570148  39.6257639  32.0465350  19.8025990
  36.0788774  28.5881710   6.2971586  36.6687346  27.8764629   6.0486126
  35.2237129  28.3185315   5.9621686  41.3588810  40.0036716  14.1518712
  42.0273781  40.3954268  14.7138941  41.2808847  39.1024709  14.4649053
  23.1065655  51.7392826  26.9564199  22.1952939  51.7463541  27.2492838
  23.3349371  52.6640224  26.8618774  24.2448711  15.8496320  93.5689449
  23.5908318  15.9800279  92.8823185  24.9490476  15.3636348  93.1397915
  88.2998657  94.0971088  89.6016788  88.2508469  93.5376644  88.8265324
  87.5371075  93.8495827  90.1243305  20.7792997  61.8039179  11.5822613
  20.6695294  60.8590889  11.4751232  21.5743637  62.0099401  11.0906696
  13.1094420  20.2878475   6.8435514  12.3223400  19.7480559   6.9165438
  13.6693192  19.9933171   7.5618970  97.4513721 106.1381626  92.9526234
  98.0211353 106.6572952  93.5201645  96.9911194 105.5486202  93.5499763
  31.3753247  56.0857105  27.2304296  31.5096211  55.5664396  28.0232430
  31.5127516  56.9905949  27.5106525  18.6264634  55.0868607  16.1472607
  18.3253014  55.8665085  16.6138291  18.1142366  55.0788212  15.3386867
  27.3439121  21.9177914  11.9565892  26.9622993  22.3291731  11.1811101
  27.7461457  21.1138391  11.6278005  34.0957451  22.0524621   0.9216222
  33.8332605  22.7278280   1.5470937  34.5821333  21.4163542   1.4460497
  67.9402018 107.0493698  81.9299698  67.1325827 106.5397644  81.8645287
  67.9043531 107.6515102  81.1867523  64.3894196  70.1992702  33.8388205
  64.9194384  70.4972172  34.5781040  64.7108841  69.3168354  33.6538792
  63.0506039  68.8130951   3.4861279  62.7301550  69.5120430   2.9160222
  62.6706314  68.0136728   3.1217483  40.4644394  55.5305481  23.9892316
  40.1023006  56.1111450  24.6585560  41.2258244  56.0013294  23.6502767
  10.5805659   3.6417547  83.9476395  11.1053276   2.9289865  83.5832024
  10.7210982   3.5836607  84.8926830  72.8381681   2.3567416  64.9024773
  72.9288626   2.6059720  65.8222008  71.9572020   2.6438588  64.6622753
  64.0906191  44.8629570  37.0351505  63.9160633  44.3712091  36.2326860
  63.7365770  45.7354879  36.8631744 102.7438450  10.6485236  65.4559469
 102.4835587  10.8639324  64.5603561 103.6600399  10.9201550  65.5109882
  70.4563141  76.7163372  11.6060567  70.6818008  76.5141678  10.6980288
  71.2461567  77.1211243  11.9645572  62.6751757  60.1294279   6.7304581
  63.3820152  60.4837275   7.2699815  62.7459812  60.6031132   5.9016991
  28.1589270  37.9739165  11.8450403  27.5668383  37.5768471  12.4837887
  28.2450366  37.3148513  11.1562383  37.8417015  60.4669905  31.3874745
  37.7708030  61.0096788  30.6021762  38.2559013  59.6592426  31.0838175
  42.6678133  73.7175417   9.7011626  43.4557009  73.3569002  10.1078594
  42.7186060  73.4346008   8.7881488  47.8538275  32.3327208  14.8030710
  46.9333792  32.3461461  15.0654149  48.0522585  31.4054155  14.6728313
 112.1190739  20.9472942  81.6000557 111.7023087  21.3985801  82.3341465
 112.1608734  21.6058254  80.9066391  36.0561156  35.9122777  10.0988972
  35.1109099  36.0196590  10.2051544  36.4356065  36.3840246  10.8402967
  20.0473571  52.9159546  80.1979923  20.8002782  53.3939028  79.8502731
  20.3195095  51.9983435  80.1853371  62.4482632  83.3513451  20.1458216
  62.6129675  83.7450790  21.0026050  63.0436563  82.6028252  20.1077604
  41.8568993  87.0263767  30.7739663  41.9936943  86.7380714  29.8715234
  40.9720421  86.7308617  30.9882855  33.4736466 106.3582706  22.3655081
  33.5124516 106.6693497  23.2699156  32.5523639 106.1384296  22.2271633
 107.6060581  70.8849382  16.4392006 106.9680595  70.1887703  16.5958893
 107.2136879  71.6629934  16.8353200   6.4358914  10.2996111  67.9383469
   5.8060616  10.1919234  68.6510515   6.3646889   9.4907248  67.4315262
  25.7206869  25.5577040  90.5895424  25.4704142  25.0279188  89.8326302
  24.8970056  25.9305501  90.9038162  31.4238763   5.0648123  80.0507355
  30.6842875   5.5412364  79.6735620  31.9827700   4.8581666  79.3016195
  45.8892536   8.1272405  82.5864887  45.8030939   7.1915388  82.7688885
  46.8307257   8.2942271  82.6309109  56.3163137  88.0985069   8.9327806
  55.5423117  87.9594231   8.3870673  55.9653139  88.3592224   9.7842836
  33.0519366  43.5431337  43.6590385  32.2446799  43.5046101  43.1461239
  32.9468942  42.8612566  44.3225479 101.9374275 104.7846317  61.6562319
 101.2178612 105.2666569  62.0637846 102.6143551 104.7481632  62.3320055
  95.8204842  35.7462835  93.3856106  96.6435242  35.3903770  93.0506992
  95.3729057  34.9929404  93.7708187  43.6757755  87.3816395  11.3807333
  44.4161558  86.7825127  11.4762235  43.2393694  87.0970154  10.5777562
  43.5008049  90.1854324  28.5256648  43.3682251  90.8399487  27.8399086
  43.4707022  89.3467426  28.0653167  93.5184860  16.3731289  80.7416248
  92.7339077  15.9566331  81.0982609  94.2188358  16.1187971  81.3424969
 110.0040150  50.2103424  90.3861904 109.2022991  50.6877232  90.1726532
 109.9403286  50.0438118  91.3266373  17.4381113  52.7169132  84.0784073
  18.2331240  52.2451210  83.8302040  17.7357650  53.6080027  84.2616844
  61.5202427  78.2624865   5.0382477  61.1457872  77.8092432   4.2828763
  62.2445869  77.7029610   5.3184116  74.0404034  46.3123083  26.4437795
  73.9673996  47.1564245  25.9983945  74.8387241  46.3857079  26.9667768
  20.7127404   6.3215023  69.6139240  20.0867081   6.2858915  70.3371477
  20.4627299   5.5937088  69.0446758  57.4656343  92.5238132   8.9360213
  56.6119289  92.1204185   9.0931672  57.2654915  93.3312035   8.4624249
  34.8153257 102.3679638  11.9393229  35.2946138 101.7346859  12.4736249
  35.4682565 102.7079487  11.3275027 114.0298939  39.1602945  60.0379562
 113.9525223  39.2085576  59.0851116 114.8448944  38.6812854  60.1881218
  27.0220828  10.5574238  58.4003973  26.3224411  11.0671294  58.8089705
  27.1060109   9.7801363  58.9526749  19.1589308  12.3411715  90.9123230
  18.4573054  11.7203689  90.7159615  19.3792534  12.1717429  91.8282795
  63.5792494  76.9508886  18.4690464  63.3716917  76.8040466  19.3918622
  63.5707903  76.0765457  18.0795777  64.6389723  83.0641174   8.2299888
  64.6079826  83.4224510   9.1170460  64.6510887  82.1152306   8.3552688
  62.6678753  64.0423918   0.8061962  63.2893944  63.5131931   0.3063030
  61.8182039  63.8542509   0.4075838  92.1229267   4.3280065   1.5482633
  92.9506302   3.8472897   1.5405585  91.5119934   3.7457749   1.9999231
 106.4287758  18.8569880  63.6109161 106.2968922  19.7719276  63.8593626
 107.0173454  18.8959539  62.8570652  58.5408211  94.3552685   2.8676432
  58.4306145  93.6012745   2.2883511  59.2781782  94.8382568   2.4944764
  90.1867676  84.2169666  19.3391228  90.5797863  83.3683014  19.5429623
  89.2456532  84.0760994  19.4424617  22.8707814  17.8049195  17.5075531
  22.9995966  17.8114998  16.5590835  23.4305286  17.0942390  17.8203595
  15.7928598  22.5262856  85.2461433  15.0653136  21.9044590  85.2306938
  15.4143333  23.3457685  84.9277115   2.9127035  12.4726045  73.8688946
   3.2455507  13.3283889  74.1392231   2.0102601  12.4550557  74.1875124
  45.1243544  87.4849510  17.4751520  44.9138594  87.3555660  16.5503895
  44.4006681  87.0712757  17.9456663  48.5754824  39.2215371  24.8607802
  48.6369133  39.6093225  23.9878082  49.4301701  38.8146353  25.0027966
  76.3303137  76.4196634  12.6478910  77.2461510  76.6979361  12.6541185
  76.2020063  76.0375023  11.7797184  68.5032177  83.6600876  29.4387150
  68.6805725  83.8284111  30.3641582  69.2417479  83.1257725  29.1466355
  11.3508916  34.3249345   1.7148039  11.8782341  35.0891447   1.9474518
  10.5585086  34.6912527   1.3221575  86.9835854   9.1410369  12.7328706
  87.5405502   8.3627093  12.7177811  87.2939777   9.6719235  11.9993496
  67.2749949  94.3415737  46.1185932  67.6228380  94.3564320  47.0102262
  67.6287174  95.1317692  45.7103062  29.6327066  65.9443092   9.6441501
  28.8577366  66.3254023  10.0569749  29.7273970  66.4256525   8.8222176
  48.0804634  63.8054991   8.4569681  48.5145283  63.7664413   7.6047385
  48.7625027  63.5658121   9.0843463  86.0652259 109.2683660  91.8872261
  86.0939559 109.8129462  92.6738930  85.7403901 108.4217478  92.1937370
  73.6371040  45.6180191  17.0418453  74.4917488  45.1886988  17.0805728
  73.0144548  44.9349976  17.2908926  60.1646757  33.1736493  22.0944095
  59.3440390  33.5233974  21.7473340  59.9311399  32.3114109  22.4382639
  22.8989291  42.4461937  82.7993107  22.1965003  42.9673290  83.1882095
  23.4536576  42.2012806  83.5399437  88.0737591  63.4184170  28.9480042
  88.0211544  64.2458200  29.4264030  88.4893608  63.6482716  28.1169391
  50.4997063  61.6021585   4.0728268  49.9755478  61.9494057   3.3510861
  51.0318327  60.9142303   3.6730450  59.0964794  64.8370838   9.2023230
  59.8056269  65.2718973   9.6759003  59.1234589  65.2205753   8.3257169
  58.6220312  62.4105644   7.0677847  58.8956785  62.3084879   7.9793382
  57.9010820  61.7896605   6.9631767  28.4868717  94.8770428  17.8303361
  27.6933360  94.6681023  17.3375106  29.1823196  94.3993187  17.3782706
  42.5550127  83.5080528   9.1783118  42.5251055  83.2755566   8.2502586
  43.2901525  83.0044270   9.5278227  19.9951577 107.8584576  85.2051735
  19.5007169 108.1672859  85.9643650  19.7615957 106.9334602  85.1273632
  36.9893456  81.6683006  12.1076584  36.5814781  81.4470005  12.9448569
  37.4998856  80.8920670  11.8773544  99.8355007  82.7055073  10.2550185
 100.2355576  83.5271072  10.5399203  99.8045921  82.7724552   9.3006629
  95.8731079  43.4437943  75.7931852  95.1509762  43.4464216  75.1648998
  96.5484333  43.9849567  75.3841400 100.3295326   1.8679595  91.3871384
 100.2019310   1.2492163  92.1062374 100.7998753   1.3670164  90.7207489
  17.2914672  32.2007036  75.2842808  17.4039054  31.6286254  76.0434341
  16.7620504  31.6874599  74.6739292  52.0917892  59.5438480   8.4955490
  51.2181759  59.9107933   8.3599818  51.9460726  58.7766361   9.0490711
   0.8938859 102.1079826  83.6194324  -0.0187799 102.3701572  83.4988594
   0.9669247 101.9178963  84.5547199 102.1670437  20.9277987  58.9232159
 103.0600071  20.5853701  58.9630365 101.8713665  20.7231045  58.0361366
 112.3678017  36.4511847  79.3243408 112.8070259  37.3005080  79.3686485
 111.4816380  36.6551185  79.0254116  57.6273918  86.4189529   2.3125131
  58.4282732  86.8907452   2.0839685  57.1359062  86.3701344   1.4925800
 104.2234039  76.1838531  24.5494914 104.9208641  76.2784863  25.1982117
 103.6387253  76.9230175  24.7168612 112.1666622  30.8807182  82.1678162
 112.2512341  31.3289881  81.3263130 111.9804192  31.5801859  82.7941513
 102.9646206   8.8347602  69.0358257 102.6131248   9.4683903  68.4103727
 103.5344410   9.3514210  69.6055603  29.1145468   1.9363272  84.0243816
  28.3036828   2.4424726  83.9738941  29.3557000   1.7786573  83.1115723
  45.6777859  58.1998348  29.8109555  45.2632570  57.3486328  29.9518633
  46.5545511  57.9890442  29.4899011   3.8451684  41.9173908  82.0010948
   3.5925904  41.0672331  82.3611832   4.6322602  41.7357063  81.4875603
  87.7676296  34.4973922  88.5273457  86.9244671  34.1163087  88.7724686
  87.5399494  35.2731347  88.0148888  73.6634159  85.8845806  10.3123891
  74.1191769  86.1347103  11.1160958  73.7473774  86.6485023   9.7417700
  33.0845618  10.0690687  83.5702801  33.3280540   9.1436571  83.5466671
  33.9092875  10.5298793  83.7242603  82.2397518  83.8665867   4.3204945
  83.0426788  83.3877850   4.5261356  81.8008041  83.3269310   3.6629775
  57.0549726  83.3251858  23.8688636  57.1202898  82.5580120  23.3001828
  57.0087957  84.0671062  23.2658195   9.5410281  98.9152718  88.4326553
   9.4904792  98.4747696  87.5843525   9.9231088  98.2623959  89.0191746
  23.8176084  57.6101065  20.6542826  23.9003944  56.7224503  20.3058004
  22.9959798  57.9359818  20.2869081  84.5120716  92.3232365   3.1972948
  85.0503063  92.1112823   2.4346597  85.0363827  92.9520512   3.6931947
  10.8018041  45.7468557  90.6298065  10.9308338  45.4798555  91.5399170
  11.2322390  45.0632620  90.1163292  80.1369095  15.9666479  65.8563280
  79.2392731  16.0422659  66.1800051  80.1439381  16.4790118  65.0478315
  58.5715246  75.2786255  23.2349038  59.1557646  75.8118296  23.7739706
  58.8736153  74.3805313  23.3705378  66.2665844  79.0910101  10.8548665
  66.1820793  78.2018089  10.5107522  67.1605158  79.1324139  11.1945820
  34.8860669  60.9887838   7.6485741  35.3932810  61.7928410   7.7601963
  34.1867995  61.2291527   7.0407242   4.8584580 108.8854408  38.0072951
   5.4564351 108.9790535  38.7488413   4.4033030 108.0591488  38.1694770
  61.6019917  64.6183205  31.5200138  61.9890499  64.2507601  30.7254601
  62.2734451  64.4976711  32.1914530  41.5538073  19.3332422  61.1962366
  41.4812756  20.2115846  60.8227634  40.7752514  18.8740158  60.8812857
  34.4827461   6.9766498  50.6506634  33.9889646   6.2017828  50.9189749
  34.7551012   7.3837352  51.4730597  34.3377757  71.7474174   5.0409818
  34.2328358  72.0449686   5.9446865  34.5912671  72.5338602   4.5577836
  91.5521622  93.8800144  17.6515877  92.1861267  94.3994808  18.1460333
  92.0463753  93.1144142  17.3585892  78.2235718  76.1674166   7.6479697
  78.9747190  76.0448313   7.0674706  78.6057758  76.2369061   8.5227960
   1.5089969  18.0120635  79.8547268   1.4304700  17.5632977  80.6965542
   2.2015679  17.5381196  79.3943405  30.6963611  72.6240635   3.4465694
  30.7657957  71.6745901   3.3469948  30.5069065  72.7542210   4.3757609
  43.9087963  39.0861201  18.0360711  43.1819439  38.4712243  18.1351292
  43.5236740  39.8430920  17.5945950  29.6162462  45.3848743  93.9717579
  28.9891195  45.9538460  93.5254192  29.6952105  44.6208668  93.4005451
  35.2833009  93.3821774   8.4776759  35.7475948  92.5458527   8.5125881
  35.6530261  93.8916683   9.1987562   7.9092109  31.0180616  74.1794109
   8.4541810  30.6340742  74.8662853   7.5465053  30.2652502  73.7125587
 104.8833561 108.8830662  82.0278263 104.4300652 109.2194462  81.2547684
 105.7756996 108.7119770  81.7267036  79.6470261  91.8059158  51.7071009
  79.4628906  91.1488056  51.0358858  79.1549730  92.5779915  51.4277935
 110.9445477  89.7683048  27.2492886 110.9742641  90.5227470  27.8376460
 110.4860783  89.0927792  27.7489996  64.3062210  39.5499015   5.5494964
  64.2035913  40.0744724   4.7554386  65.1527309  39.8187304   5.9064013
  44.4578600 105.6893921  17.8781998  44.2162037 105.0211620  18.5195291
  43.6730814 105.8014107  17.3417258  45.8661270  71.6271830  14.5607305
  46.6538858  72.1642685  14.4758546  45.3448391  72.0706606  15.2299190
  21.6801572  26.6788936  73.7204027  21.6554165  26.4204550  72.7990866
  22.6068449  26.8380475  73.8997173  43.9017439  61.7786264  10.1575673
  44.7924805  62.1182919  10.0713003  44.0017891  60.8280945  10.1055503
  94.6557903  24.3035150  74.0634775  95.0841045  24.1447616  73.2223034
  94.0979671  25.0657058  73.9081478  67.5391483 100.6243992  21.6778421
  66.7606735 100.7603168  22.2179699  67.2309065 100.7426357  20.7793760
  53.1700850  20.5837321  80.4393768  53.7760210  21.1002398  79.9080658
  52.3033047  20.8094215  80.1017570  64.6569490  96.0539150   8.7395912
  64.1254187  96.5666771   8.1306756  65.2981281  96.6771507   9.0812212
  19.3241251  36.2352061  89.9872589  19.5801353  35.9733272  89.1028881
  19.7905183  37.0573807  90.1380444  54.9472046  89.8804188   2.0177484
  54.3880510  90.4905701   2.4986768  55.8337069  90.2196121   2.1414118
  78.7385988  69.8657274  33.9168882  79.3505001  70.1366997  34.6012712
  77.9939461  70.4595041  34.0125871  29.5931244  99.3426514  30.6512260
  30.5061746  99.0916538  30.7911396  29.4933057 100.1625824  31.1349344
  64.5382118  84.3075466  14.1003573  65.0564384  85.1099396  14.0384102
  64.6431398  83.8881302  13.2463598 112.6153469  15.2540207  82.8940678
 111.8877029  15.3145409  82.2751045 113.1674004  16.0086858  82.6892567
  37.0356965  84.8095036   7.6840484  36.8304920  84.4934845   6.8041307
  37.8550577  84.3699551   7.9113758  79.9001408  89.0391731   3.0342266
  79.6036434  88.9201832   2.1319160  80.3625584  89.8772240   3.0258507
  38.5763955  81.5991020   3.0408174  37.7989268  81.0426998   2.9940236
  38.9711905  81.5326118   2.1713641  91.1209869  91.5507698   5.8274734
  91.3193512  91.9152164   4.9648851  91.3727093  92.2398663   6.4422947
 105.5881786  20.5480027  76.7138290 105.5788517  20.0389814  75.9032488
 105.6503487  21.4582562  76.4243364  93.9291668  17.9379284  90.5057907
  94.5853329  17.8025723  89.8221493  94.3239880  17.5649047  91.2939548
  37.4605393  28.4205389  59.9812841  38.2974100  28.1028795  59.6422100
  37.5219703  28.2935166  60.9280300  72.7460098  78.5442829   7.3683345
  72.1110964  79.0243101   6.8366462  73.5944557  78.7603903   6.9814742
  51.8708181  83.1092644   8.6974049  52.1134329  82.3851490   8.1203169
  51.6226435  82.6872158   9.5199120  61.6529465  53.2557869  20.2874970
  61.2762260  53.0125904  19.4418216  61.6068411  54.2117262  20.3042293
  55.8101702  52.5624609   9.6416861  55.5738544  51.7097664  10.0067830
  56.6736078  52.7497196  10.0099802  79.7557259 108.0072498  91.3379002
  80.6128788 107.7598476  90.9910297  79.1320467 107.4958038  90.8224487
  39.3337178  35.0088310  68.0633688  39.8493552  35.7630730  68.3487988
  38.4239197  35.2850723  68.1737709 111.4874363  41.9739151  81.2802982
 112.0215225  42.3836708  80.5997944 110.8114624  42.6224041  81.4771461
  55.7233047  69.3906403   5.7385552  54.8119879  69.5198202   5.4757893
  55.6807947  69.2352676   6.6821033  45.4681206  12.1444666  69.5037031
  44.7675848  12.6342726  69.0729237  46.0927248  12.8143489  69.7818375
  37.0892930   2.2176763  90.3194809  37.2550774   1.2784299  90.2384567
  36.1791825   2.3249699  90.0430393  11.9050503  12.2301352  80.5718708
  11.5757883  12.9460692  80.0284958  12.6839900  12.5900841  80.9960365
 101.4226437  18.0530989  86.1635399 101.9133663  18.4529400  85.4455185
 100.5569172  18.4587836  86.1170769 114.8046589  13.2722914  83.5185719
 114.3844414  12.4818575  83.8574886 114.0812302  13.8059890  83.1898689
  39.4847059  69.3905020  18.5486853  38.9401555  69.9715567  19.0797889
  38.8648558  68.7803698  18.1489909  17.1061301  17.3072493  70.5674124
  17.0434344  17.0132017  69.6586561  16.6512811  18.1494009  70.5785751
  49.7412872  92.3164082   2.7007720  49.3930006  92.0401859   1.8530509
  49.4995356  93.2400227   2.7695897  97.4438000  93.1384182   0.4930547
  98.2722282  93.5381985   0.2282604  96.8291473  93.3796215  -0.1999487
  62.3870134  88.9498711  48.2427692  62.3228216  89.8303413  47.8727770
  62.3566008  89.0852547  49.1898584  61.9348812  27.2665048  16.6977942
  62.7407169  27.7333403  16.9189942  61.4154577  27.2912359  17.5014234
  46.6583300 100.3423309   0.3039750  46.2219000  99.8128128   0.9713371
  47.1683025 100.9817410   0.8012833 111.4070320  43.0009508  89.6178818
 110.8272934  42.2959328  89.3296146 111.7124748  42.7220201  90.4810905
   1.4475341   2.1887654  91.4738560   2.0409031   1.4595297  91.2939644
   2.0110659   2.9624921  91.4705944  63.5567427  99.8158741  22.0893407
  64.1722584 100.2931976  22.6456928  62.8304386 100.4253292  21.9579124
  67.5611305  13.4555280  19.5503771  67.3397827  13.6699080  20.4566216
  66.7295218  13.1914914  19.1567421  24.9347234  69.3263292   0.7712155
  24.7503400  70.0711727   1.3434404  25.8336401  69.4687986   0.4747690
  92.6080322  35.1879168  89.8988819  92.4547672  35.5434632  89.0234756
  92.3697948  34.2636204  89.8270798  78.5949183  84.5216465  27.1085835
  79.0551853  84.9220562  26.3709807  78.4584904  85.2412128  27.7248955
  25.8327103  32.9440761  59.5460892  25.3069782  32.2050357  59.2400551
  25.2782059  33.3810973  60.1924419  97.0690727  85.2109337  22.8230786
  96.4968777  85.4100037  23.5641575  97.5697803  86.0148430  22.6843739
 107.1562481  26.1162066  84.3144321 107.8578949  26.7318368  84.1024971
 106.5036297  26.2510562  83.6273098  41.4754438  61.6246128   3.7023240
  40.7091284  62.1359587   3.9621639  41.9304228  62.1798611   3.0691364
  54.6253920  92.0566750  15.7029808  53.8795376  91.4567947  15.7120228
  55.1889658  91.7488289  16.4128041  37.9702497  38.4125257  17.6942086
  37.1000242  38.3122945  17.3083389  37.9918051  39.3177462  18.0046010
  20.2840590  17.5241375  56.3793468  20.2170372  18.2340348  57.0179272
  21.1554790  17.6274002  55.9969902  67.4110937  52.7787399  10.9744167
  67.5842524  53.3575821  10.2319944  67.0409298  53.3531237  11.6447103
  83.3103180  48.8870668  14.8198187  83.3027458  48.2558680  15.5393767
  82.4982166  49.3822718  14.9270546  35.2466297  73.2470846  20.3963947
  34.5814204  72.8242064  19.8533428  35.5978370  73.9457226  19.8443198
  28.4853387  75.8753347   8.9233947  29.1101050  76.1933613   9.5751286
  28.8424945  76.1697912   8.0855602  51.2915564  31.4179778  13.5211194
  51.7111683  30.7717419  12.9531980  50.9203434  32.0618343  12.9178905
  57.3726511  81.7427635  11.3449359  56.9526100  82.5910282  11.2026536
  58.2905340  81.9553471  11.5138555  76.5338755  53.8965368  13.5099721
  75.8489084  54.5588970  13.6012471  76.8999100  53.8076735  14.3899465
  36.0440516  17.0620370  72.8181458  36.2425470  17.7463031  73.4573746
  36.8982911  16.7020357  72.5795984  79.0833473  91.7873383  16.2645233
  78.5521936  91.8245697  17.0599604  79.9407578  92.1171665  16.5334034
  78.4266520  63.3463001  12.0102954  77.7331352  62.7496433  12.2918367
  78.0210924  64.2130232  12.0338047  96.5180016  24.8511982  71.9385624
  96.3622189  25.7955647  71.9502783  97.4713516  24.7657895  71.9310379
  23.0656362  14.6904063  91.1503696  23.4801126  15.1820850  90.4413605
  22.3629165  14.2005491  90.7232189  59.6164036  77.9881191   7.3081475
  58.9281750  78.6511803   7.3621637  60.2147675  78.3180428   6.6378176
   4.7930562  55.7560062   7.5266528   5.1660907  54.9292183   7.8324234
   3.9503366  55.5116081   7.1441293   0.2814690  71.7182302  25.1550770
   0.0943816  71.3584661  26.0221410   1.2097502  71.5322971  25.0138164
  27.3647404  77.7025747  16.5350199  27.9800797  78.4320641  16.4612889
  27.1537280  77.6605606  17.4677265  96.3325977  79.4484949   3.2652125
  97.2871399  79.4555712   3.1942692  96.0761166  78.5785627   2.9591653
 113.4749794  16.6643798  63.0977488 113.8814354  15.8286905  62.8683043
 114.0964699  17.0761728  63.6980820  44.9272728  64.8225975  16.7428386
  44.5852852  63.9332151  16.8338299  45.8664989  64.7046804  16.6007745
  80.3076172  76.1563301   5.9345037  81.1730576  75.8322001   5.6851369
  80.3233242  77.0846605   5.7017213  13.1186461  70.3196764  15.2075326
  13.2221806  70.5030012  14.2737746  13.6087012  71.0163927  15.6441820
  53.4826279  85.5376244  14.1407490  53.9604807  84.7818661  13.7991047
  54.1508007  86.0662079  14.5770693  60.4348898  81.1830235  19.8043859
  60.7035780  82.0638084  19.5431256  60.9421587  80.6003475  19.2392278
  50.2238274  53.2564163  13.8414121  49.4464827  53.0949306  14.3760943
  50.3970861  54.1918612  13.9470518   8.9926356  88.5374260  26.4190769
   9.0919042  87.9003811  25.7115793   8.0825526  88.8269711  26.3547158
  47.3576546  42.0896673   4.4040644  46.5644217  41.5804768   4.5705983
  47.4640656  42.6301622   5.1868629  20.4688978  54.7108364  73.1188345
  21.4248848  54.7433805  73.0832767  20.1841283  55.1644564  72.3255110
  28.6019278  17.5448143  78.7832308  29.2464280  16.8487048  78.6556292
  28.0961466  17.2659528  79.5465517  18.0041564  12.0842183  77.3491526
  17.2591293  12.3157430  76.7945719  18.7563169  12.4963605  76.9241524
  66.8064737 104.8388386  31.5479946  66.7991686 105.7506943  31.8390059
  65.8832598 104.5869827  31.5261579  67.2604036  64.7463322   8.9697570
  66.8042374  64.3109083   8.2496554  67.1525288  64.1545343   9.7143143
  23.8450456   4.7030282  94.2664146  23.0512500   4.3193519  93.8937092
  23.8725042   4.3717712  95.1640511  20.2647567  15.5769217  72.5192833
  19.4255197  15.8050680  72.9191113  20.9151578  15.7941198  73.1871414
  51.0202217  84.8826027  25.9739041  50.6563282  84.0125942  25.8098769
  51.9230509  84.8275471  25.6606936 107.1800804  70.8978224  63.4161425
 107.5802231  71.6931963  63.7675667 107.8951931  70.2621603  63.3882141
  31.3302445  75.3436184  13.0519521  32.0527887  74.8706150  13.4647822
  31.6148233  76.2575150  13.0456400  47.7623653  64.4584608  14.7337937
  47.7287340  65.2834320  15.2180660  48.1682062  63.8403177  15.3415942
  72.6561880  78.1555796  12.8523457  72.9426003  78.0719757  11.9428349
  72.5163698  79.0946579  12.9740691 107.1828365  23.7155628  85.4274559
 107.2703648  23.0425501  84.7524548 107.4691391  24.5225453  84.9996185
   3.1373495  26.2376809  85.6212521   3.1285068  26.4571619  84.6895981
   4.0547583  26.3264585  85.8795452  35.9600973  35.1092768  56.8467808
  36.0088444  34.6769857  55.9941483  35.4291081  35.8900046  56.6894770
 107.0442772  51.0506344  17.6205587 106.3115978  51.6491127  17.4747896
 107.7863789  51.6232872  17.8144217  10.9904766  99.5051575  13.6286581
  10.4869425  99.9759579  12.9645538  10.6783807  99.8591232  14.4614470
 101.4867401  66.5817881  21.1944056 100.7568932  66.7246723  20.5917978
 101.1050892  66.0876417  21.9199324  28.9787912 108.9674282  17.8228796
  28.5717320 108.7562847  16.9826698  29.3181038 109.8550987  17.7082801
  65.4245424  79.3874788  23.7014484  65.6093502  79.2964411  24.6362162
  65.5167961  80.3245258  23.5292125  61.7582369  90.5479050  31.5654778
  62.5918722  90.9642887  31.3465929  62.0034599  89.6954536  31.9252253
  54.0600824  79.1371727  13.3280516  54.0966988  78.9443064  12.3911977
  54.8288107  79.6839714  13.4902418  12.9544806  36.9950032  70.9504080
  12.8839827  36.9230366  69.9985218  12.7552545  37.9125309  71.1366415
  82.6204395  71.3005829  13.7342489  81.6997051  71.5439892  13.8303888
  82.7268314  70.5370378  14.3016183  79.5453072  96.6288853  25.9065747
  79.2089510  95.8015347  26.2509298  80.4969692  96.5419292  25.9614396
  40.5812216  89.2789078  44.4143963  41.4045525  89.7314739  44.2312479
  40.2966833  88.9455891  43.5634136  26.4544630  40.5544329  80.5370808
  26.0761046  41.2931776  80.0602818  26.1512661  40.6700230  81.4376068
  79.6948481 107.7799225  34.2787838  79.1941833 108.1608868  35.0001907
  79.0672684 107.2209263  33.8206363  17.9681790  55.6753111  23.7791991
  17.1965206  56.0359907  23.3425260  18.3313942  55.0534058  23.1486940
  77.1056080  63.1221581  29.6605778  76.2984228  62.6763725  29.9173927
  77.6250029  62.4456549  29.2260647  27.4562645  93.1455517   4.7783718
  26.5156436  93.2653427   4.9091864  27.8183556  94.0306950   4.8188582
 111.2850189  99.5972061  86.3115501 112.1305180  99.4068623  85.9051704
 110.8629990  98.7424278  86.3980389 105.6176186  94.9521542  15.1493990
 105.1922703  95.4895973  15.8175778 105.7114124  95.5357933  14.3965411
  60.9557962  46.3572598  94.1798401  61.1826468  45.4638815  94.4379902
  61.0247850  46.8650246  94.9883175  51.7190314 109.1316921   6.3855433
  52.4025393 108.5853882   6.7736250  51.7145968 109.9256217   6.9202280
  29.9067831  54.5849609  79.0207529  30.2989531  54.1140461  79.7560549
  29.4756269  53.9048052  78.5033274  82.2389221   8.4695709  29.4131494
  82.6693821   8.3683872  28.5642123  81.9797802   9.3905723  29.4420338
  94.2042446  86.2619305  21.2079358  94.8704243  86.8534470  21.5579915
  94.4187737  85.4090691  21.5858746  60.9022665  91.6770935  28.1626964
  60.4339981  91.7709637  28.9922452  61.0573530  92.5758553  27.8721738
  48.2293797  79.6864271  13.4590769  48.5286093  80.5695057  13.6755562
  47.3169231  79.6652794  13.7475359  30.7756710  35.8508611  90.8690739
  31.2732124  35.0587988  91.0723495  30.6959391  35.8454251  89.9152184
  68.5700035  82.8095436   4.1447902  69.2811966  83.0119896   4.7526184
  68.0350065  83.6031246   4.1292861  32.8913569  84.9341106  12.8695261
  33.7774944  84.6564102  12.6374161  32.4196076  84.9503517  12.0368063
 104.0219021  97.4091911  52.1478605 104.2027473  97.4238300  51.2080145
 103.8828659  96.4841080  52.3506355   9.9064964  35.7112741  92.1998596
  10.7792079  35.3247857  92.1275234   9.3110132  34.9619389  92.1886063
  66.4505005  76.5801096  14.4866943  66.5896559  76.6810560  13.5450590
  65.6695080  76.0310268  14.5558858  55.2977228  92.3200226  28.0896091
  55.2747679  91.5687180  28.6822701  55.3561735  91.9339848  27.2156596
  83.7155628   5.9737104  41.0396576  83.8929844   6.7166942  41.6164875
  83.4297085   5.2757901  41.6290855 105.5964088  35.3309202  94.1890717
 105.9964371  35.0812149  93.3560944 105.1892281  36.1794066  94.0143967
  53.4048557  84.6152496   1.1704554  54.0093279  84.0860271   0.6501020
  53.9456749  85.3244305   1.5180254   2.0990376   4.1318810   8.1059676
   2.4851644   4.2330459   7.2359657   2.8200138   4.3092394   8.7100941
 108.0288887   4.4185421  26.7921090 107.2551250   4.6537113  27.3041868
 107.9774666   3.4668136  26.7037845 100.2271175 107.1535873   4.6531406
  99.4772053 107.4391270   4.1312897 100.9869099 107.5215244   4.2019507
  17.7813828  40.2996349  89.4898701  17.8470743  39.8646069  90.3399658
  18.3884740  41.0371828  89.5507050  83.9163876   9.7549504  35.8492661
  84.0788746  10.6427145  36.1681747  84.0168667   9.2003846  36.6229534
  67.1753216  92.9712009  36.0456014  67.7453041  93.7316990  35.9316087
  66.5799856  93.0036926  35.2967691  55.0481176 102.0564270  23.4217811
  54.2261791 102.4486732  23.7163806  54.7971869 101.1933231  23.0926633
 105.5609989   6.0012382   0.1361131 105.0304508   6.1789995   0.9127416
 105.7168102   6.8631691  -0.2499304  26.5153360  34.3605900  67.5098515
  27.1621633  34.5767093  66.8381834  26.9275045  33.6670303  68.0249453
  85.5786514  10.3274345  93.2455921  86.4605045  10.1454830  92.9208469
  85.2332020  10.9869373  92.6439762  78.9730310  72.2530174  11.4867854
  79.1948605  72.2049284  12.4166822  78.2260036  72.8503323  11.4493382
   7.1335000  41.9526482  92.5165749   6.5512067  42.5568485  92.9771233
   6.6809827  41.7636967  91.6945267   4.3467164   7.6804852  86.2945938
   5.2555013   7.5491995  86.5649796   3.8506007   7.6784390  87.1131897
  72.1378136 103.8126850   8.1877792  72.1514845 102.8754616   7.9937273
  71.6738939 104.2038059   7.4474871  33.9243197  31.4022088  76.6312695
  34.1207933  31.2609553  77.5573778  33.1641936  30.8461833  76.4601707
  78.6452818  69.8790121  16.2842619  77.8623867  69.3992376  16.5546870
  78.8049650  70.4979134  16.9967914  12.0087051  82.9395580  82.0910263
  12.8094792  83.2670403  82.5006008  11.3290524  83.5534954  82.3692131
  42.0143557  84.4258118  12.1067441  41.5814924  83.5835743  12.2464037
  42.3642969  84.3707085  11.2175095  48.9742088  91.9389915  31.9758964
  48.6986732  92.0317268  32.8878784  49.6154881  92.6378632  31.8471932
  65.8122110  85.3484821   3.1399697  65.2463961  86.0066891   3.5435176
  66.4566278  85.1395321   3.8162076  83.9725208   6.1363715  35.5635691
  84.8448467   6.4058876  35.2760983  83.9292145   5.2032226  35.3547859
  45.3791666  78.9623642  21.1338854  46.1732054  79.3295908  21.5223145
  45.1678848  78.2100964  21.6867757  20.5895877  39.0875745  89.3613529
  19.7588742  39.3427992  89.7626114  20.6502819  39.6266794  88.5727406
 104.6853924  31.2688804  68.5074854 104.8599052  32.1363187  68.8726282
 103.9307213  31.3982177  67.9330492  55.7123280  93.7386227  35.9192562
  56.6245317  93.5492706  35.6995606  55.7645941  94.3301105  36.6700196
  82.0157719  88.5027981  13.7831688  82.8860378  88.8904285  13.6903596
  81.5709019  88.7135696  12.9622543  70.6664705  59.7245598  10.4370368
  70.5471706  58.8374805  10.7762873  70.0347567  59.7942305   9.7212762
  36.8429232  95.2273655  28.7460542  36.3895249  95.2326965  27.9030633
  36.3029146  95.7790756  29.3119454  39.5941663  21.8262172  89.2209625
  38.7302828  21.8665409  89.6312141  39.4124293  21.8066359  88.2813740
  40.6529188  71.5590286   4.1977397  39.8037791  71.2299442   4.4925147
  40.4411077  72.1702766   3.4922293  82.2332573  78.3943939  30.8424139
  82.0303249  78.8090038  30.0038767  83.1486511  78.1264544  30.7618070
  13.7572896  25.4306030  89.4565010  13.8600647  24.5411444  89.1180706
  13.0791271  25.3546000  90.1277351   3.1100342  29.4767380  87.8955555
   3.4759703  29.8068571  87.0749760   2.3061079  29.0269613  87.6354885
  59.9728537  21.9672108  90.4448700  59.5796442  21.3280797  91.0391140
  59.3110418  22.1025276  89.7666931  34.6906948  62.1817112  17.4187291
  35.3202224  62.2749662  18.1337345  34.1785693  62.9900074  17.4435687
 102.4917316  16.1130571  26.0645747 102.6681232  15.9564841  26.9922614
 101.9005966  15.4044676  25.8102441   6.3025987  11.0841048  53.5993719
   6.5260857  11.6027153  54.3722391   6.8461686  10.2995729  53.6719894
  26.7597485  29.0975189  88.4210777  27.2402334  29.9169350  88.3030796
  26.9962788  28.5692549  87.6586914  32.6045036 101.0240555  10.7232702
  32.2397017 101.9010353  10.6046879  33.3970237 101.1624336  11.2419200
  61.6066694  76.5336275   8.6420286  60.8080053  76.9184399   8.2810736
  62.3050117  76.8493128   8.0685401  72.2008753 108.1489658   4.6292692
  72.1945095 108.1303978   5.5862683  71.5004396 108.7585640   4.3968740
   4.2852369   5.6981480   2.4441193   4.3745345   5.9175241   1.5166864
   5.1804250   5.5280709   2.7372813 102.5382519  26.1830759  79.0366459
 102.3051453  26.6234207  79.8539495 101.7044640  25.8670068  78.6886168
  39.0393996  39.3963385  85.2467918  38.9943123  39.6887803  84.3364811
  38.3733463  39.9148345  85.6981945  28.9480233  54.2362070  91.3514137
  28.1250906  54.5639277  90.9886360  28.9959407  53.3276701  91.0539341
 109.6636486  76.2018871  46.9126558 109.4274616  77.0876455  47.1881247
 110.4603958  76.3165903  46.3947153  26.3117719  87.8667927  39.0472245
  25.5982924  88.4932137  39.1687822  25.9703827  87.2347260  38.4146261
 112.3179150  10.6780076  40.7896471 111.9338703  11.3225305  41.3840675
 112.7276802  11.2015617  40.1010132  23.3347726  27.5949287  87.0436001
  22.8657961  28.0240560  86.3279629  23.2180548  26.6591811  86.8793392
  84.4396305  55.1571465  43.6273003  85.1388454  54.6483040  44.0376806
  84.5611000  55.0172424  42.6882029  38.5273457  13.9527404  93.5209751
  38.4808326  13.0000019  93.4412289  38.1646538  14.1385853  94.3870831
  78.8254213 103.3292770   6.6925502  78.8741016 103.8052750   5.8635199
  78.8069820 104.0140152   7.3611534  80.1639366  86.8039608  10.5135667
  80.5703926  87.6147270  10.8196402  80.1748753  86.8760109   9.5591450
  10.8910346  24.0654302  83.0251789  10.8897662  23.8408566  83.9556599
  10.0580084  23.7277341  82.6961517  37.0472479  79.5373726  18.0300212
  36.6104889  79.8089886  18.8373005  37.5696039  80.2971840  17.7729964
  93.4224033  83.3246040  15.5146658  94.1151237  83.3374786  14.8542094
  93.2177544  82.3965645  15.6290615  18.2009697  55.5558681  75.0981283
  19.0176320  55.2298880  75.4763174  17.5449431  55.4052210  75.7786942
  25.2886391   0.9529594  68.9167261  25.9480619   0.4688385  68.4197140
  25.2454925   1.8077564  68.4881306  40.3276253  92.3947525  36.5703201
  39.9347281  93.0969238  37.0887995  40.0785446  91.5914249  37.0273328
  87.4247742  54.1122341   6.3544428  88.3774757  54.0782642   6.2681627
  87.2733784  54.6613932   7.1236843  33.9137125  39.1848564  85.3772640
  34.6826005  39.4998312  84.9020386  33.4717083  38.6030340  84.7589207
  55.0033808  39.8156309  26.1870503  55.8688641  40.0890636  26.4910316
  54.4520426  39.8534346  26.9686055  99.0712833  40.2266121  76.1324787
  99.7899342  40.8165932  76.3598490  98.3710957  40.8064032  75.8328009
  12.7080941   1.2592205  14.6399915  13.3683336   0.7477988  15.1077127
  12.2096336   1.6957623  15.3307891  81.8881321 104.3504333   8.4993124
  82.5901794 103.9867115   7.9598093  82.0958233 105.2824306   8.5661930
  90.0289059  15.3469539  27.2751808  90.2490807  15.8177209  28.0790043
  89.1716671  14.9593973  27.4517536  73.3348703  57.9705954  31.2271428
  73.4931707  57.2986555  31.8902230  72.3899508  57.9411697  31.0771608
  68.6369944  42.9480171   6.5275109  69.1640711  43.5018492   5.9515774
  69.0320444  43.0575848   7.3924750 114.0812874  26.0444736  91.8707848
 115.0352764  26.0623407  91.9470501 113.9181232  25.9103370  90.9371758
 105.9009552  18.8137960  74.7977304 106.7743492  18.6895084  75.1691628
 105.9644032  18.4568322  73.9118481  91.1510468 100.3530121  79.2534494
  90.4033661 100.7194614  78.7813139  91.9097996 100.8132553  78.8946867
  90.9703538  31.1192291  94.7160558  91.1350891  31.4214485  93.8228843
  91.5784439  31.6243331  95.2558048  80.0366020 104.5348549  91.6804886
  79.2030478 104.6507549  92.1365547  79.8068428 104.0696812  90.8760834
  35.6505394 104.7279453   9.6229488  36.0788035 103.8771152   9.5285970
  36.3600039 105.3294373   9.8490024  73.2394314   7.5483161   0.4552995
  72.6025438   7.6887596   1.1559309  72.9483080   6.7446184   0.0245461
  72.4800014  71.6216278  70.6026220  73.0799103  72.0676708  71.2004423
  72.0118332  72.3298597  70.1605177 103.3244324 103.0336952  59.0969849
 103.2294655 102.4990463  58.3087254 102.5234032 103.5566807  59.1296148
  52.5909519  99.8709106  90.0224781  52.0654345 100.5891800  89.6701336
  52.0899582  99.0825653  89.8132896  55.5942583  20.4580045   6.2025738
  55.3472519  19.5612419   6.4284956  54.7710657  20.9459615   6.2246698
  22.1777010   1.5422335  91.0034180  21.6827989   1.1526062  91.7241764
  23.0903411   1.3267960  91.1955261  81.0110092  71.0724640   9.7595114
  80.8598614  70.8444834   8.8422275  80.1444149  71.3016319  10.0952828
  98.9402771  24.8832917  65.8289576  98.0889893  25.1322842  66.1888742
  98.9359760  23.9262199  65.8438921  60.3943968  30.4139829  22.5849771
  60.9122849  29.9446201  21.9309711  61.0163498  30.6138515  23.2845902
 110.1710987   0.5794611  72.9536152 110.6130409   1.2832016  73.4286594
 110.8787632   0.0004574  72.6704121  39.2602563  54.5945024   7.6243550
  40.0423384  54.5300817   8.1724715  38.8401198  55.4087782   7.9012579
  53.8053513  74.6070814  12.8865063  53.4046030  75.4748058  12.8347075
  54.4200325  74.5829773  12.1531451  63.2330418  86.6008377  90.7126045
  63.5189247  87.0266914  91.5207863  62.9660225  85.7231808  90.9858513
  36.9520307  75.1341486   1.6104704  36.7484760  75.0679398   0.6775107
  36.0978508  75.1358318   2.0424515  51.6767406   2.0029198   2.6491082
  52.4856806   2.5132039   2.6873514  51.9151735   1.1486779   3.0091828
   3.9385158  73.3415794  93.8547421   4.4982058  72.5662374  93.8973999
   3.7624550  73.4588146  92.9212093  42.2434568 105.2815247  86.1480522
  42.8450060 104.6830273  85.7051468  42.5392723 106.1540508  85.8884144
  54.1062593  95.9451675  16.1744738  54.5498419  95.1844883  15.7991886
  53.1740952  95.7453918  16.0884762  23.9626503  91.6169548   7.1562457
  24.3034768  91.1671257   7.9293704  23.0400276  91.7734623   7.3574990
  20.9939265  44.3132353   1.6534111  21.1636877  44.4489861   2.5856048
  21.7472720  43.8105965   1.3434814  16.6892219   9.1231632   0.7649140
  16.2581646   9.6153629   0.0662296  16.6683292   8.2142025   0.4656040
  17.8234780   5.9991324  57.7678919  16.8923867   5.8863366  57.5766373
  17.9469788   5.5735832  58.6163521 101.7072773  67.5449038  74.0199852
 100.8055687  67.4111652  74.3120050 102.0263386  66.6654873  73.8173771
  34.7991872  76.7301607   5.0677937  34.4051695  77.3981476   5.6288457
  34.4604015  75.9018469   5.4074275 107.6533127  95.5978489  91.9445801
 107.8184891  95.0507832  91.1766815 107.8921604  95.0448513  92.6884842
  43.9222145  65.2413177  23.8576031  44.8313093  64.9649334  23.9733219
  43.8311005  66.0080099  24.4233847 110.8160210  80.9038925  87.1444225
 111.0682964  80.8534622  88.0663967 111.2021065  81.7232704  86.8349361
   7.2620064  21.4636207  76.8712473   6.6844237  20.8187222  77.2795820
   8.1453073  21.1653852  77.0881987  74.5992708  43.9137411  24.5743656
  75.5100346  43.7966728  24.8446083  74.3204880  44.7172165  25.0136161
  61.7065525  86.6579437  80.9301090  60.8857870  86.6550064  80.4375935
  61.6563797  85.8788013  81.4838600  82.7652264  56.7259741  11.0074782
  82.5809097  55.8459568  10.6790972  83.7080669  56.7273951  11.1726189
  85.2389240 108.4209919  61.2632704  84.5572281 107.8659439  60.8845282
  86.0580826 107.9755211  61.0470295   3.4464195  26.3815117  82.9057789
   2.8171775  26.9004154  82.4047565   3.9775437  25.9423542  82.2414970
  14.7546005   4.1890416  86.5663528  15.6392241   4.1179985  86.2077141
  14.7898698   3.7012991  87.3892117 100.4345322  25.0724435  78.0269146
 100.4254436  24.2460203  77.5440311  99.5347309  25.3937125  77.9687929
  72.1955872 107.5098324  61.2611008  73.0149603 107.6340485  60.7821178
  71.5510368 107.3044777  60.5838823  72.5456619  82.6731014  83.3999157
  72.9467344  82.9502296  84.2236710  71.6959095  82.3145103  83.6559772
  70.4304552  42.8889799  24.6120238  69.7715664  43.0123091  25.2953124
  70.9306097  42.1241522  24.8968410  24.9934936  88.8770771  21.4025617
  25.0695515  89.6848583  20.8946896  24.0695620  88.8353348  21.6492200
  42.0630789  52.9543591  17.6370454  41.3320684  52.7936363  17.0403659
  41.9622469  53.8696909  17.8982484  57.2177267  61.9071245  30.6962872
  57.8988171  62.4660921  30.3222561  57.3664236  61.0494184  30.2982068
 108.6764336   5.4443634  12.4255562 108.5009480   6.3823396  12.5006461
 107.9130077   5.0253141  12.8228104  55.6971693  59.3921423   0.8488343
  55.8600998  59.3649292  -0.0940045  55.6817484  58.4730721   1.1158566
  42.9972363  30.3968334  62.4735308  42.2988510  30.0560522  61.9146395
  42.5496149  30.9771657  63.0892229 108.9069462   7.0459789  77.7061272
 109.0672874   7.6753145  78.4092999 107.9601002   7.0761430  77.5690031
   5.0989246  11.4738297  91.6901493   4.2748740  11.5270770  92.1742249
   5.5659717  10.7413816  92.0921612  48.6471462  80.7147026   5.9553981
  49.4022369  81.0804749   5.4946578  48.2369995  80.1308632   5.3173232
  81.4551258  69.9698782  58.3135700  81.5738869  69.0270948  58.1983137
  80.9214783  70.0491714  59.1042376  98.0160904  84.4300079  85.0211239
  98.1692982  85.3153706  84.6911335  98.8913536  84.0530491  85.1108551
   6.8585736  46.4513206  78.7084150   7.3571151  45.7328749  78.3191538
   6.1474550  46.0201693  79.1823864  73.9258862  60.5478334  16.7058146
  73.5038853  61.2589741  17.1879196  74.8572445  60.7682657  16.7203593
 115.3754234  87.6216125  88.6244488 115.2331734  87.5329113  89.5668507
 115.3012276  88.5613823  88.4584236  35.5475736   4.0709347  60.5423355
  35.3729320   3.1475341  60.3604984  35.0669527   4.2510071  61.3503027
  74.3704748  22.4086404  91.0213757  74.8170662  22.5192475  90.1819992
  74.7209358  23.1079173  91.5731239  73.0796146  32.5175595  15.5087447
  73.1176567  31.6415691  15.1247871  72.1707869  32.7926993  15.3880847
 113.1835175  20.3539586  93.0627632 112.8575802  19.4815564  93.2839203
 112.7680779  20.5596733  92.2253132  33.2980585  34.4010258  76.7407990
  32.3462844  34.3540883  76.6504908  33.5903478  33.4921980  76.6712904
   9.9556392  83.6699581  40.0887394  10.5555463  83.1964874  39.5123959
   9.1614008  83.7833405  39.5666647   7.9729652  22.9596138  79.7302341
   8.2623041  22.4212432  78.9935684   7.1778303  23.3893490  79.4150829
  44.8889875  21.5078163  13.7821555  45.6311655  21.8845892  13.3094549
  45.2361345  20.7060337  14.1731358  69.1645670  18.1833482  60.0399828
  68.9188862  18.9368606  59.5032358  69.9419737  18.4727693  60.5175829
 103.4400654  91.0650444  50.2731371 104.1740417  90.5064869  50.0171757
 102.7693081  90.4541969  50.5783987  44.7848701  49.7864676   0.7663658
  44.1443157  50.3366661   1.2171474  44.4244719  49.6704769  -0.1127747
 103.8212204  31.0706425  64.4280338 103.2727909  31.5283704  65.0651693
 104.2586994  31.7699265  63.9423990  98.0350780  13.2830393  87.0313263
  98.8817787  13.5775506  86.6957855  97.3923206  13.6931086  86.4525890
  44.0935278  45.6438828   4.8166883  44.4758320  45.9619427   3.9988160
  44.8402977  45.5434275   5.4070044  32.2514486  39.4378161   4.2449442
  31.6371274  39.3021488   4.9663565  32.9413772  39.9865985   4.6178630
  59.9348402  72.1705580  17.4847448  60.3496838  71.3079548  17.4923611
  60.5256128  72.7249479  17.9945254  55.5282211  19.9020720  92.9080677
  55.0519896  20.5383468  92.3745918  56.4398813  20.1911283  92.8687382
  71.1462688  37.6028037  13.0945683  70.8609104  37.6260900  14.0079463
  70.7896709  38.4043622  12.7117205  78.3768606  15.9943640  15.4554284
  77.8095961  15.2702367  15.1906979  79.2025661  15.5753970  15.6981277
  57.8985977  35.9347177  25.2344584  56.9771338  35.6756210  25.2373171
  58.0238724  36.3832545  26.0707307  30.4156470  67.1958399  70.8067656
  30.1422024  67.8729725  70.1879358  29.9692822  66.4036703  70.5076790
  47.4602795  49.2521572   8.9590830  47.1108055  48.9524937   8.1198567
  46.7092085  49.2322111   9.5521492   1.8714726  79.7980547  93.2738400
   1.3262850  79.9279499  92.4978733   1.3804722  80.2120972  93.9835739
  73.5617828  84.7917461  24.6922398  73.4400320  85.4156590  25.4078746
  74.1911411  85.2160358  24.1090393  78.5943794  40.4615021  12.5287640
  79.1768694  40.1813173  13.2347655  77.9200268  40.9809399  12.9665542
  38.8039899  10.0976181  80.7814026  38.2074046  10.6067967  81.3300896
  38.6417198  10.4146492  79.8929262  75.5207872  77.0026302  73.0351591
  74.8408651  76.8003511  73.6778259  75.4073191  76.3430929  72.3507881
  57.5988722  25.3823304  15.2274930  58.5400915  25.4785180  15.0822902
  57.4199200  24.4616079  15.0364959  68.4608030  99.2540646  87.6750469
  68.5324287 100.1178265  87.2688198  69.3131733  98.8461590  87.5223827
  26.5402055  64.3982458  20.1650238  26.9106674  64.9505806  19.4766092
  25.8492923  63.9009953  19.7272861  52.6270533  54.8843622  18.5427809
  52.8385162  55.6005239  19.1416335  52.8141260  55.2366114  17.6726341
  82.6378727  46.5383768  23.0478787  82.9244232  46.4771557  23.9591289
  83.0905342  45.8201742  22.6057005  49.7731924  49.8518181  19.1835475
  49.1967726  49.8666763  18.4195125  49.7301245  50.7417440  19.5334148
  89.8250389  94.1653442  76.6363859  90.3440762  94.1686440  77.4406385
  88.9381790  93.9493084  76.9245577  84.1819954  83.2937431  73.2309771
  83.4981060  83.3699608  72.5656033  84.0953159  84.0895367  73.7557888
  53.6893892  12.0401120  82.1389771  54.4101095  11.6503179  81.6441441
  53.9439249  11.9351232  83.0557156  74.2201138 108.7099361  80.4908657
  74.2334652 109.1331005  79.6323824  73.3486891 108.9002705  80.8381748
  64.0300274  45.1237392   2.4424931  64.0590668  44.5356131   3.1971413
  64.1376019  44.5477057   1.6856286  70.2619362 106.2838840  76.6262150
  70.5626297 106.8315792  77.3513651  69.3826771 106.6074944  76.4302397
  53.4153080  52.1779346  25.0345945  53.7276459  52.1449518  25.9388018
  54.1089487  52.6340437  24.5580816  10.8615220  21.3974357  92.6400375
  11.0806775  21.8008494  93.4799576  11.6510534  20.9163880  92.3921204
  67.3937893  84.6525955  20.0979996  68.1514215  85.0412560  19.6607757
  67.6559401  84.5844841  21.0160780  61.5072823  61.6228104  21.2398434
  62.4010611  61.3315058  21.0594893  61.3244724  61.3021469  22.1230125
  80.1681519 108.5553646  47.8525209  80.4458618 109.4032574  47.5058270
  79.2556334 108.6887074  48.1089592  31.0778046  30.7803965  64.6581268
  30.9422541  31.7250633  64.5842171  31.9284630  30.6934237  65.0883007
 110.0548744 100.9280396  88.5809517 110.5641747 100.5219555  87.8795624
 110.6232262 101.6195107  88.9201832  60.9140539  13.4120488  93.4092426
  60.0222635  13.4106922  93.0614853  61.4338732  13.8476706  92.7337742
  87.3764229  86.8663692  15.0777042  87.6257038  87.1906281  14.2122841
  87.8968525  87.3885822  15.6881809 109.8128414  73.5388470  67.9376841
 109.9473953  74.3557262  67.4572325 110.5678940  73.4779882  68.5228491
  67.2205353  76.1046362  19.5330870  67.2113609  76.6405773  18.7400460
  66.9482231  76.7024183  20.2293158  51.3687849  63.1400299  37.3302746
  50.7854748  62.3833942  37.3892498  51.6933393  63.2623577  38.2224250
  94.7785378  72.0095253  22.5965095  95.6095982  71.9992065  23.0713463
  95.0274086  71.9233608  21.6762543  37.5758719  83.0012035  14.8669517
  36.6333389  82.9129696  15.0086474  37.6614094  83.7609291  14.2909944
 115.5831814  78.4702301  90.1179981 115.3435898  77.8816795  90.8338451
 116.0063648  77.9032803  89.4732475   7.7849108   1.2509806  62.9768276
   7.9176849   0.7772526  62.1557379   7.7790654   0.5690636  63.6485291
  18.8302171  15.8191025  43.6658478  19.4588006  16.4576876  44.0024853
  17.9866171  16.1062634  44.0152884  54.3696022  86.9817448  86.3928699
  54.3890381  86.8686295  87.3431587  55.1423550  86.5115356  86.0798454
  31.0431671  17.9529154  88.2998562  31.2779021  17.1680057  88.7948799
  31.8800282  18.3015537  87.9926968   3.3214244  17.8149724  82.4932957
   2.9645985  18.6602974  82.7659416   3.5881898  17.3929644  83.3099842
 107.3847580 100.6582451  89.3701172 107.2944927 100.0495148  88.6369514
 108.3065224 100.9158516  89.3554401  57.6057720  62.7059269  40.5950928
  56.9393539  62.2424507  40.0878382  57.2548294  63.5902596  40.7001114
  31.1447716  26.3413000  50.9912348  30.7448006  26.9343233  51.6273022
  31.0240054  26.7777586  50.1479340  34.1320658  36.9590402  75.6546593
  33.9759302  36.0610104  75.9468794  33.5633159  37.4935365  76.2087965
  60.0899410  89.2862034  21.0763526  60.4540443  89.9014950  21.7128086
  60.6828022  88.5351849  21.1030269  90.3199673  59.3918467   8.6170769
  89.5968628  59.7744179   9.1140544  90.5524826  58.6006832   9.1031104
  71.4596176  50.6435823   4.0836394  71.9735098  50.4513311   3.2993037
  71.0303354  51.4770126   3.8903919 108.0698681   0.1917635  76.9759178
 108.1170940   0.5069755  76.0733414 107.1399307   0.2390734  77.1977854
  68.1023502  92.6491070  13.7463844  68.0378294  92.9138279  12.8287828
  68.9189100  93.0436516  14.0526390   5.7149380  25.3666902  93.2139778
   6.3954407  25.1716995  93.8582802   5.9840405  26.1992836  92.8258991
  39.5391870  52.2613382  15.7766211  39.1636491  51.6288519  16.3891280
  39.7030282  51.7556477  14.9805903  23.0791879  16.3865364  82.1970367
  23.1214166  15.4781485  82.4958324  23.5514021  16.3869965  81.3644218
  93.1327248  93.9873409  60.6230783  92.8733826  94.5501900  61.3525820
  92.6689911  94.3466568  59.8667240 111.0475636   3.5714278  93.9296436
 110.5130863   3.0916116  93.2969093 111.9103527   3.6293983  93.5192108
 105.9924889  67.1971464   6.1963081 105.3642082  66.4816475   6.0985756
 106.0491467  67.3387432   7.1412808  56.7028666  64.4626951  10.4604638
  57.5345469  64.7167826  10.0604880  56.3949156  63.7295771   9.9276048
 107.7136612  51.4609909  90.6423473 107.6316833  52.3199034  90.2278709
 106.9382381  50.9802961  90.3527069   0.0945920  45.3150225   7.7960265
   0.5367931  45.8409786   7.1296453   0.3702997  45.7008219   8.6275178
  16.4392400  27.4320340  67.6532555  16.4290833  26.9258666  66.8409014
  17.1835244  27.0830226  68.1436300  28.1133437   0.7904439  64.8839712
  27.2140598   0.7860252  65.2118492  28.6374688   1.0911460  65.6263351
  23.3696985  26.2532973  91.6357803  22.5716686  25.7352757  91.5307617
  23.4035110  26.4541602  92.5710583  12.2465801  10.1375031  84.6862030
  11.6762578   9.9835807  85.4393768  12.1908343  11.0806096  84.5323372
   4.1411093  10.1418519  49.9687386   4.0394831  11.0935140  49.9843502
   3.5083097   9.8228157  50.6121731  19.0941679  11.4693177  72.6447439
  18.8955581  11.7632413  73.5337877  18.7414634  12.1574605  72.0805740
  78.8941145  69.5160007  23.9929008  79.1839886  70.0559855  23.2576299
  79.4883537  68.7656069  23.9878893  76.8131685  48.8596964   4.5640883
  77.3408651  48.2126331   4.0960371  76.7580986  48.5223579   5.4581809
  31.8486524   4.6085441  91.5588474  31.4862132   3.8750088  91.0620594
  32.4472022   4.2012677  92.1850204  83.5724545  87.4159241  31.4129949
  83.5780334  87.0508671  30.5281591  83.3568192  88.3402920  31.2893677
  29.2979884   5.9327418  93.5592937  28.6479306   6.0580391  92.8679466
  29.3085623   4.9874839  93.7096500  24.8106408  19.8537123  83.1754875
  25.4590201  19.1894960  83.4092617  25.2342987  20.3714752  82.4908924
  45.2863359  98.8175201   6.5784109  45.9874487  98.3014202   6.9762999
  44.7464800  99.0980625   7.3173833  74.0961313  45.4523516  13.1039834
  74.6338940  45.2377653  12.3417521  73.2663679  45.7541990  12.7343738
  55.7146215  76.8376589  11.3487351  55.1484728  77.5112486  10.9719300
  55.6757450  76.9925690  12.2925162  98.8242531  96.3451004  71.9452620
  99.3234158  97.1487331  71.7995071  99.3440914  95.8520508  72.5800085
  11.5511656   5.7179897  94.8269114  12.1027709   5.1626127  94.2759878
  10.6607915   5.4051368  94.6669478  24.0292645  10.3889406  80.2244854
  23.2583785   9.8770273  79.9797249  24.4447374  10.6097019  79.3908930
  58.7589979  65.9936142   6.5688205  58.4262180  66.7773056   6.1314207
  59.6497059  65.8920527   6.2333238 108.6728668  92.0061111  75.6129408
 107.9863071  92.6408482  75.8177900 109.4759464  92.4057579  75.9469891
  77.8976059 102.4717140  78.1721735  77.0656013 102.2132015  77.7757263
  78.3613634 102.9353333  77.4748850  41.7226696  12.0325100  71.5771294
  41.4618015  12.8053784  71.0762739  41.6613054  11.3101292  70.9521246
  95.8240128  15.4683208  72.2713900  96.4049625  14.7855592  72.6068974
  95.3724861  15.0575852  71.5340662  80.9040642  70.2965164  26.3426828
  80.2943325  69.5589972  26.3655424  80.3495979  71.0691452  26.4514852
  36.4643192  35.3677177  13.8739264  35.6279993  35.2661252  13.4195256
  36.9783783  35.9400749  13.3043790 102.2245884 106.7466736  56.7989683
 102.0695210 106.3468075  57.6547098 102.9575539 107.3450756  56.9434977
   5.6785613 103.2343960  85.7479858   5.2357334 102.3858833  85.7604790
   6.3021773 103.1684780  85.0248051 102.6190376  41.3822126  81.7714310
 102.6243973  41.5811014  82.7077293 101.7097855  41.1517096  81.5807343
  14.7143066  56.3314390  34.9476576  14.6135306  56.7227411  34.0799260
  14.9287152  55.4149294  34.7736597  33.1934810  13.4845233  71.0999012
  32.2720814  13.3754110  70.8646297  33.4340358  14.3369412  70.7369280
  16.7069006  30.8538270  69.8922539  16.7732716  31.6824317  70.3668499
  17.5986385  30.5059242  69.8918915 107.4511528  98.8881111  76.5463638
 107.0723534  99.7262001  76.2811422 106.8386936  98.2322884  76.2131596
  67.3120117   1.7297161  74.3451452  66.7650080   2.0801473  75.0481510
  67.7858257   2.4902785  74.0085840  77.5074959  48.7338829  12.2105908
  77.7202368  48.7198639  13.1437445  76.7464638  49.3109703  12.1470737
  22.3154044  21.1917305  52.0694065  21.4409518  20.8145499  51.9729710
  22.1679568  22.0288920  52.5094652  17.6787221  34.4569707  73.6961746
  17.1358120  35.0745606  74.1861391  17.7721357  33.7044477  74.2803097
  41.0738659  57.7906370   5.9982866  40.6880760  57.5636911   5.1521820
  40.4304743  58.3693647   6.4073777  94.7279930  11.7290080  89.7806549
  94.9152851  11.4267480  88.8919449  94.2621326  10.9991395  90.1886845
 112.3967934  40.0056839  88.1486797 111.5707207  40.4659367  88.2969761
 112.5906944  40.1538181  87.2231007  22.3414421  18.5394204  91.6041851
  21.9145036  19.3929482  91.6779709  23.2667971  18.7193263  91.7702770
  16.0514998  36.8065000  81.9213486  16.6937423  37.1489167  81.2996483
  16.3773775  37.0816159  82.7782917   5.5082637  99.9142075  71.7885780
   5.5062169 100.3704357  70.9470987   4.8722273 100.3915215  72.3213625
  26.2556839   2.6368254  86.1206150  26.5662932   1.7323074  86.0805988
  26.2496543   2.8469083  87.0544529  15.2126706   8.9785779  78.0888176
  14.4236660   9.4910389  78.2651377  15.9219086   9.4885194  78.4801912
  58.2588673  39.9738860  15.3997779  58.3940172  40.8029270  15.8587515
  58.4581757  39.3032169  16.0530090  67.1029425  91.7027187   4.6069708
  67.6862192  90.9725857   4.3998024  66.5242767  91.7699432   3.8474575
  40.2399302  45.5862284  12.4756134  39.4133520  45.3361511  12.8884888
  40.6525898  44.7545385  12.2427356 108.4665394  79.1428280  88.5378361
 109.2862701  78.6961746  88.3262253 108.4792328  79.2277336  89.4911766
  49.5150471  87.1892452  92.9730988  50.3423691  86.8224621  93.2849312
  49.7170305  88.1044388  92.7785015  90.1213932 103.4729195  57.5071001
  89.8944950 103.5877895  58.4298944  90.0713825 102.5277996  57.3640108
  65.4718876  58.2537460  18.7180483  65.1815557  57.4223900  18.3428299
  65.5831289  58.0696964  19.6507764  41.6299772  10.4871142  65.0174665
  40.9609079  10.6073320  64.3435764  42.3561668  10.0623441  64.5609045
  45.5626202  49.5944738  25.3077912  46.4726925  49.6293736  25.6023765
  45.3608799  48.6598253  25.2635050  19.9107373  35.2922916  93.6715508
  19.1366756  35.6270933  93.2188129  20.1376748  34.4919467  93.1980705
  70.5944443  98.4128857  72.1792650  70.1366186  98.9394569  72.8345108
  70.1255178  97.5784492  72.1723223  80.9846210  63.8086271   4.8552275
  81.3218403  63.7077141   5.7453609  81.7534637  64.0355396   4.3321338
  59.1068077  26.1051130  26.3837814  59.5169926  25.5512381  27.0480108
  59.7477722  26.1423254  25.6738424  72.9705143  71.2688446  30.5705404
  72.9895639  70.8217764  31.4167094  73.2683563  70.6090450  29.9442959
  39.1260958  27.4475098  74.5049810  38.4231782  27.4039531  75.1532412
  39.7770882  28.0299830  74.8963404  40.8497143   2.9286236  73.1321383
  39.9282241   2.9868239  73.3845234  41.1941719   3.8096634  73.2782507
   8.6138380  14.6830678  81.6851139   8.9541006  14.2347753  82.4593830
   8.8244539  15.6054235  81.8304920  61.7907381  70.2305937  17.0947981
  62.4325991  70.4312563  16.4136362  61.0842800  69.7793245  16.6327357
 103.5815525  20.7432556  69.2318583 102.8053474  20.8702850  68.6863327
 103.7921715  19.8144317  69.1361570  94.2062759  84.5492744   1.8493450
  94.5653534  83.7232971   1.5252359  94.5943260  85.2172947   1.2841845
  49.7491884  85.5276871  86.4468670  48.8617659  85.8614540  86.5784359
  50.2670813  85.9468651  87.1341133  53.5427046  80.2075768   4.1794452
  54.1550970  79.8513365   3.5357839  53.8931036  81.0730934   4.3899798
   0.2448019 103.5661697  89.0538979   0.8840812 104.2622471  89.2056656
  -0.4953644 104.0074444  88.6371613  70.1352739  44.2313957  11.4902675
  70.4335022  45.1398754  11.4459956  70.4495001  43.9172029  12.3380744
   9.4041800  48.1263733  92.5922298   8.9775056  48.6611080  93.2617474
   9.5117527  47.2686958  93.0033779  69.0093470  59.8605680   8.1332737
  68.3019686  59.2991543   7.8160030  68.8692379  60.6966591   7.6888001
  59.5850229  75.2428865  12.0244718  59.3369627  74.3430424  12.2365618
  60.4535103  75.1651764  11.6296005  37.8662539  49.6573782  94.7794628
  37.4096346  50.0777626  94.0507603  37.6133037  48.7360525  94.7210693
 110.8702087  97.7759933  49.8156929 110.0768757  98.2520580  50.0610924
 110.7629299  96.9113445  50.2120590 104.2045021 108.3327007  58.4155035
 104.9471378 108.7940025  58.0257416 104.4811249 108.1488800  59.3132305
 101.2883377  91.6585922  89.6082020 102.1067238  92.1491051  89.6848774
 101.4017582  90.9103584  90.1942921   2.6209080  53.7375116   5.8121002
   2.4995928  53.4795666   6.7258710   2.5367272  52.9210854   5.3195620
  51.9640064  37.9023457   4.4492334  52.0035028  36.9485807   4.5199618
  51.3070488  38.1633711   5.0946045  88.8059616  93.2714939  66.4834785
  89.2196751  93.9519691  67.0145416  88.6777973  93.6804676  65.6275892
  55.4764366  97.3536682  92.4202919  56.1083794  97.5754833  91.7364216
  55.1530695  96.4866447  92.1755028  20.8877683  66.6714144  29.9015236
  20.5046606  67.4754524  29.5508313  21.8003821  66.8987608  30.0795245
  14.4723880  48.8975859  34.7740436  13.9101076  48.1526995  34.9866748
  15.3626513  48.5521603  34.8399448 100.2760124 105.4187775  45.4353094
 100.3836346 104.8015976  46.1590099  99.7994232 106.1555576  45.8177328
  20.4526711  80.7521725  21.8542981  20.3659320  81.0723019  22.7521992
  19.9698234  79.9257135  21.8469834 107.0870686  95.7197666   8.7052828
 107.5804710  96.3148308   8.1407619 106.4922428  95.2632523   8.1102955
  82.5942707  94.1260052  14.6913648  83.0721092  94.9541759  14.6462619
  83.2756615  93.4544086  14.6614492  20.3136873  19.6846402  37.8079867
  19.3584216  19.7306693  37.8477597  20.5307007  18.8495469  38.2224226
  84.5880413  60.3139687  12.9460144  85.2454948  59.6299934  13.0731678
  83.9999199  59.9598312  12.2789848 112.1093750  60.3051615  32.7335119
 112.4687672  59.4307756  32.5834489 112.3883057  60.5296564  33.6212254
 101.3671589  74.9200583  12.4750626 100.4622269  74.6257544  12.5785947
 101.8881989  74.1197062  12.5397789  38.6374450  21.3666201  32.6996493
  39.0383959  22.2034979  32.4649000  39.3786383  20.7823515  32.8593183
  62.1976423   0.7572795   6.9866335  61.7189598   1.4315729   7.4687403
  63.0232286   0.6635707   7.4618763  79.0354776  48.5554552  87.7651501
  78.9922237  49.3267345  87.1999073  78.1719637  48.5106707  88.1757164
   5.1633495  89.3700695   0.8609033   6.0357380  89.3069267   0.4720818
   5.1188391  90.2618504   1.2058326  29.7762203   8.1610751  14.2485452
  29.3818665   7.4873471  14.8024464  30.5293345   7.7291405  13.8454521
 114.4119358  56.9592953  36.7005253 114.1888714  56.2986183  36.0447931
 113.6759663  57.5711012  36.6840959   2.7399930  77.3607635   9.1254526
   3.6210045  77.3079062   9.4959337   2.1669705  77.0453119   9.8242849
 111.0021114  71.6597605  39.6734762 111.2435532  71.1632204  38.8915658
 110.2414227  71.1974382  40.0253916  82.0504189  86.5531921   4.9412122
  82.0829010  85.6093597   4.7851348  81.1168861  86.7646599   4.9370354
 106.2650776 103.3103371  60.5419779 106.0946846 104.2203522  60.2989197
 105.4672241 103.0285263  60.9894657 108.1867504  99.7577286  29.2942286
 108.2002068  99.5804691  28.3536816 107.8952789  98.9357567  29.6887326
 108.4758949 100.1765156  26.2601566 108.1204224 100.8632374  25.6959891
 109.3559933 100.0178432  25.9188628  14.8603511  67.6846933  10.2171588
  15.5656993  67.0382452  10.1884496  15.0237155  68.2510853   9.4630075
  56.7471504   6.9222450  26.0400605  57.1664190   6.6078156  25.2390766
  56.2768316   6.1606038  26.3790822 107.0302105  84.1413879  51.8886471
 107.8348255  84.5887947  52.1506786 107.3248291  83.2928371  51.5579081
 102.4360371  20.3649020  63.0495930 101.8681908  20.4298878  63.8174200
 102.3113537  21.1944628  62.5885963  83.8266277  48.0287790  83.4883404
  84.7745609  47.9648495  83.3718395  83.7050629  48.7978840  84.0450573
   1.3941504 108.9517689  69.1463137   2.2046088 108.6864948  69.5810747
   1.6595326 109.1578579  68.2500267  10.9164679  82.6395226  28.6487961
  10.8084667  81.7078018  28.4578419  11.0417509  82.6767159  29.5970345
  87.3616791  47.6057291  85.7448673  87.2368050  46.7396164  85.3569317
  88.2013607  47.5453281  86.2003994  56.4132071  61.1933613   6.5149832
  56.3169146  60.7999897   5.6476766  55.7505655  61.8836689   6.5397978
 105.5025959   8.6636144  23.1208754 106.1075020   7.9530734  22.9076719
 106.0443783   9.3129534  23.5692811   5.1620346   2.3189695  16.1908424
   5.2734268   1.4243138  15.8692598   5.8385038   2.4186815  16.8606770
  78.7108278  14.7111297  93.7414360  78.6498833  15.4607928  94.3334866
  77.8544092  14.6719086  93.3157158  43.8451385   2.1517748  37.5125217
  43.6939669   1.2125526  37.6185465  42.9985094   2.5540379  37.7065134
  12.8143167  99.6992207  46.8724728  12.7171719  98.9484501  47.4582481
  13.7241244  99.6571159  46.5780067 108.2399654  65.6741047  20.2073956
 107.3642063  66.0558844  20.2666664 108.0857849  64.7334337  20.1202488
  65.2209902  35.4204655  91.6402340  64.7840071  35.5399823  92.4834442
  65.6706953  34.5793152  91.7206287  94.7692871  83.2430172  13.0461562
  94.9103069  84.1897774  13.0477893  95.6067085  82.8756523  13.3289993
 101.0950661  64.7498274  30.8914852 100.5274200  64.4699287  30.1733875
 100.5384445  65.3100014  31.4324141  14.5671058  73.2327604  48.8420534
  14.2793167  72.7640676  49.6254683  14.7825658  74.1115665  49.1543245
  26.1623025  65.2398062  29.9624681  25.4608178  65.6625462  30.4578876
  26.2702274  65.7876778  29.1850257  28.3407044 101.8826866  20.5289364
  29.0400171 102.1646118  21.1186075  28.3165383 102.5545502  19.8475790
 112.9940033  98.5638809  28.9956880 113.8962650  98.8701057  28.9040756
 112.4882984  99.1310787  28.4136367 107.1202660 105.0752640  80.7865524
 106.2774658 104.6265697  80.8543491 107.7682114 104.3990612  80.9844398
  99.1384315  62.7317524  80.7134438  98.8941383  63.0325603  79.8381901
 100.0647736  62.5027561  80.6381321   1.8916528 108.0124569  40.5630541
   1.2990916 107.3791027  40.1581335   1.5689728 108.8643074  40.2690220
  92.6630497  93.7930298  66.8141699  93.5586548  94.0494347  66.5942049
  92.1813869  93.8751984  65.9910774  30.6912708   0.7780457  60.1879311
  29.9131632   0.7796136  60.7454062  31.3333392   1.2978910  60.6714010
 100.2980042  86.8104172   0.7783073 100.1022911  85.8815193   0.9010687
  99.7318459  87.0809841   0.0554741  24.0408897  80.5827427  28.9705110
  23.3339095  81.1979389  28.7757158  24.0357804  80.5063248  29.9246430
  71.2596464   9.2984831  37.5438404  71.6085577   8.4734148  37.8811193
  70.8279562   9.0586060  36.7238808 100.1550293  60.5256748  89.8250866
 100.2191734  61.2749910  89.2329407 101.0076523  60.4893160  90.2586174
  13.8737977  85.7125664  31.6816974  13.0813527  86.2461758  31.7410731
  14.3605340  85.9169102  32.4801731   4.7157824  85.1668549  49.0922117
   5.1426810  84.5979595  49.7327948   3.9950928  84.6400642  48.7467670
 108.2275486  99.4859886  67.3764086 107.5138378  98.9847374  67.7708578
 108.9765835  98.8902760  67.3934793 103.9096451 108.8587952  49.6807957
 104.6403790 109.1900730  49.1587687 103.2609940 108.5794163  49.0347004
  90.0559521  20.4662991  88.0554390  90.1336002  21.1433911  88.7275600
  89.4138622  19.8505843  88.4087849   2.9142055  77.5552034  29.4184232
   3.2854655  76.9220734  28.8039780   2.8502595  77.0773125  30.2453232
  28.2087612  68.4723520  79.8840904  28.3048534  69.0037012  79.0937328
  29.0071106  67.9452896  79.9168873  12.7168596 103.2708931  34.4262290
  13.1082475 103.9507103  34.9747682  11.7741680 103.4233570  34.4919467
  92.8560543  80.6791782  37.1634102  92.0560741  80.7465458  36.6421413
  92.5481987  80.6164169  38.0675745  49.1713142  14.3069053  25.0824547
  48.4213924  14.8769581  24.9124789  49.9002552  14.9086607  25.2333450
   1.4717582  84.8721027  36.6426682   0.8740996  84.3537617  37.1815109
   2.1204570  84.2414761  36.3300586 113.5941887  85.3424454  16.7346334
 114.3353939  84.7405529  16.8022215 113.7258911  85.7917881  15.8997858
  95.2130032 102.9263020  21.6952658  95.9512043 103.4254265  22.0447946
  94.5743370 102.9123783  22.4081016 107.1494198  91.3967323  31.5572333
 106.6296291  91.9814014  32.1087861 107.0310211  91.7362118  30.6701231
 102.6197052  62.2191811  13.1812191 103.0552673  61.3884354  12.9905057
 102.6357937  62.6943111  12.3504210  20.4377365  48.4338570  46.7268991
  19.9811280  48.9817524  47.3652935  21.3028908  48.2897377  47.1102619
 111.9332695  74.2812395  31.5420246 112.5518036  73.6944008  31.9770694
 111.1812878  74.3175364  32.1331549  15.9743488  51.1685991  72.5171566
  16.5846479  51.3697910  73.2265854  15.5132568  51.9920158  72.3571348
 113.0596924  89.5626545  25.0092101 113.5515404  88.7456131  25.0913572
 112.3743057  89.4975281  25.6742263  48.2906485  91.4448643  24.0208960
  48.8416767  90.8602333  24.5412850  47.4607658  91.4783573  24.4967151
  25.1184440  93.2440376  53.5713387  25.4326105  93.9205647  54.1712189
  24.9144697  93.7158775  52.7638721  19.6972573  76.2345791  34.1990423
  19.9247694  77.1609163  34.2788601  19.6483004  75.9212923  35.1021957
   0.6225839  50.3914976  23.4365273   1.0068464  50.5535555  22.5749516
   0.2776144  49.5003414  23.3811402  13.0050170  67.2664833   2.7373379
  12.4737442  68.0594921   2.8088430  12.3753095  66.5490961   2.8084669
 100.6911564 102.8931713  22.0475340 100.4279232 103.2075024  22.9124832
 100.8699131 101.9615555  22.1754313  40.3625727  99.7206688  54.5961189
  41.0185337  99.4965172  55.2562046  39.7401023 100.2822399  55.0580740
  87.8527927  69.1462088  25.4056501  88.7848282  69.3039513  25.2551508
  87.5689220  69.8844481  25.9447718  84.4112015  74.3079996   9.9839848
  83.6155128  73.9284706  10.3569007  84.4694614  73.9284229   9.1071963
  24.3955517  76.6101074  34.8721290  24.8507500  76.5463877  35.7117510
  24.5226455  77.5187016  34.5991230  80.3040886  68.7081957  39.5008159
  80.2631187  69.6535254  39.3562460  80.5775738  68.3484840  38.6569881
 106.6762638  52.0059395   9.9376029 107.5889397  51.9398785  10.2184808
 106.3189411  51.1288023  10.0761271  23.7921548 106.3852596  14.2873883
  23.3958626 105.9551239  13.5296452  23.5857868 107.3127174  14.1714036
  50.9606028  29.9809647  91.4928532  50.7709551  30.7359552  90.9358501
  50.5364990  30.1855946  92.3262119   3.4586489  82.5551605  20.6078291
   2.9147783  83.3420849  20.6422257   3.9283916  82.6248074  19.7767305
  35.0372171  86.6514301  19.9144340  35.9250569  86.4230061  20.1897502
  35.0170612  87.6080608  19.9403954  18.5164738 104.0261364  52.9550838
  18.4189463 103.1474400  52.5881910  17.7343428 104.1492558  53.4929943
  96.6567612  72.2942257  32.3732996  96.0261440  73.0097294  32.2920394
  97.3456097  72.6450396  32.9377890  30.9554362  94.2325497  56.9409561
  30.4382372  95.0372410  56.9061232  30.3056049  93.5297585  56.9356680
  22.8202629  92.6641750   3.2344162  23.0309081  93.4076309   2.6694959
  22.5141788  91.9854355   2.6328692   4.5319688  64.5573854  21.8050551
   4.5833927  63.6764336  22.1758819   5.1146734  64.5321560  21.0460734
  44.3883276  12.5394630  81.8186474  44.2168522  11.9728267  82.5708103
  43.5646057  13.0061877  81.6776562 114.6904945  96.2170696  19.2202783
 115.1294231  95.4104614  19.4903839 114.3746090  96.0331726  18.3356178
  25.8090568  80.8433914  20.5333734  26.5759516  81.3936138  20.6926250
  25.0966692  81.2861633  20.9945560  53.1949425  29.3428493  74.8231649
  52.5898170  28.6537719  74.5488882  53.8049459  28.9039016  75.4159975
  32.5511050   9.8763406  31.5251350  32.3176289   9.0544128  31.9565940
  31.7156506  10.2362084  31.2272334   5.4498988  94.1511250  45.5065489
   6.1712605  93.5988903  45.8080626   5.3169614  94.7799206  46.2159014
  47.1084404   2.7185085  19.3755281  46.8413925   3.1307793  18.5539758
  46.8491602   1.8021604  19.2790258  90.5558681 105.3983402  51.4073801
  90.7109642 104.5152378  51.7424917  90.8449841 105.9765911  52.1132660
  12.7309215  81.2102795  39.4851875  12.9150784  80.3644753  39.8937583
  13.5474372  81.7018986  39.5737529  19.3660057  75.4485035  36.8487906
  19.7268260  74.6354246  37.2022629  19.6152544  76.1180305  37.4858475
  38.0402327  61.3694715  67.4711514  37.1180224  61.5414143  67.6613951
  38.1169653  61.4942741  66.5252304  29.5135188 108.5283756   7.1671379
  30.2013040 109.1559792   6.9451159  29.6077800 107.8304482   6.5188706
  38.3954024   0.9645239  40.6244755  38.5142851   1.5185294  41.3959551
  37.4530864   0.9852678  40.4576206  33.5590553  37.3789716  47.5585938
  33.1453419  37.1493006  48.3906555  34.4871020  37.4769974  47.7715588
  21.3325119  55.7053518  50.3848076  21.1079001  55.4308462  51.2738657
  20.6862235  56.3784313  50.1714802  17.3949885  12.0901155  30.6907392
  18.2835329  11.9150686  30.3807735  16.8280602  11.6960549  30.0277615
  10.6065345  87.1837807  38.3167815  11.1343598  87.9592419  38.5072732
  10.1315355  87.0117283  39.1298056  56.6802788   7.7194542  21.2670159
  57.5183868   8.0014449  20.9005642  56.2025309   7.3569012  20.5209970
   9.6795636  84.0922546  16.8008101   9.1872245  84.5882130  16.1467040
   9.9876851  84.7533703  17.4206638  96.4223099  33.9057970  84.9993324
  96.2902832  34.7769165  84.6252346  96.3482857  33.3109236  84.2530918
   7.5397003 100.1782227  13.0594611   6.9303441 100.2539635  13.7937510
   7.3241895  99.3378353  12.6550782  28.2182932  14.1380417  28.0105448
  28.9360642  13.5123086  27.9131055  28.3482528  14.5182157  28.8793421
  17.1003056  87.9209137  50.1190758  16.6760743  87.0841503  50.3090382
  16.5219474  88.5765839  50.5087328  35.4619646  70.8061218  11.7867243
  34.7120619  70.2204800  11.6823030  35.2668691  71.5492105  11.2157726
  15.3775036  83.2317924  68.7316036  15.6305122  84.0987778  68.4145021
  15.9629607  82.6288986  68.2733583  51.9170284  21.8941259  30.4241991
  52.8181076  21.8124747  30.1117468  51.3869143  21.4978218  29.7327137
  53.6106777   0.6997622  34.4173026  53.4335709  -0.0269250  35.0146222
  53.5133171   1.4835162  34.9581194  57.0484495  58.5100269  91.3218403
  57.7155542  58.2430124  90.6894588  56.4285278  59.0303135  90.8107281
  48.8154602  15.0877202   1.8479544  48.7165070  14.4595134   2.5633541
  47.9655075  15.5245888   1.7935495  69.4042253  14.3033433  72.0294046
  69.5217848  13.3719039  71.8427706  70.2556324  14.6956873  71.8360043
  90.6055069  71.3191652  41.7686892  89.9487782  70.8728218  41.2341642
  91.4196014  71.2279415  41.2735510  15.3141892 105.2880096   6.9762951
  15.5709660 105.0118923   7.8560996  15.8665621 104.7690773   6.3916379
  34.0747619 102.0795155   8.0320162  33.3420396 102.4865150   7.5697356
  33.6765218 101.3667965   8.5316902  11.5454495  85.1930046   6.2205142
  10.6699824  85.2522469   5.8380502  11.9240963  84.4048119   5.8311361
  12.7538872  62.9690933   5.1469761  12.6547539  62.1157932   4.7247440
  13.6651158  62.9871607   5.4394978 110.6884384  81.2975121  93.7293339
 110.6739807  81.4372349  92.7824974 109.8190212  81.5679264  94.0246487
 113.3116722  81.4796257  17.5168467 113.3226395  81.4087582  16.5623355
 113.6739445  82.3471546  17.6967919   7.6683474  82.5155830  25.3943586
   7.4647039  82.6448441  26.3206673   8.6030465  82.7099705  25.3252196
  41.0201263  11.2408698  52.6695156  41.9321918  10.9631670  52.7546597
  40.9795523  11.6713297  51.8155289 101.4365387 103.6821842  39.9186349
 100.9321022 104.4729900  39.7278237 100.7755280 103.0029011  40.0523472
  32.5362825 100.5950260  56.1333561  32.6868534 100.8899593  57.0314455
  31.9283056 101.2382030  55.7687855  77.5846291  20.0950813  23.2726216
  77.4953699  19.1632056  23.0729342  76.8507338  20.5087686  22.8182077
  52.0976686   8.8925612  23.3706307  51.5442276   8.3085907  23.8892007
  51.8888569   8.6760974  22.4619102  28.4518385  92.5484085  33.2301974
  27.5793195  92.4854469  32.8416371  28.6733270  91.6482544  33.4687209
 103.5292244  46.3251448  88.8047314 103.2892323  45.4415178  88.5257339
 102.7629089  46.8589735  88.5949230 102.2905254  91.2318039  11.8035245
 102.6617908  91.2919807  12.6837397 103.0405903  91.3420486  11.2191629
   1.1677165  93.4151649  23.6381960   0.5497714  92.9043674  23.1152701
   1.7958260  92.7705574  23.9640498   9.3098491  51.5339231  55.6566572
  10.2115119  51.8178606  55.5062628   8.8218164  51.8806839  54.9097872
  10.3331888  78.6255169  27.9505348  10.6331694  79.0319014  28.7636137
  10.8340764  79.0656519  27.2637844  11.4713502 102.4999523  29.2769504
  11.1770988 103.0451202  30.0066352  10.6637239 102.2209740  28.8455057
  15.7100236  92.8083134  25.1397491  15.8521557  93.7212276  24.8895144
  15.7900858  92.3201084  24.3203139 115.4042530  74.4974327  63.6585236
 115.0603867  75.2736092  63.2163334 115.8920383  74.8438358  64.4057178
   0.6347056  82.8209591  61.8754959   0.8895639  83.7058735  61.6143370
   0.1175192  82.9456711  62.6712322  65.9234762   7.4671710  46.3543606
  65.2044201   7.0635939  46.8404818  66.6235924   7.5651652  46.9997025
 106.4486885  96.4867496  52.8117514 106.7211723  96.0984135  51.9803762
 105.6634045  96.9894600  52.5953245  38.0687499  10.0087416  38.5101795
  38.5421753  10.7089770  38.9593697  38.2852101   9.2180258  39.0042901
  46.8454504  20.3312564  20.6424665  46.8736935  20.8032012  21.4747524
  46.0108376  19.8629475  20.6608796  58.1275845  12.6669514  78.1258011
  57.3626375  13.2019544  77.9139948  58.3773661  12.9445028  79.0071678
  42.7193785   3.4487751  18.0709124  41.9471979   3.5408255  18.6290336
  42.4139786   3.6932120  17.1972919  74.1980648  10.1777065  34.1152096
  74.1970825   9.3775153  34.6404958  75.1167965  10.4449034  34.0875125
  37.1414089 105.2742863  17.7619147  37.6694322 105.2073383  18.5574901
  36.2469459 105.4015255  18.0781102   6.3833666  94.6263123  40.6248283
   5.6153589  94.3121338  40.1476622   6.8499893  93.8300037  40.8785677
  59.6065998  49.2851400  90.1838303  59.9433279  50.1447439  89.9309921
  60.2332497  48.9636135  90.8320236 106.4310646  79.5678377  49.9065924
 105.5746269  79.2425680  49.6292019 106.9380188  78.7778807  50.0941753
  19.2902303  95.1222897   9.0633821  18.7875187  95.9307003   9.1633296
  19.3153298  94.7455597   9.9429691  34.8310065 100.6828117  29.5680022
  35.2697706 100.9341812  28.7552714  35.5147815 100.7361031  30.2357173
  46.7864990  33.2974410  56.3643980  47.6588058  33.2670927  56.7573309
  46.7484331  34.1502142  55.9313154   6.7547840  85.0620174  41.6477680
   5.8783734  84.6776199  41.6283035   6.9559628  85.1525879  42.5791931
  53.3308411  47.9874420  91.0396862  52.5732040  48.3616257  90.5900192
  53.1076717  48.0397129  91.9690418   5.5893934 106.7224216  28.0564833
   5.4739398 107.2575092  28.8417101   5.5772567 107.3508072  27.3345256
  10.2712405 108.9897251  36.8846941  10.8210433 108.9830017  36.1011744
  10.0651097 108.0680752  37.0405698  30.1291299  72.8052282   8.5708082
  29.5737886  72.7347565   9.3472487  30.7403874  72.0724869   8.6462259
   7.7723783 103.6422920  53.5854292   7.9507208 102.7053738  53.5041475
   8.2069278 104.0353680  52.8285360  46.5865183  96.7660618   2.1994323
  45.7237005  97.1505356   2.0446579  46.5152168  96.3569260   3.0618420
  82.3306465  11.5895915  21.3676214  83.1488037  11.4992094  21.8561578
  81.7578125  12.0885360  21.9499874  42.4442291  82.5251389  60.4055834
  42.5542736  81.7755795  60.9906340  42.6336718  83.2866383  60.9537172
  17.6576519  77.4056768  16.0126245  17.6118696  77.4347305  16.9682872
  18.5526156  77.6761293  15.8073783  55.8160019  20.8396840  52.7560282
  56.4833832  20.1535606  52.7640057  55.4370356  20.8154225  53.6346769
   9.5349377  65.8458567   1.2575120   9.6921962  65.4295492   0.4100516
  10.4057539  65.9392166   1.6437696 115.5903053 103.0631351  32.4372315
 114.6410656 103.0946350  32.5563383 115.7532024 102.2092628  32.0364738
  39.2751074  73.6740351   2.9209587  39.0229511  74.3736696   3.5235906
  39.3763089  74.1111326   2.0754196  64.2000961  20.1826787  37.8226948
  64.4754934  20.4850435  38.6881208  64.8213482  20.5887413  37.2182178
  42.6862764  93.7004089  20.9028053  41.8102932  93.3248425  20.9913039
  43.2371140  93.1593704  21.4685655  70.2238655   5.3687221  79.8752117
  70.6438541   5.4561526  80.7308960  70.9405899   5.1569343  79.2771435
  89.2971802  79.7563410  41.4499950  89.9531651  79.1551971  41.8028927
  88.4897995  79.5267439  41.9100475  34.2906523  10.3703904  13.3327222
  34.4629145  10.8084261  14.1661990  34.0592265  11.0794735  12.7328277
 113.3251381  58.2439947   3.5608765 112.7913284  57.6056099   3.0878651
 113.2893658  59.0333414   3.0206120  45.6052542  93.8953114  14.6031475
  44.6889448  93.6988068  14.7980642  46.0936165  93.5022449  15.3264964
  52.4206305  52.1136999   0.6849718  52.3873901  51.9013262   1.6177234
  52.6113176  53.0513668   0.6594676  43.0008888  78.6022949   6.4609033
  43.1020784  79.5248365   6.6952318  43.8948441  78.2606936   6.4413530
  79.8986292  61.1304712  10.9825444  79.5569944  62.0241117  11.0129094
  79.5624065  60.7183456  11.7783713  16.3081682  49.7098112  41.0962391
  16.9930136  50.1726866  41.5789032  15.7882392  49.2773819  41.7736673
  78.5443163  50.3622580  26.8238425  79.3402672  50.1143789  27.2942185
  78.8065052  51.1099720  26.2868047  24.3491602  70.1079130  21.1499333
  24.8261619  70.7293892  20.5999660  24.3502235  69.2933416  20.6472325
   1.5677184  22.4626899  85.3689289   1.3791150  23.3175516  85.7560635
   0.7114512  22.0428419  85.2866745  97.6471329  58.6998034  44.1248369
  97.3326778  59.5423937  43.7971354  96.8764591  58.1324291  44.1051054
  26.4421892  49.5924282   0.6397173  26.1698151  50.4599857   0.9386905
  25.8587170  49.3977261  -0.0936885  33.2317638  93.1275749  18.5576117
  33.9272928  93.4172916  19.1479790  33.5444975  92.2919750  18.2109046
 114.3128872  68.7106991  43.4890413 113.6443901  69.2503738  43.9110518
 113.8170815  68.0515289  43.0033493 110.3701496  75.7393074  11.9888020
 111.1349869  75.2252579  11.7299294 109.7201633  75.5604124  11.3092828
 106.9655514  84.1917992  19.5731926 106.5165615  84.2899895  20.4128385
 106.3411045  83.7209129  19.0213084  40.3307819  93.1807327  11.2613773
  41.2067938  93.1187057  11.6421604  40.4750967  93.5394096  10.3857315
  98.9354420  50.0244093  88.7929726  98.1438828  50.3242064  89.2399597
  99.5509434  50.7520437  88.8820171   2.1119814  57.3819971  56.1219597
   2.6106074  56.5652323  56.1443377   1.2256356  57.1149158  55.8784628
  21.9144249  41.8871403  19.6458089  21.7283964  42.1806145  20.5377173
  22.3963404  41.0678673  19.7588503 114.8363018  35.8521986  70.4937077
 113.9306927  35.9836841  70.2129793 115.1760674  36.7368364  70.6286669
  84.4673729  23.8109016  82.0360470  85.2339172  23.4329176  82.4670601
  83.8886356  23.0648041  81.8790913  48.8435793  20.9756660  59.7213840
  48.5944223  20.5439305  58.9042234  48.0295420  21.3594937  60.0473547
  16.3171780  82.2935581   5.6172240  16.3427031  81.7258549   4.8469698
  17.2229826  82.5802898   5.7335520   1.5653349  39.4483852  11.0794461
   2.1396117  38.7521863  10.7604730   1.5102196  40.0662327  10.3504324
   1.2161686  64.5029879   5.4401290   1.9658566  64.5964813   4.8523709
   1.3044725  63.6214876   5.8026063 101.6298485  62.4163866  28.6886239
 101.2753010  62.0304775  29.4896269 101.0772800  63.1809044  28.5261488
 111.7712784  73.1889296  23.6521459 111.1756706  72.4468708  23.5481095
 112.2527409  72.9985619  24.4572473   1.7895949  68.7803698   4.0528497
   2.3618303  69.3303442   3.5177737   1.9415596  67.8919268   3.7306532
  21.6768575  94.4538498  67.0126963  20.8643389  94.5175648  67.5146770
  21.9921350  95.3555870  66.9518614  26.2460923  23.2968259  42.0239544
  25.4028749  23.2434607  42.4738073  26.2223172  22.5842929  41.3852310
   1.8050872  73.4368753  80.6372166   1.0469553  74.0110302  80.7459259
   2.4099362  73.7052917  81.3288403  27.0418978 105.8141518  74.5828581
  27.9737115 105.6170940  74.6783972  26.9380474 106.0381222  73.6580420
  15.1478338  65.0972748  14.5845056  15.8322191  65.5543995  14.0957451
  14.5380259  64.7910213  13.9132583  88.2156467  22.8238964  80.0648403
  87.8012180  22.0126438  79.7709894  87.4971962  23.4541321  80.1183701
  29.2517757  63.2663822  37.3609376  29.7113514  62.4588346  37.5909209
  29.9005699  63.9574385  37.4941254  87.1267605  69.7895288   7.9499823
  87.7231693  69.0824366   8.1960613  86.3932896  69.3466043   7.5232965
   2.0926911  38.9431477  18.6017728   1.9473034  39.0682960  19.5395529
   3.0213881  39.1374922  18.4753454  76.9686270  25.8386874  88.5922241
  76.0517788  26.0345078  88.7853050  77.3346853  26.6725373  88.2973957
  16.0286784 103.7501240  18.7967074  15.9958851 104.5243359  18.2347929
  16.8843412 103.7995625  19.2228878  95.2623081   4.7864786  75.2377701
  96.0988998   5.2046788  75.0341845  95.3424835   4.5243493  76.1548805
  79.1818190  26.0253477  86.6639328  79.0558243  26.9674110  86.5504837
  78.7241745  25.6313419  85.9212685 113.0629635 106.7739296  14.9268329
 113.5420609 107.4087143  14.3941438 113.2225037 105.9329128  14.4984972
  10.7571185  43.3561563  16.4371502  10.0049567  43.8391924  16.7794347
  11.2463140  44.0032959  15.9290898  89.4616413  76.1545897  41.0411692
  89.1044140  75.9583235  40.1750898  88.7469578  75.9551096  41.6458702
   6.4081848  17.8248703  34.9014473   5.5917925  17.9853392  34.4281745
   7.0343614  17.5763798  34.2214561  27.2683239  51.6000986  40.1576853
  27.2640181  52.3736477  39.5939183  28.0202913  51.0893583  39.8578143
   5.6976235  77.2288418  41.9275904   5.7709265  77.6456308  42.7861643
   4.8774099  77.5657272  41.5670538  16.8814385  66.2026167   9.6566910
  17.2611356  65.4710960  10.1434553  17.5344932  66.8992662   9.7232354
 115.4964161  81.8311596  43.2199383 116.0755444  81.5421867  43.9251614
 115.3920555  82.7713966  43.3658218  15.4977310  67.5063038  37.0281672
  14.8556364  68.2118702  37.1064043  15.2150643  67.0092535  36.2605262
 112.9464436  86.4422512  19.3547726 113.0169582  86.2764359  18.4146857
 112.5375652  85.6518650  19.7073841  48.0164051  96.2017250  66.9090223
  47.6925468  95.6476021  67.6191616  47.6747799  95.7947731  66.1128378
  11.8262947  79.6361542  30.4337835  12.6803327  79.7248554  30.8568478
  11.2284529  80.1296616  30.9952712   1.6814288  68.8800812  29.4800973
   2.2331190  69.6003437  29.7852111   2.1797845  68.4825325  28.7660766
  89.6429825  50.5728149  40.1316261  89.2281723  51.2864351  40.6163073
  88.9755154  50.2872896  39.5077682 111.5964985  50.3415012  33.7944937
 112.3745823  50.8680820  33.6113763 110.8670330  50.8733130  33.4762383
 105.2715302  83.2796097  26.2474298 105.2388287  84.0943241  26.7488360
 104.3599892  82.9915810  26.1987519  33.7916207  99.6386719  23.4593272
  34.3806076 100.3678513  23.6532760  33.5259223  99.7805405  22.5507522
  13.1788528  51.6198349  22.8993368  13.7661493  52.1537733  22.3643398
  13.5086179  50.7268858  22.7986836  97.2355270  27.0377016  32.5355792
  96.6938591  27.8048420  32.7208495  96.6560745  26.2919927  32.6917386
  14.9090874  72.4885750  42.0253897  15.1469672  71.9043255  41.3054609
  14.3139338  73.1256342  41.6301918  72.1859789  61.0185671   8.4047830
  72.2844982  60.5048323   9.2064083  71.4266634  60.6347942   7.9661608
 107.4422550  38.9919686  75.0430822 107.8977776  38.8805246  75.8775282
 106.5155983  38.8911128  75.2607346   4.3388197  43.6830044  21.9987130
   3.6268926  44.2537165  22.2879863   3.9188278  43.0556297  21.4102912
   0.5422653  86.9668770  31.2219095   1.2530801  87.5151634  30.8897138
   0.2523785  86.4635754  30.4610658  17.6737463 101.5246391  83.7617016
  18.6043775 101.5335655  83.5379314  17.6364326 101.8900585  84.6456146
   7.2166777 100.7046032  17.3688364   7.7628642 101.3082504  17.8723466
   7.6881653  99.8721600  17.4000561  78.6418009  34.5344377  91.1448193
  79.1285372  34.5870495  91.9673443  78.8600445  33.6717606  90.7921219
  52.9464340 105.1713085  91.5175819  53.5875416 105.5334473  90.9059715
  53.1312275 105.6118870  92.3470116  22.1860385  50.2887201  23.2265472
  22.7672124  50.9150314  23.6580610  22.7664828  49.5867443  22.9323626
  12.2841489  61.0646582  18.2558858  12.2404265  61.9730854  17.9574239
  12.8298986  61.0967016  19.0416098 107.9868126  60.3389788  48.4871006
 108.0602551  61.2650299  48.7178898 108.8354015  59.9649954  48.7242937
 102.5475979  26.5911388  75.6451368 102.1818066  26.9965768  76.4312983
 102.1708870  25.7112789  75.6320000  24.9638343  50.4159117  40.0326395
  24.5824575  51.2806559  39.8809767  25.9086132  50.5566120  39.9707270
  23.7802505  41.0510159  37.1024728  24.1447163  41.4030123  36.2903810
  23.7131596  40.1090145  36.9463658  33.3979535  57.3368216  22.2755551
  33.2735610  56.7683792  23.0355740  32.6237845  57.1848488  21.7335248
  70.5143881  40.7648420  15.4746413  70.3735876  41.4075804  16.1698329
  69.8860025  40.0675869  15.6622374  36.9313407  84.8001575   2.7039969
  37.6226664  84.6881390   2.0514998  36.2705493  84.1494656   2.4669485
  90.5590248  67.5011969  63.3755636  90.3615284  67.9021454  62.5291204
  90.2567387  66.5971470  63.2887077  46.7926073  57.2421932  36.5881753
  46.4943743  56.8660831  37.4163246  47.3101711  58.0055428  36.8444085
  19.0278029  61.0815096  91.5552044  19.0201950  60.7729387  92.4612713
  18.2976115  60.6227160  91.1397934   4.0134034  91.8169308  14.2113733
   4.0070605  92.7127647  13.8742387   3.9648041  91.2665176  13.4297585
 114.7121239  76.0822725  40.8568048 114.9103260  75.9912109  39.9247885
 115.5550480  76.2857628  41.2621593 110.4275608  54.8005915  77.0352888
 109.8144817  54.8807621  76.3045740 109.9471283  55.1418686  77.7895689
  80.1857376  24.4914675  93.2219315  81.1239052  24.4628811  93.0341625
  79.7875214  24.7967410  92.4067879  92.3724270  70.1338863  13.6370051
  91.4312744  69.9760389  13.7114787  92.7265072  69.8768091  14.4883418
  47.4755430  87.4854565  11.8131530  48.0557203  87.0216465  11.2094092
  46.7439890  86.8839645  11.9519651   5.6074548  74.7511578   5.9513378
   5.3193271  74.5404339   6.8394876   6.5437222  74.5520782   5.9497088
  98.9128399  77.6153755  23.8149762  99.3111324  77.1830702  23.0595255
  99.0263081  76.9937801  24.5339847  10.6997919  64.2911386  15.6197131
   9.8914403  63.7957478  15.7515717  10.9073138  64.1687298  14.6933317
 107.0507240  47.8205681  50.6595469 107.0302773  48.7694359  50.7839155
 107.9597569  47.6287460  50.4291344  17.1925950  79.3484068  31.2833667
  16.3336015  79.7181273  31.4874935  17.5305772  79.9021530  30.5795455
   4.0084434  56.0251760  10.3236353   4.5455188  56.8028927  10.4750788
   4.4004387  55.6092024   9.5558226  94.5676708  38.6799598  26.7792058
  94.3545818  39.6037412  26.6470981  93.8862228  38.2063699  26.3021636
 109.7591972  78.0279779  29.8556638 109.7065544  78.4933186  29.0208459
 110.4629326  77.3912334  29.7309852  13.5655987  77.3097658  38.2794023
  13.8084054  76.4054441  38.4781003  12.9618526  77.2387218  37.5400257
  82.2933865   9.1242456  89.8354053  82.5177765   8.2186872  90.0495052
  81.3537121   9.1851968  90.0072384  31.9835711  26.8272471  39.3365574
  31.2989473  26.5049887  39.9227905  32.1276808  27.7327085  39.6115208
  40.1511955 101.5518856  28.8801479  40.8945513 101.0401058  29.1990995
  40.0461531 101.2792206  27.9686403  48.0246019   9.7904974  11.8888843
  48.8009834   9.4542587  12.3365557  47.5347137  10.2495587  12.5711608
  53.5643959 107.5514603  32.2624850  53.8326168 107.0670128  33.0432558
  52.8134632 107.0637131  31.9241953 102.6348400  71.8156719  45.1411438
 103.0952835  71.0142851  44.8921299 103.2127857  72.2359180  45.7780170
  10.2324724  49.9209833  22.8295994  10.2362180  48.9665890  22.7564502
  11.0916245  50.1367760  23.1922626  16.1510170 107.1381950  40.5292749
  15.6992877 106.4167309  40.0914860  17.0161295 106.7866707  40.7396078
   2.8469971 102.0195866  17.3096657   3.0035350 101.2749958  17.8904557
   3.1620091 102.7776718  17.8019083  10.3175855  94.3464661   9.9494964
  11.1546469  93.9899158  10.2468729  10.5496860  94.9357891   9.2318249
  63.4537363   9.8094052  58.1180954  64.3799067   9.9483979  57.9203129
  63.3619928   8.8585895  58.1794500  20.3252959  94.3017292  38.7840390
  20.5338621  93.3714867  38.8699794  21.0744929  94.7521782  39.1739488
   6.1282068  61.4629078  34.3763542   6.9973159  61.7908287  34.6073294
   6.2989056  60.6773806  33.8567042 106.2743473  64.2770433   6.9318575
 105.9731102  63.3733463   6.8379366 106.5731525  64.3368244   7.8392571
  16.1605978  84.7291088  40.4827785  15.2896380  84.5389175  40.8313274
  16.0659122  84.6317196  39.5352650   3.0749014  55.2849388  53.0694866
   3.1695673  54.3481684  52.8970575   3.6782828  55.4576206  53.7922192
 113.2320404  66.0083866  44.6885967 113.4539127  66.4399672  43.8635254
 114.0112209  65.4979849  44.9090195  15.9076715   0.7457254   8.2388937
  15.7710075  -0.1990187   8.3097005  15.0246131   1.1139524   8.2097691
  11.7345953  94.5877457  32.9969597  12.2306204  94.6822166  32.1837759
  10.8650553  94.9291134  32.7881432 114.8886585  74.0532017  48.1617308
 114.9391270  74.9266529  48.5500145 113.9679432  73.8058567  48.2473707
  11.4665055  52.4142122  25.0760794  10.7832885  52.6214695  24.4385147
  12.2048664  52.1131134  24.5465565  17.8103542  65.1706362   3.0902970
  17.6709509  64.2713976   2.7933764  16.9318652  65.5486774   3.1299505
  12.4794745 106.4110279  22.2733021  11.7668343 106.2668800  21.6507316
  12.2085905 107.1809769  22.7733469  80.4583740  20.0337386  85.1964283
  79.7022152  19.9412012  85.7759953  80.1927376  19.6007299  84.3851471
   7.4035096  58.6213732   7.5312877   6.4733458  58.4722233   7.7009398
   7.6262176  57.9907036   6.8465340  30.9183002  69.8697138   2.9830024
  30.7408309  69.1532516   2.3735638  31.7452025  69.6293545   3.4009629
   1.7931876  62.2924519  24.8207355   0.9465276  62.2257233  25.2622628
   1.6933224  63.0324316  24.2218256  39.0088463  75.3356075  14.8748565
  38.3259630  75.9734535  15.0823522  39.1291094  75.4128265  13.9283860
  43.2849312 101.0322857  14.8323011  43.7427378 100.3290081  15.2927840
  43.9322042 101.3767338  14.2169738  24.6607280 101.7308044   7.1763432
  24.9592137 102.2001553   6.3973409  23.7501049 101.5054989   6.9859779
  31.3644123  76.6918802   2.0767906  31.6686392  75.8362198   2.3793070
  31.8152905  76.8253565   1.2430497  10.5965483  77.0490170  31.2359452
  11.4892983  76.8883801  31.5415978  10.6245196  77.9324293  30.8684683
  61.7877769 107.4326992  10.2031124  62.2497606 108.2600880  10.3381574
  60.8789396 107.6887321  10.0459409 114.4038963  62.2032070   6.8663037
 114.3493080  62.2999907   7.8170323 115.1283741  61.5928936   6.7288888
 110.5773354  81.4936829  44.8772097 110.0948811  82.1322918  44.3521929
 110.6500340  81.8997288  45.7409668  74.9352503   1.6120301  84.8765373
  75.8224773   1.3279518  84.6566296  74.9880219   2.5675413  84.8976421
  58.9543438  65.1218081  32.1895528  58.6051607  65.5570936  31.4118481
  59.7828341  64.7405100  31.8989444 113.9409351  64.7095156  34.5216346
 113.9482021  65.2286434  35.3258014 114.1614819  65.3345680  33.8310528
 101.5863895  18.6995184   5.4642749 101.3556194  18.1541860   4.7122169
 102.5322533  18.8249755   5.3879124  14.8688090 104.2708015  29.4776416
  14.2748535 104.1066837  28.7451720  14.3711650 104.8373318  30.0672364
  12.7909672  67.8949404  34.0434885  12.8356612  67.2302151  34.7307825
  13.6666489  67.8990746  33.6569715  96.7318249  79.0198708  52.1488142
  96.1524200  79.6408701  52.5902700  96.9151878  79.4245052  51.3009453
  99.9021149  56.4946604  94.4183350  99.4917107  55.7586479  93.9643764
 100.4307556  56.9256115  93.7467384   0.5204822 104.3095684   5.0117874
  -0.0186963 104.9036694   4.4897118   0.4598694 103.4693146   4.5573390
  92.5097466  74.2013121  20.3841782  92.6362228  73.3213663  20.7390451
  93.1776810  74.2833424  19.7034740 103.3367348  43.1015635  91.6170597
 103.1884098  42.2350740  91.9957733 102.4605656  43.4234715  91.4050674
  41.4808750   1.3158655  45.7017517  41.4022779   0.9253980  44.8313570
  41.8538189   0.6203899  46.2434673  46.7254353  82.0933819  23.3350110
  46.9876289  82.1286392  22.4150944  47.0533657  81.2493515  23.6453462
  17.1204197  58.2223511  45.2254820  17.6942551  58.8716984  44.8189211
  16.2715387  58.3553362  44.8036432   7.8593045  79.7110748  17.7071095
   7.2994357  79.0503550  17.2994041   7.6218224  80.5289364  17.2701359
 106.5144444  81.3336182  28.1562543 106.0762787  81.9197845  27.5392866
 106.0678291  81.4853287  28.9891696 104.7403622  45.0951195  33.1431985
 105.1830387  45.1443624  32.2959423 105.4277706  44.8389196  33.7580609
   0.2504159  12.4969947  88.0628300   0.8293754  11.9298911  88.5721684
  -0.3736220  12.8391099  88.7029552  11.3290334  56.6048574   5.5753016
  11.0792303  57.3052025   6.1780858  10.5165362  56.3762808   5.1238251
 107.6198578 102.5428200  51.4483166 106.7699337 102.1535873  51.6541147
 108.2436752 101.8241692  51.5513897  81.7385197  39.6886897  84.7432995
  82.3421478  39.7205806  85.4854965  80.8741856  39.5867610  85.1417446
  24.9294496  51.9534636  14.9411404  25.5872631  52.5160599  15.3497982
  24.0936446  52.2842312  15.2701581   2.2317459  82.7181149  41.4308453
   1.5027891  83.0838966  41.9319010   2.6661661  82.1217632  42.0406580
  11.6683865  89.7723961  43.9943027  12.2748840  89.5315933  43.2940149
  11.0553956  89.0388489  44.0430403  82.9507256  47.6625109  92.4821186
  82.8523731  48.3111572  91.7851067  82.5266552  48.0612755  93.2419777
  83.4884071   8.5626656  94.0431023  83.6728191   7.6621944  94.3102646
  84.3515682   8.9555907  93.9135075  34.3604779  67.0561266  19.3713450
  34.6467113  67.2345257  20.2671552  34.4540501  67.8942776  18.9186025
  24.0566754  71.7839241  14.5523465  24.6568155  71.1906672  14.1005611
  24.1015720  72.5978661  14.0506291  10.5393767  69.0523005  26.2351370
  10.1665711  69.6894073  26.8445134   9.8319322  68.4263039  26.0805964
  26.4414907  27.7846432   0.5712657  25.8564186  27.5590849   1.2944844
  26.3816905  28.7375379   0.5030778 111.1730385  84.4784641  34.0551591
 110.9296608  83.9620113  33.2868695 111.9898987  84.9100304  33.8046956
  37.9269958  71.4007092  19.5454764  37.4550104  72.1507597  19.1836989
  37.4243641  71.1530828  20.3215408  21.4864683  72.7205276  33.8162255
  21.8521118  73.0067110  34.6532655  21.4097619  73.5237265  33.3012271
  15.7786524  74.7105455   8.1074852  16.7025769  74.7782612   7.8666335
  15.3217578  74.5953512   7.2742933  44.7866869  11.9843900  11.7971301
  43.9961290  12.1340728  12.3156309  44.4689131  11.5930319  10.9834397
  30.1732111  80.5159950  25.4845929  29.5890403  81.0714436  26.0007858
  29.8012471  80.5315685  24.6027589   4.0950346  77.7146101  11.9771373
   4.6139380  77.3144007  12.6748502   3.2990909  77.1844721  11.9364202
 112.8292656  89.8526955   0.9892470 113.3895397  89.7685432   0.2177229
 112.7192402  88.9555645   1.3043460  43.9615488 106.9322300  84.5800972
  44.1747808 106.7523670  83.6644459  43.6153936 107.8246307  84.5745754
  22.3577905  68.5203362  18.4779119  21.8903089  68.0069780  19.1368198
  21.6710687  69.0065289  18.0215538  12.6323867  91.2833500  40.2299929
  12.8453231  92.0532036  40.7574606  12.8747356  91.5300560  39.3374467
  13.6472356  71.3442898  51.2838888  13.8981712  70.6610823  51.9055700
  13.2783985  72.0398140  51.8283463 115.7047176  73.1076336  35.4114127
 115.5908775  73.6611462  36.1840034 115.3500462  72.2574615  35.6715059
  28.1544137  84.3991566  35.3033447  28.0303860  84.1765881  36.2260103
  28.3814502  85.3290176  35.3096938  31.6750240 106.0911465  14.8495173
  30.9276867 106.4377022  14.3620598  31.8855476 106.7761517  15.4840839
  23.4611201  94.9064445   6.3354796  23.9661527  94.2370319   5.8738929
  23.9835548  95.1077175   7.1118706   3.0281708  68.9911795  52.5935364
   2.1995512  69.4117212  52.8232479   2.8335151  68.4976816  51.7967939
   3.5637280  71.8511677   6.3843256   4.4236064  71.5039158   6.1471438
   3.6678484  72.1528196   7.2867656  33.5139370  41.2699652  36.2289238
  33.4562659  40.9406185  35.3320217  33.9192557  40.5557728  36.7207336
  26.4127231  49.2530966  30.6673479  26.2133718  48.4064579  30.2677321
  25.9452939  49.8893881  30.1261663  33.7731433  70.3473330  20.2114034
  32.9713511  69.8279572  20.1513505  34.2179394  70.1985741  19.3769836
 115.7965851  84.2280006   0.6425755 116.2376308  83.6221790   1.2381341
 115.2447796  83.6679649   0.0965860   3.6322471  83.2506847  35.9223080
   3.8013127  82.3492527  35.6483340   4.5019042  83.6269188  36.0578799
  47.6066971 109.0030003  32.3113060  48.3191729 108.9200974  32.9451346
  47.9036188 108.5037041  31.5505314  17.7905881  50.8425093  26.8141341
  18.4289646  50.8820295  26.1019921  16.9414651  50.9204388  26.3792205
  11.7176235  63.0618048   8.9224607  11.8689799  63.4652853   9.7771704
  11.7055106  63.7968159   8.3094007  25.2004242  53.7797689  49.2050695
  25.2462935  53.8212919  50.1602650  25.7456207  54.5079708  48.9072180
 104.7704697  46.9551992  56.4510345 104.7511101  47.8946829  56.2687588
 104.5779037  46.5437365  55.6085110  96.0471439  70.9287739  59.6410275
  96.5563202  70.9071636  58.8307714  95.1832962  70.6018162  59.3898439
  95.0437450  44.0755415  91.2487221  95.7077122  43.6360645  90.7174683
  94.2154217  43.6887407  90.9650040  22.3563623  89.2730522  22.0816755
  21.4599609  89.0246105  21.8559027  22.3030972  90.2080250  22.2797561
  20.5264831  96.6239166  19.3169653  19.9355221  95.9115601  19.0729380
  20.0875258  97.0596504  20.0475001  27.8404379 101.7001152  12.2996998
  27.8277254 100.7507229  12.4210286  27.9374027 102.0533085  13.1840527
  31.7532945  78.0942774  13.2739127  32.6406550  78.2147789  13.6120009
  31.2509799  78.8128281  13.6580944 115.9112930  80.3991699  18.7814724
 115.6901360  79.7026777  19.3997157 115.0671768  80.7763290  18.5335886
  37.5809145  15.4491758  32.7043009  36.8258142  15.7843161  33.1877661
  37.2049880  14.8547733  32.0549965  97.8418255  23.9230895  86.3825703
  98.4485817  23.9989924  87.1189880  98.3020592  24.3324208  85.6498623
  63.8013744   0.6463463  18.7180936  63.3055258   0.3934775  17.9393625
  64.3445063   1.3794512  18.4286129 110.3895092  82.9301739   2.5038791
 111.0935879  82.3579788   2.8089821 110.8184338  83.7693501   2.3364207
   4.2178932  76.2843943  27.1660900   4.7119761  77.0518351  26.8777418
   3.9745241  75.8376884  26.3552547  84.7189808  41.2154436  94.2031479
  85.4205990  40.7577610  93.7400150  85.1523495  41.6205597  94.9543476
  22.3161840  80.0709248  35.7742190  23.2109833  79.8682117  36.0471177
  22.3504543  80.9883118  35.5031919  43.9774418   3.4186551  14.6233785
  44.1098690   3.7987810  13.7549329  43.5203648   2.5942916  14.4568372
  86.0889244  64.9125814   5.7275730  85.9437370  64.3710327   4.9517661
  86.2611294  65.7876682   5.3800070 107.5972176  65.5925369  12.3039973
 107.4845695  64.8751402  12.9276037 106.8183136  65.5520582  11.7490983
  20.4876685  65.8305740   3.5363674  20.1995039  65.6503916   4.4312015
  19.6765614  65.8988523   3.0327088  84.9133873  25.5788517  77.8271198
  85.3498840  25.1626396  78.5703993  85.6289196  25.8956051  77.2758389
 100.2175522  42.9183626  21.0782528  99.8869705  42.5068569  21.8767595
 100.2563763  43.8514709  21.2880850  20.7784271  52.0371485  28.9386272
  20.5171728  51.4555502  29.6525717  20.1040030  52.7162409  28.9239264
  72.2062254  12.6515400  82.3066425  72.3592806  13.5376060  82.6348114
  72.7773952  12.5772941  81.5421200  15.8570659  72.4293756  10.8318281
  15.5123627  72.9273558  10.0905967  16.3708484  73.0654287  11.3295174
  19.2301357  70.1124287  16.5702951  18.5255885  69.9011755  15.9577441
  18.8023305  70.1431656  17.4260223  81.5617085   3.3273739  93.7919140
  81.5996552   4.0803030  94.3817329  81.9829750   2.6196119  94.2796040
   0.7452875  78.2715178   7.0126516   1.3685609  77.9383469   7.6582217
   1.2348764  78.2818937   6.1901993  23.1811142 105.6211185  11.6632962
  23.5829973 104.8081875  11.3569093  23.6869931 106.3135242  11.2379813
  36.3489246  91.3288403  18.1065273  35.4311514  91.1723518  17.8841960
  36.5127659  90.7620811  18.8602960  46.6504431   6.6328418  14.9379385
  45.7084751   6.6280329  14.7679186  46.7589235   7.2421861  15.6681192
 106.1949444 107.3993874  25.0323558 106.0129261 108.1915283  24.5267844
 105.7925797 106.6940594  24.5255542  61.7049170   2.2875367   9.5483422
  60.8515501   2.1544902   9.1356802  61.7590666   3.2330802   9.6870768
  52.9973602 100.6770802  54.8781872  52.4133253 101.2325096  54.3618202
  52.8954315  99.8042870  54.4986296  81.1643696  24.1408467  13.5674250
  81.8747044  24.1973305  12.9283118  81.5232277  24.5395017  14.3602228
  10.1189387  66.6048527  13.6104167   9.5172745  66.4839220  14.3449962
  10.9289479  66.1794329  13.8917279  12.4886632   2.8524226  36.5875220
  12.8527105   2.5518817  37.4202156  13.1881857   3.3746397  36.1948538
  14.6105349  75.5805922  49.9325562  14.3248677  76.1520433  49.2197657
  14.0871298  75.8563566  50.6850433  46.1353111  97.1964455  31.5673470
  45.2853632  97.3947716  31.9603944  46.6109419  96.7243290  32.2508073
  29.1174245  96.1736488  48.8858938  28.3753681  95.9767437  49.4575691
  29.0969324  95.4852295  48.2211494  30.0577021  22.4037051  87.6626301
  29.7060919  22.7950835  86.8629932  29.7146320  21.5100956  87.6628208
  17.0799732  77.6671410  10.4979634  17.3056686  77.9558277   9.6136844
  17.0274377  76.7136240  10.4325235  36.0243917   4.2660311  31.3198280
  36.4742684   4.2615047  32.1647096  36.7245293   4.1640770  30.6751251
  46.4609528  27.6274395  22.6403999  46.2924099  27.1920133  21.8047976
  45.8098269  28.3278751  22.6811051  13.0986536  80.7622814  50.6120205
  13.3614957  80.1218128  51.2730360  12.6448417  80.2462769  49.9456692
 114.5143986 104.3110752  14.2255306 114.9325371 104.3837357  13.3675611
 115.2418232 104.2016602  14.8379946  42.4737024 102.4165630  33.1716967
  42.9562426 101.6672516  33.5208583  41.5725374 102.2780037  33.4631419
  19.7697508  76.5801859  13.4049356  19.8993838  75.7999659  13.9440858
  19.8817086  77.3119497  14.0117466  84.3569946  93.6725616  31.6400099
  83.6056423  93.5480499  31.0601926  84.3259716  92.9244137  32.2362804
  83.9842415  40.7667828  86.9365406  84.7557068  41.0939264  87.3992062
  83.3460808  41.4771223  87.0028400  50.5126858  11.9146788  53.3572245
  50.4425097  11.1760116  53.9619398  50.0764227  11.6139078  52.5600767
 112.2279930 105.8602333  43.3232784 112.4946594 105.0576973  42.8748894
 112.8475285 105.9469891  44.0477610 110.1160908  87.3491287  38.2723880
 110.4779911  87.0087624  37.4542141 110.4295635  86.7428303  38.9434814
  79.5225906   4.4123822  42.7710533  80.0086689   4.8895282  42.0985222
  80.0502491   4.5113456  43.5635281  19.5015109  52.7154493  42.8458023
  18.7546384  52.4298477  43.3719635  19.1461456  53.3974028  42.2758102
  32.0810199  56.6024303  32.7079701  33.0379105  56.6193914  32.7253127
  31.8186069  57.0945072  33.4859371   9.8111576   8.9839482  10.9926486
   9.7817332   9.5164597  10.1977909  10.7153964   8.6735016  11.0396218
   6.5585250  47.5338173  39.4105363   7.2397053  47.2288418  40.0098801
   7.0160568  47.6805162  38.5826612  99.7655392   4.1976306  60.7772207
 100.2947426   4.1904336  59.9796438  98.9316845   3.8076055  60.5149174
  19.3336308   2.9321495  15.8412623  19.2326689   2.5230515  14.9817991
  20.1990843   2.6523814  16.1395133  13.6951637  94.0379810  31.0243607
  14.5518577  93.9056873  30.6183982  13.1598938  94.4270420  30.3327322
 109.6697426  84.0117168  39.5653844 110.4753876  84.4792366  39.7858262
 109.9596119  83.1273079  39.3417120   8.0616933  93.7279320   7.0389926
   8.8064522  93.1303883   7.1061540   8.3972245  94.4739246   6.5418577
 104.6018219  28.5608315  87.1974182 104.7690105  28.1302857  86.3590240
 103.9908218  29.2668152  86.9864750  20.2203202  57.4548912  23.7821889
  20.6915140  56.6624403  23.5248446  19.4047904  57.1342134  24.1673040
 112.5556469  40.1112318  85.1661682 111.9460011  39.4841313  84.7771740
 113.0995369  40.4021168  84.4341850  44.3783331 105.4462051  22.9429102
  44.0169001 104.7336006  22.4158525  44.8124075 105.0068760  23.6742115
 103.1714344  12.2073245  83.1224728 103.4996510  11.5323162  83.7164974
 103.1221581  11.7734158  82.2706985 102.5836945  71.2836313  86.2772846
 103.3438396  70.8170223  85.9298801 102.7085114  72.1893406  85.9938431
  60.6312704 108.4241009  33.4255099  59.9992371 108.3560944  32.7098727
  60.0943327 108.4517956  34.2174459  23.6352658   1.7517537  81.6957474
  22.7085257   1.9846639  81.6397476  23.6439967   0.7950509  81.6661644
  96.5658188  12.3469818  26.5009022  96.3214874  12.9024184  25.7606149
  97.3504162  11.8852556  26.2052035 104.0614414  78.5550451  10.2087963
 103.9880657  77.8295994  10.8289421 104.9491024  78.8899088  10.3358674
  27.4568653  75.8860159   4.2641011  27.8041148  75.7775784   3.3787245
  26.8843007  75.1295328   4.3911317  31.3823485  84.5224667  25.1865721
  31.2653136  85.4714203  25.2316356  31.4202976  84.2421246  26.1010122
  56.1588907 101.6400242  15.7739079  55.5986118 101.2239361  16.4290333
  56.4040089 100.9288883  15.1819313  38.7440372  99.1858864  24.5577669
  37.8652811  98.9170265  24.8255920  38.6698508  99.3434715  23.6165452
  29.5607638  98.6630535  21.3497639  30.3330278  99.0044785  20.8989120
  29.2571449  97.9449844  20.7944059  23.6541438  46.3681936  66.9529772
  24.6088767  46.3116932  66.9919825  23.3654761  46.1617804  67.8419638
   0.5362094  75.4813099  17.3650229  -0.3668954  75.7772636  17.2508168
   0.4564876  74.6275806  17.7904916  43.0659103   2.2360854  24.5096517
  43.2326889   1.4616290  23.9724064  43.9323044   2.5098255  24.8107433
   7.1712005 106.2111855  39.3017340   7.6204759 106.7481327  39.9544740
   7.4780858 105.3206158  39.4718671   8.4530115  70.4675627  35.0013781
   8.9646149  71.2762833  34.9797368   9.0774179  69.7826672  34.7620773
  13.8340783  91.9418430   2.5996265  13.5093486  91.1271286   2.9830539
  14.3609405  91.6611099   1.8514034  20.7131958  79.9019766  37.9525876
  21.1285186  79.6614313  37.1244121  20.3375530  80.7671928  37.7897263
 111.2926388  76.9752026  75.8812761 110.9745407  77.8753757  75.9500694
 112.2288513  77.0649624  75.7032824  24.7536635  55.1174212  19.4866586
  25.2005911  55.0117779  20.3264976  24.9863935  54.3322706  18.9910650
  55.6549263  18.9725900   1.2085228  55.8558321  19.5884907   1.9131750
  56.3785172  19.0721297   0.5898628  26.9797945  95.1559639  23.6459017
  27.8235841  95.5463028  23.4181166  26.4091945  95.3716087  22.9082417
 106.6733551  87.8727150  21.1978340 107.0269012  88.1891918  20.3665185
 106.6459274  86.9209671  21.0996294   2.7367651 103.4776306  24.7811651
   1.9212195 103.9348698  24.9862337   2.7154723 102.6927185  25.3286052
  37.6822639  91.2885189  43.8014030  38.6017466  91.4923954  43.6304569
  37.4233317  90.7222366  43.0744171  84.7576523   9.6567744   8.4771013
  85.5298138  10.1237309   8.1578201  85.0127411   8.7343001   8.4629446
  91.7748356  25.6924319  63.6321068  92.1763802  24.8398638  63.7997961
  92.3102188  26.3111925  64.1288328   7.3794538  35.0469971  66.1576939
   7.8818738  35.8102965  65.8727741   7.6232773  34.3561840  65.5416107
 110.9045124  27.7914906  75.8148527 110.0739765  27.9347968  75.3610897
 111.5231228  28.3716917  75.3710842  40.6213379  86.8510342  28.2512665
  40.2046490  87.7102089  28.1846905  40.3685570  86.3992119  27.4461627
  75.2618170   2.9046795  17.8672194  75.6117916   3.7693354  18.0819714
  74.3360710   2.9551026  18.1053030  48.4448004   5.8011967  30.6656694
  48.1462526   5.2374816  31.3793421  47.6432371   6.1919618  30.3177738
 102.9106712  77.3903084  19.3543375 102.0854473  76.9573498  19.1357505
 102.9872417  78.0973482  18.7136650 105.5158234  40.0402069  91.0476017
 104.5678806  39.9225640  90.9859562 105.6979275  40.8066320  90.5038643
  21.7852402   5.2332151  25.0063634  21.1951447   5.5414373  24.3185997
  22.6397967   5.1727140  24.5793915  36.8199182  89.7715187  41.6522884
  36.5130782  88.8696384  41.5589666  36.0372829  90.3059196  41.5176725
  17.4011481  16.1950421  32.2834778  16.6149020  15.6507361  32.3256612
  17.1428466  16.9481790  31.7521620  63.6112022   5.5045670  20.8638954
  62.7984858   5.0893480  21.1525512  63.6722755   5.2900565  19.9330425
  50.6332874   5.0999242  14.1483521  49.8878336   5.6189358  13.8464272
  51.3991165   5.5526918  13.7951660  26.9225097  77.6472855  36.5256619
  26.4451432  78.4384012  36.2756872  27.6607490  77.6107740  35.9174681
 104.9789715  22.7702618  93.0745792 104.7583675  23.1182456  92.2105980
 105.8806992  23.0544233  93.2241440  27.4995089  86.1023521  30.7895041
  26.9829488  86.4928436  31.4944291  27.8325939  85.2854347  31.1608863
 101.9189072  36.3571501  92.6010227 101.7938137  35.5932856  92.0379066
 102.2188759  35.9939027  93.4342670  22.5601339  90.9346485  32.3535395
  23.0311680  91.3368893  33.0833101  22.3800683  91.6601849  31.7557073
  20.5426002  81.8112850  24.5648146  20.3932095  82.7555561  24.6124625
  21.4659858  81.7030907  24.7925997 100.2475452   7.9777652  67.7513266
 100.6927490   8.8183606  67.8582239 100.8307266   7.4676389  67.1892738
 103.5709667  93.5177708  75.4777336 103.3021832  93.7131214  76.3754129
 102.9100037  92.9036140  75.1580906   4.6348023  95.2771091  62.8020096
   4.0809363  95.6199551  62.1006393   4.4534636  94.3373108  62.8126860
  12.0384288  86.3819408  35.3421187  11.3701940  87.0541763  35.2087522
  12.2746611  86.4591122  36.2664962   1.3668168  58.3347321  25.2900386
   1.0480757  57.9066038  26.0846090   0.7257928  59.0238762  25.1156807
  52.5883675  99.5990562  28.5554934  53.0448723  98.8457680  28.1807971
  53.2818031 100.2335262  28.7366605   4.4812629  43.4459352  91.4853287
   4.9348286  42.7670288  90.9857273   4.3594727  44.1614723  90.8613014
  26.1886954  82.3342037  11.4706600  26.2475967  83.2774544  11.3188934
  26.6342831  81.9424725  10.7195091 110.4405308  80.7541943  17.9888535
 111.3876438  80.8785152  17.9275715 110.2355957  80.9245205  18.9082134
 109.5148277   8.5140806  90.6642532 109.7313595   9.1013980  91.3884068
 110.1924706   7.8386474  90.6928349 106.7915440  50.9670067  80.0786018
 107.4818134  51.4516449  79.6259737 107.2285843  50.1838350  80.4130650
   5.5048674  93.6102962  51.7975426   6.2034863  94.1258049  52.2005558
   5.5820572  92.7456570  52.2008562  81.1149406  20.8399820   4.2803353
  80.8409691  19.9715185   3.9854753  82.0067120  20.7127380   4.6040297
  45.8444071  90.8043480  25.1315284  45.8908033  90.0139523  24.5936155
  45.7122564  90.4803181  26.0224652 104.2183208   0.2217087  15.4572630
 103.9657593   0.4392863  16.3545406 104.1285610   1.0447741  14.9769092
  21.0668683  27.1137667  76.3431501  21.3001823  26.9139099  75.4365873
  21.3702130  28.0118370  76.4761257  89.3663025  37.6782680  93.6193275
  89.0460777  36.8824100  94.0439415  89.2796803  37.5014281  92.6826096
  34.9401259   2.3105244  36.0673928  34.8949599   1.3548028  36.0954642
  35.5634999   2.5003523  35.3662467  13.3851063  87.1072006  40.9014130
  13.6056948  87.4560642  41.7650509  12.5591385  87.5343609  40.6743765
  29.7945261  73.6862135   1.0500836  30.2823329  73.5951424   1.8686071
  30.4688048  73.7142563   0.3712674   2.5546503  86.8040657  58.2195950
   2.8228974  86.7806435  59.1381407   1.5987951  86.7620945  58.2480764
  50.2940702 103.9433193  10.5428863  50.9046364 103.8086224  11.2676597
  50.6373119 103.3969307   9.8358661  63.1674957   4.2068487  50.7102823
  62.2450304   4.4351679  50.5955601  63.4680462   3.9754260  49.8314524
  34.3313217  88.8799095   3.9019436  35.1792526  88.6118317   3.5478532
  33.6906910  88.5155964   3.2911241  22.8717828  72.8086090  18.9690924
  22.0182419  72.7352381  18.5421073  23.5039449  72.7462292  18.2530534
   6.3486850  84.3344784  13.1592691   6.8396586  83.7042999  13.6865735
   7.0209032  84.8772144  12.7472067  31.5945315   1.9056152  29.9327397
  31.5299702   2.7323478  29.4546437  32.1074796   1.3365293  29.3589306
   1.2734932  51.7988300  93.1372929   0.3714467  51.6866159  92.8373718
   1.3716856  51.1616135  93.8447857  60.2103949  96.2774181   1.9002666
  60.7470512  96.2232876   2.6910269  60.5919552  96.9993591   1.4008141
  17.9192948  84.6068001   3.1421059  18.6823106  85.0395107   3.5252473
  17.1687973  85.0524902   3.5349703  40.4655600  97.1687317  22.9203129
  41.0764933  97.2807503  22.1919942  40.7070875  97.8542900  23.5431337
  22.5098658  98.5898495  17.3807871  22.1138430  99.3900871  17.0358062
  22.0347929  98.4188175  18.1939828   0.9810148  94.6148014  33.4663653
   1.5935117  95.3298664  33.6388731   1.5110213  93.9441109  33.0356717
   3.9943427 104.6504021  31.3363338   3.6594111 103.8140202  31.6596317
   4.1637638 105.1623631  32.1271729  42.2813559  78.2582617   3.5318765
  41.7498922  79.0399694   3.6825961  41.8159771  77.7810335   2.8449208
  59.9027252   4.3864805  55.8318138  60.3870583   4.3028396  55.0104380
  59.0531015   3.9844358  55.6508875 112.5922585  80.6600666   0.9137543
 112.8117561  80.9540176   1.7978594 113.1965065  79.9371815   0.7447688
  35.2916646  87.0549774   7.6042080  35.6875157  87.8978348   7.8258520
  35.9835529  86.4145279   7.7696019  72.8414440  14.7321439  29.5036960
  72.8279781  13.7750745  29.4953585  72.7815485  14.9805677  28.5812378
   2.7814341  93.9786720  41.6300201   3.3834028  93.3929348  42.0891237
   2.0084259  94.0170956  42.1932411  33.4508944  10.7956886  21.4531851
  32.9096699  10.8563018  22.2403526  32.9860306  11.3209689  20.8018661
  53.8771677  79.1190338  10.3891122  53.3017302  78.7541294   9.7168410
  53.8730764  80.0615311  10.2220571   6.2642401  84.8388195   0.4621958
   6.6969496  85.0077057  -0.3747476   5.6206238  85.5424404   0.5453417
  23.4404588  71.0608816  41.1965036  22.8344297  71.0630083  40.4555893
  23.0924606  71.7241621  41.7924786 103.9468479  37.1203899  80.6489086
 104.5945930  37.4134994  80.0080204 104.2937756  36.2912011  80.9780312
  20.7829428  62.5095367  24.9899125  21.3449454  62.8267097  25.6968665
  21.3924408  62.2192335  24.3113351  62.8681326 107.1026707  34.1322184
  63.1038618 107.7203846  34.8243833  62.1922064 107.5550175  33.6275029
   8.5853493  75.3962660  30.8249998   9.1647106  76.1291885  31.0333204
   8.1948769  75.6313705  29.9832797  24.3982887  67.2613907  17.3532248
  24.9446726  67.1390676  18.1295836  23.6261725  67.7269459  17.6746714
  21.7710900  51.9051075   8.9957708  22.3862004  51.8998241   9.7291487
  22.3270011  51.8865156   8.2167655  45.8767462  94.2101574  38.8589859
  45.1792860  93.8799095  39.4253087  46.2750721  94.9219990  39.3598270
  15.8649719  95.4031372  28.8536191  15.9309542  95.1645660  27.9289794
  14.9487734  95.6539917  28.9714622  70.2642012  37.8467631  45.5677319
  70.7711077  38.6036682  45.2738380  70.9178686  37.2432065  45.9208250
  45.5443335   6.9832647  35.8516431  45.8509874   6.5837204  36.6656208
  45.9791899   7.8355521  35.8245111  23.2698131 108.4222507  23.5157061
  23.4433961 108.3841801  22.5751472  22.4619985 107.9217911  23.6306310
  53.7715912  35.7953358   1.5278849  53.6733198  35.8212447   0.5760951
  53.8988495  36.7097855   1.7805105  67.1154737  92.6605129  28.1310272
  66.8322754  92.9583168  28.9955163  66.7262554  91.7909908  28.0378604
   5.3389013  44.0692759  93.9350510   4.9878556  44.0078926  93.0466652
   5.7478493  44.9339390  93.9717770  96.8979168  35.3989792  26.8216825
  96.0511017  35.3274584  26.3812065  96.6904068  35.3246641  27.7531600
 106.4856625  58.9166164  65.6663656 107.2186279  59.4982481  65.8680868
 106.8964291  58.1267405  65.3148031  41.3690948  38.1563687  54.5207071
  41.0122681  37.3194265  54.8180819  42.3182344  38.0356646  54.5489264
  18.2925880  86.1461544  13.3116221  17.3392153  86.2265205  13.3408332
  18.5364091  85.8652878  14.1936088  42.3572922  98.4892941  47.0094490
  42.4866390  99.2907429  46.5023232  41.4786720  98.5786343  47.3786068
  63.9092112  19.6793246  44.4719362  63.5736990  19.8629439  43.5944653
  64.3202972  20.4986620  44.7474813  33.1117344  68.6393452   4.2790157
  33.2569718  68.1631851   5.0965804  33.9790940  68.9592075   4.0308058
  26.9141698  90.2443600   7.4890321  26.6727638  91.1695480   7.5335425
  27.3573875  90.0722408   8.3197945  53.9909792  91.1687183  22.4472761
  54.4294691  90.3694534  22.7390623  54.6877432  91.6943264  22.0542288
  84.4389343  10.5798709  33.0450916  84.0383148  10.4363430  33.9024925
  83.9994335  11.3582039  32.7026391 115.8950901  20.2449536  93.3535385
 114.9384308  20.2202058  93.3741093 116.1052799  20.7111931  92.5444221
  60.2555513   1.2663217  24.7538090  60.7333946   0.8831766  24.0182185
  59.9256563   0.5129722  25.2435708  48.0466843  42.6140404  91.8614197
  47.4969959  42.9657269  91.1611366  47.7094936  43.0226088  92.6586723
  91.3855362   5.3076780  17.1670866  91.5232563   4.7585708  17.9389322
  91.0293102   4.7108105  16.5089953  47.8709269  72.2894096   3.2821971
  48.4698820  71.9024754   2.6436299  47.5425482  71.5439653   3.7849015
  31.2807870  98.1635189   3.0054229  30.7700872  97.3539543   3.0084017
  30.6827998  98.8226414   2.6529914  40.9376240  18.8825464   5.7682443
  40.6036997  19.7790515   5.7365376  41.8660307  18.9801085   5.9798461
  79.9380636   0.1376899   3.3297333  80.3690815   0.9755211   3.1609282
  79.4220257  -0.0293774   2.5410476  78.1801510  18.0583847   8.7873024
  78.6898375  17.3108947   9.0998882  77.3160172  17.6949692   8.5938412
  23.6847281  74.8942995  38.2538557  22.8626251  74.4259501  38.3988595
  24.2717743  74.5638943  38.9338827  73.4826040   9.3032354  17.0391953
  74.0196943   9.7950351  17.6604044  74.0674782   8.6249274  16.7014730
   2.3063844  94.4914913  87.0643330   2.0382214  93.7391853  87.5919342
   1.4847909  94.8675537  86.7484379  79.2075396  37.7531600  92.9407120
  79.9119186  37.5049925  92.3419666  78.4728193  37.1924424  92.6916790
  31.9658256  94.2642403   4.3987513  32.5592661  94.0045547   3.6940336
  31.1906791  94.5991135   3.9479297  64.5316744   8.3267081  28.5727191
  64.7188520   8.5139292  27.6528573  63.6366606   7.9873306  28.5707569
  10.0250399  91.7516994   8.3051592  10.3519082  92.3053455   9.0142882
  10.5708134  90.9662724   8.3435047  70.0973415   8.3733094  43.6419106
  70.1687098   8.6572927  44.5532227  70.7754183   7.7046031  43.5456181
  53.4216261  64.4862127   1.5438294  53.3603191  65.0429153   2.3200734
  52.7868700  63.7869453   1.6998464   5.1717681  66.1558104  90.1088047
   5.9141362  66.2706804  90.7020378   5.4062760  65.3959608  89.5760155
  56.5183210 104.3703079   9.1640329  56.5952158 103.7125969   8.4728521
  57.2804642 104.9363804   9.0418577  83.6987495   2.7371350  20.6031942
  84.6509361   2.8350294  20.6038427  83.5034466   2.2894590  21.4264011
 100.4388714  16.0797548   0.4464487 101.0371399  15.8452725  -0.2630093
 100.7394409  16.9402897   0.7386365 106.5551472  63.7501526  71.7870569
 107.2410393  64.3812227  71.5690374 106.9517708  62.8962231  71.6146660
 114.0837765  64.5787573  86.9054890 114.5382786  65.4181194  86.8338299
 113.7424946  64.4153500  86.0262489   7.7344954  22.0714259  71.0793066
   8.4101969  21.4793491  70.7489967   8.1788510  22.9141784  71.1717606
  83.6361504  24.3182039  12.0544589  83.2062531  24.5627642  11.2349439
  84.4478703  24.8254776  12.0597827  72.3450136  14.8026574  34.3308759
  72.0410299  15.6812501  34.1030574  72.0558596  14.6759868  35.2345228
  88.2967854   1.9361944  58.9498377  88.2045650   2.4384801  58.1402493
  87.8131866   1.1265915  58.7858152 109.6323395  53.0077028  15.1160419
 108.7514305  53.0910301  14.7509468 109.8900318  52.1076345  14.9167800
  34.5532203 107.5211048   3.3726788  34.2840385 106.8678284   2.7269250
  35.2814245 107.1108437   3.8391957  64.1121340   0.8564147   9.5710754
  63.7085199   1.7017935   9.7677040  64.6054125   1.0082313   8.7649351
  65.3152704  21.0232329  27.2506166  65.2974796  20.5087256  26.4436483
  65.8128500  20.4854679  27.8666162  36.2024045  92.5726032  29.2951894
  35.5637693  92.9759312  29.8831558  36.6528606  93.3121300  28.8872457
  26.0918975 106.5891647  23.9970732  25.5949068 105.7723618  24.0425515
  25.4244518 107.2751045  23.9817405  57.4158287  25.1066589   4.6401483
  57.0445681  24.3090510   5.0172675  58.0141354  24.7946167   3.9612591
 108.2275391  58.1899500  83.0565739 108.1988621  58.2769632  84.0093803
 108.2603168  59.0908051  82.7346802  42.8327942  79.4754410  14.7995842
  42.3839712  78.7378407  14.3863893  42.3770761  79.5969582  15.6325245
  51.8259430 104.1253376  19.3665695  51.4625835 103.6413193  18.6250007
  51.1242676 104.7201538  19.6313012  17.9216230  80.1066399   3.0765978
  16.9760442  79.9965715   3.1765902  18.0493653  80.2387238   2.1372001
  75.9309578  13.1621182  29.4204211  75.5240393  12.3186255  29.2225099
  75.2676725  13.8098097  29.1821241  98.1454659  17.9932630  28.4218431
  97.2701073  17.6351964  28.2743239  98.2825470  17.9096639  29.3654799
  46.0290527  88.4987259  31.6322875  46.4844465  88.5024261  30.7903647
  46.0329437  89.4145203  31.9107246  75.6312227   3.2118538   7.7018559
  76.5650797   3.0017507   7.6996100  75.5018806   3.7365815   6.9118160
  38.5644031  94.7523975  41.2509298  38.3141351  95.5069542  41.7840672
  39.4940734  94.6239090  41.4391708  50.8846569  10.0740778  16.0519969
  50.6998110   9.3892908  16.6947496  50.7369041  10.8929074  16.5251994
  36.9557810  79.0081453   4.7916269  36.2383795  79.1873932   5.3994417
  36.6447496  79.3401146   3.9494330  26.0361052  95.8259296  20.9980607
  25.7925940  95.6512451  20.0889874  25.3080750  96.3405991  21.3463712
  22.3375916  60.6340218  28.7673950  22.3694110  59.6874189  28.9058423
  21.4118552  60.8225870  28.6134982  89.8290253  24.5757079  43.9507484
  89.2539024  24.4796133  43.1916475  89.4370842  25.2851868  44.4599104
  58.7826443  92.3550797   0.6230644  58.6972618  91.5315437   1.1034155
  57.9816771  92.4126530   0.1021319  68.9485312  20.2959919   6.3038170
  68.2939243  20.0779295   5.6403613  69.7875881  20.1076865   5.8833992
 106.1905384   0.4617717  49.1721439 105.3900814   0.4852676  49.6964979
 105.9598541   0.9170230  48.3623552 104.2105865  11.2321782  23.5865569
 103.7323380  10.4031253  23.5728884 104.3931198  11.4185989  22.6656008
  80.4683304  33.3932471  32.2661829  81.2003422  33.8795805  32.6454997
  79.8006725  33.3918047  32.9520845  91.5097713  64.8171091  92.7225018
  91.5464211  64.2001772  93.4534454  92.4263763  64.9764872  92.4974155
  17.5553977  74.4637775  45.3943253  17.8513384  74.3918705  46.3017845
  18.2026100  73.9693594  44.8914385  14.8163092  38.0416250  85.9156513
  14.1269529  37.7596092  85.3144169  15.6255734  37.7153015  85.5221653
  40.7819605  76.3153601  17.6921844  39.8589897  76.1292219  17.8645468
  40.7751656  77.1547031  17.2320855 114.4958401 107.1093082  65.5812120
 114.3850994 107.2101402  66.5266228 113.6175251 106.9099998  65.2570820
   1.8314102  59.8046780  92.9693222   1.7632222  59.0808582  92.3466969
   1.9850157  59.3806791  93.8136387  36.1784339  35.2653646  81.9973946
  36.9806957  35.6276655  82.3733521  35.4871321  35.5366540  82.6013374
  40.7003021  82.5868797  15.3157568  40.0274944  83.2479382  15.4787409
  41.3250542  82.6992893  16.0321915   7.1739668  63.1546593  18.8480222
   6.7076123  63.9381599  19.1393566   7.2019702  63.2332850  17.8944683
  96.3663578   2.7961588  25.5793238  96.2309837   2.7847782  24.6318126
  95.6561565   3.3423907  25.9161878  26.5072775  71.0785818   5.4593831
  27.0517850  71.1639929   4.6767938  27.1272349  70.8852243   6.1625868
  73.7283945 101.4017963  42.2646046  73.9166498 101.7882442  41.4093590
  73.3784771 102.1263599  42.7830505  63.8475418 104.9905872  14.2471695
  64.5126724 105.6483269  14.0441501  63.3085823 104.9433136  13.4575379
  77.2956038   2.7927771  86.7633915  76.6589642   2.0838490  86.6720390
  77.4281216   2.8754792  87.7077579  24.8547363  57.5800085  82.9651451
  25.4029965  57.5498533  82.1810913  25.1921582  58.3233881  83.4649086
  24.1979837  65.0313282  15.5635190  24.7789979  65.3159428  14.8580778
  24.3448114  65.6655025  16.2652993  26.1833882  41.2131310  24.6880007
  25.8603930  40.5884933  25.3374100  25.7517767  42.0373249  24.9130535
  91.6979885  52.9722166  83.8421822  91.6273880  53.6172056  84.5459080
  90.8593941  53.0251932  83.3837128  24.9743748  54.5959234   3.3976001
  25.9266162  54.5568609   3.4867096  24.6555519  54.7292376   4.2902431
 114.4232655  79.7818279   8.4567958 114.3371964  78.8603878   8.7012786
 114.7080994  79.7616196   7.5431788  63.6021948  25.7206225  89.2812443
  63.2932186  25.8060884  90.1831722  64.2315292  26.4339900  89.1750526
  88.2320595   9.8428667  93.0834484  88.4719276   9.4115680  92.2632790
  88.9848328   9.7014201  93.6575127 113.7615108  13.3569717   5.3111792
 114.5504761  13.1020272   5.7894826 113.0919933  12.7404404   5.6076056
 105.0077534  56.5986967   8.4616500 104.1961193  56.1732960   8.1850171
 104.8069191  57.5343561   8.4408122 110.8479023   9.5004725  88.2714272
 110.0711441   9.2310888  88.7616444 111.0977077   8.7228727  87.7722549
   5.8053720  48.3901644   3.5958987   6.2587810  47.5566196   3.7218231
   6.0642415  48.9199305   4.3499303  81.9902420  36.8258739  11.4064360
  82.6312637  36.4834380  10.7834888  82.5061607  37.3559117  12.0139861
  59.0482998  49.7325659  31.6425395  59.7162962  49.0484858  31.5973520
  58.2179642  49.2615032  31.5727377   0.5940768   7.4608439  87.7704620
   0.2171299   8.3044708  87.5205898   1.4783171   7.4757057  87.4042225
  27.4819589  70.3880405  28.3792329  27.6852942  71.1828756  28.8723040
  27.1413398  70.7055330  27.5429273 102.8804874  78.6429071  24.9124670
 102.7592182  78.4225035  23.9889169 102.1195030  79.1802740  25.1323915
  38.5552192  85.8605766  13.7680078  38.7964869  85.6035995  12.8780735
  38.4588957  86.8119431  13.7247920  83.5836315   0.9584780  60.1614141
  83.6317062   1.4812078  60.9618378  83.2323456   1.5589470  59.5039415
  84.3031502  12.2848797  77.6247597  85.1184177  12.3837101  78.1164932
  84.1505718  11.3402081  77.6013613  18.2921016  42.2407818   8.0258811
  18.5062027  41.3579273   8.3274710  17.3359060  42.2543335   7.9841769
  33.1201625  54.3971777  18.1143761  33.3886170  53.7205887  17.4927735
  33.8842964  54.9684954  18.1913519  99.3121529  38.2841945  78.2074308
 100.0852203  38.8213801  78.3807087  98.9506245  38.6395884  77.3955011
   7.8286791   2.0355006  28.9055872   8.4161115   2.7905169  28.9388347
   7.8468013   1.6786450  29.7935939  48.9529133  96.3792610  80.6580353
  48.6378002  96.6820240  79.8064089  49.3209267  97.1614361  81.0691452
 104.2042351  63.3744335  43.3136988 104.1178417  62.4704266  43.0111456
 104.0681553  63.9039946  42.5280285  92.5760555  56.8171883  34.5656157
  91.7487526  57.2769165  34.4226027  93.0582619  57.3758793  35.1751828
  39.9844122  99.7441196  78.3390713  39.0363145  99.6449471  78.4256935
  40.2828217  98.9023304  77.9947281  10.3623688  68.3501768   3.2849991
  10.7872379  69.1036463   3.6948740  10.2148438  67.7372694   4.0052855
   0.4272391  38.7672710   2.6802775   1.2409902  39.1709042   2.9821417
   0.4855203  37.8593278   2.9777235  35.7614303  38.4074116  26.5072131
  35.9601974  37.9013538  27.2950125  34.9688053  38.8956904  26.7298365
  82.3981094   6.7114794  91.1821556  82.4030972   6.1379957  90.4157829
  83.3172226   6.7709893  91.4427567   7.6011378  25.6381559  73.2607794
   8.2451648  24.9877310  72.9807663   7.8036904  25.7940722  74.1832209
  85.7714558  20.7403255  53.0146360  85.3465652  21.4937997  53.4244776
  86.3618565  20.4026389  53.6881542 106.1270428  13.4968746  81.7481709
 106.2924767  13.0743062  80.9053802 105.4574203  14.1542304  81.5591526
   0.2861655   6.8411314  93.9798164   0.2252258   6.2546253  93.2258034
   0.0768902   7.7063060  93.6278057  70.7684803  87.4654675  67.4145222
  70.5143881  86.5681362  67.1989822  69.9400187  87.9164410  67.5773287
 107.6495457  44.9747229  31.3488269 108.3787537  44.4456673  31.0254407
 107.9278374  45.8792782  31.2054563  94.2318535  63.0117321  16.0620809
  93.3470821  62.6900864  16.2351501  94.3683052  62.8471184  15.1290667
  20.8898234  61.9340992  19.2307818  20.0537848  61.5097666  19.0378749
  20.9705949  62.6176453  18.5655975  24.2573333  42.7939987  21.9685268
  24.0475082  41.9638395  22.3963666  23.5572743  43.3873653  22.2406816
  97.8109074  37.6552129  91.4129829  97.0340538  38.2020807  91.5298748
  97.4648476  36.7958808  91.1721039  78.5977650  21.9054198  90.5064964
  79.2466831  22.3314309  89.9464512  78.0762577  21.3725424  89.9062443
  14.7787583  38.4856653  11.5314364  13.9283574  38.5550809  11.0975802
  15.3268993  38.0078125  10.9089971  80.6936073  46.2624788  93.2763958
  81.3662148  46.7535543  92.8045082  80.8925056  45.3447676  93.0906963
 115.1926422  86.2759113  28.8147998 115.6889343  86.2477875  27.9967952
 114.6727371  87.0771599  28.7520814 107.4608803  61.8975258   8.6248028
 106.6631985  61.4191771   8.3987004 107.1536446  62.6505423   9.1295850
  70.8530951  15.6032968  83.3736706  70.0191307  15.8957410  83.7413788
  71.0500574  16.2422633  82.6887131  16.1050832  28.2236600  22.6872325
  16.7382181  27.7073431  22.1884441  16.6386580  28.8521218  23.1736112
 101.0563850  43.1629944   2.6138315 100.6462669  43.9577246   2.2726038
 100.3938961  42.7793503   3.1884307  11.5912449  84.4928741  33.3923054
  12.0336330  85.0252819  34.0534163  11.3754749  85.1098728  32.6930285
  72.9103756  10.7085168  78.7083960  72.1512699  10.1352310  78.8148546
  73.5052586  10.4515493  79.4128895  48.8729477  99.0734577  91.1496544
  48.1128311  99.4894886  90.7429981  48.5286760  98.6744022  91.9486904
   5.2041024  41.8171740   1.1905207   5.7307851  41.1190414   1.5796873
   5.8302474  42.3370600   0.6866418  93.7614727  44.2250395  27.2192073
  93.9308929  45.1668739  27.2409534  92.8121281  44.1501522  27.3159814
  16.6842282  25.5479574   6.8248177  17.0954037  26.2367988   7.3469931
  16.9208479  25.7586074   5.9215629  22.1628833  85.9397602   6.4856207
  21.7856193  86.8028259   6.6559738  22.0666432  85.4686928   7.3133039
  97.5654221  61.9332075  27.1454453  96.7890835  62.4931383  27.1448135
  98.2428741  62.4625731  26.7246604  21.1960793  93.4954739   7.3868042
  21.7958307  94.0875053   6.9329017  20.5088234  94.0670013   7.7292538
  88.4935093   0.3058388  91.4600182  87.6374531   0.7263043  91.3786316
  88.5001564  -0.3591322  90.7715416  18.4932756  82.9065990   7.1246302
  18.1666970  82.6467609   7.9860610  18.5939670  83.8566780   7.1832418
  25.9493327  80.2668762  23.9393878  26.1636281  81.1848927  24.1053724
  26.6700983  79.9469948  23.3967996   4.5502788  64.2940187   6.9992292
   4.6713528  65.0072336   7.6260412   5.3284138  63.7468529   7.1057594
  40.7536936 109.2079735  78.9611959  40.7655334 108.2594490  78.8331223
  40.3125238 109.3306637  79.8017597  12.4148202  71.7231655  39.4674087
  13.3523595  71.8922949  39.3744278  12.3311317  71.3018084  40.3227949
  11.3754654  64.1402340   3.2612446  10.4716337  64.1111803   3.5750547
  11.8837655  63.7215376   3.9559060  27.9163146 103.7425327  18.6659622
  27.8284240 104.6951580  18.6977220  27.3762608 103.4768581  17.9216540
 114.4351006  73.1536770   5.2967924 115.2381802  72.6756048   5.5035406
 114.6592617  74.0727854   5.4424697  25.2223659   3.9050674  81.6199970
  24.5250106   3.2559082  81.5277004  24.7921085   4.6645990  82.0127106
 101.7375755  56.8859720   4.9957141 100.8852005  57.0152330   5.4116040
 101.7811775  57.5652218   4.3227017  20.8988690  46.2272453  23.8920474
  21.7875981  46.4988804  24.1214108  20.8064556  46.4646864  22.9693818
 106.4241982  29.9050403  14.2900634 106.7318344  29.9037361  15.1964784
 106.9575882  29.2397809  13.8551414   8.5628414  42.1402979   2.9891759
   7.9088825  41.5824890   3.4103888   9.1590738  42.3863506   3.6964217
  12.2844958  36.5619755   3.4027332  12.0565701  36.7008424   2.4834953
  12.1359181  37.4118257   3.8173586 110.9808826  52.9722738   5.8970010
 111.6497707  53.4969807   6.3369006 110.2267838  53.0030680   6.4857429
 115.2482986  56.8085814   7.6094639 114.3833733  57.1688652   7.4136835
 115.4913425  56.3262653   6.8191880  21.0791993  68.9192533  14.7807658
  20.4588342  69.1014338  15.4865921  20.5469728  68.9305592  13.9852524
 110.8779335  50.5775070  41.4830828 110.3651810  50.4171324  40.6908703
 110.9224796  49.7250700  41.9162083  50.3474379  23.6115646   3.9890668
  50.7524300  23.8623905   3.1588247  50.8994007  22.9032183   4.3204495
 115.5002308  51.6867590  15.0983739 114.9385357  52.2108364  15.6693995
 116.3576412  51.7050219  15.5235267  27.2476459  73.3909225  12.9861271
  26.7464161  72.5934172  12.8158879  26.8170834  74.0620470  12.4565578
  64.3255377   6.7069405  84.3730068  64.5111942   5.7970846  84.6052170
  64.8543406   7.2222793  84.9821281   3.2509947  78.0387640  40.8959532
   3.2178640  78.9127779  40.5070639   2.6799643  77.5077868  40.3407764
 104.7329426  41.2265253  24.9153900 104.3388271  42.0433521  25.2215004
 105.0693417  40.8106756  25.7092023  21.8622351  36.7724156  32.7248430
  22.1901536  36.0905910  33.3112025  22.0147347  37.5898004  33.1990314
  45.1762772 106.1142921  72.1425915  45.0119829 106.0196781  73.0808258
  44.3498993 106.4406109  71.7864370  90.5658722  84.1719246  35.4022408
  91.3667011  84.3998146  35.8744478  90.7393646  83.3021069  35.0422931
  93.3777237  39.0617967  18.6304986  93.0811214  39.8621225  19.0637839
  92.5748539  38.5678887  18.4640813  26.2827969  89.7953033  34.8706770
  26.6014481  89.4070244  34.0558553  26.9502115  89.5719910  35.5194592
  52.8209019  89.2055893  85.4788303  53.2612705  90.0185204  85.2309418
  53.5253477  88.6365223  85.7889080  19.0867829  73.3870745  23.0711031
  19.2514491  72.4448824  23.0337214  18.1332135  73.4649229  23.0414820
   6.2148523  83.6748600   3.2108581   6.6686451  82.8375340   3.3067071
   6.2447590  83.8573647   2.2716933   6.0802549  57.5567245  20.4382420
   5.1959032  57.2516727  20.2355146   6.0399330  57.8128242  21.3596654
  96.8500900  16.1226559  93.4300423  96.3798714  15.3416252  93.7217999
  97.2927761  15.8495116  92.6265144   1.1874732  70.3443718   6.0290885
   1.9060096  70.9639931   6.1555922   1.5547504  69.6635675   5.4653126
  31.5500331  58.6515713  28.3950877  32.3610878  58.7728357  28.8887644
  31.1347318  59.5139647  28.4011507  11.6745436  49.4505310  14.5218837
  11.8586528  50.3107262  14.1445243  10.7354069  49.4659233  14.7063196
   2.9352254  68.7242699  47.7534866   2.8492311  69.6576262  47.5593662
   3.1290498  68.3205509  46.9075108  16.4884508  48.0817175  27.0331240
  17.1815610  48.7309265  27.1529508  16.6719091  47.6903486  26.1790729
   1.6003568 101.7129707  51.5836811   0.6624982 101.9001293  51.6240263
   1.6545156 100.7573509  51.5930414 110.6144142  58.5121965  46.2768888
 110.8345890  59.2514515  45.7100916 111.1862755  57.8042603  45.9801817
  21.6152215  59.5490789  15.7798040  21.7342186  58.8057756  15.1885533
  21.2109208  60.2252436  15.2361381  49.3029261  98.6636257  94.0608883
  50.1009226  99.1922379  94.0596008  48.6139011  99.2707253  94.3309021
  88.7995434  40.4073763  85.5396843  87.8570938  40.5341625  85.4304695
  88.9697170  40.6484413  86.4502716  53.6725235  58.6157751  14.2256141
  53.3175373  58.6823654  13.3391714  54.4587898  58.0784750  14.1290104
  93.3510494  33.1298709  81.2302780  93.1202698  32.7615881  82.0831203
  92.7025986  32.7646875  80.6282902   6.2535226  18.2264757  85.1498699
   6.6601795  18.6427057  84.3898582   6.8807745  17.5557089  85.4197884
  15.0837779  61.4559698  66.6774178  14.7083271  62.3278093  66.5542793
  14.3286717  60.8677149  66.6766071  59.3004990  10.4664063  11.4152515
  58.9677238   9.5689178  11.4174509  58.6009836  10.9802353  11.0116577
 109.4375801  11.4746177  78.2515621 108.5267830  11.2877345  78.4790659
 109.8647881  11.6419852  79.0916300  12.2777569  99.9225235  23.4398055
  11.8455780 100.6559181  23.8775134  12.6146984 100.2948380  22.6248908
  19.1760409  47.4982309  28.6461234  18.8496280  46.9775629  29.3800116
  19.0846741  48.4056234  28.9368558  20.6044769  40.9530926  48.1079197
  19.6552455  40.9608412  48.2309246  20.9170556  41.7065287  48.6087799
  15.0845873   3.3580250  92.9450512  14.4069719   3.8993767  92.5400734
  14.9177098   2.4763572  92.6118088   5.2672905  87.7698135   9.7875524
   5.9730476  88.3124733   9.4358993   4.9876651  87.2312832   9.0472645
   2.8272828  25.3944564  89.5560837   3.1554884  26.2915373  89.6174049
   3.3176962  24.9138856  90.2229977   1.3887121  80.0569916  13.4750843
   2.2640996  80.0214291  13.0895150   0.8700684  80.5583954  12.8459311
   7.8904110  82.2245121  13.9450729   8.2581401  81.3418102  13.9879298
   8.3740008  82.6513672  13.2378423  44.2082787  39.5037079  30.4789090
  43.5014248  38.9267802  30.7683015  43.8072777  40.0555944  29.8074555
  30.1780772  67.6978111   7.5508869  31.0899496  67.4158764   7.4785346
  29.8418736  67.6532936   6.6557795  15.0032067  24.7572923  16.6884804
  14.8254097  24.7475457  15.7479882  15.9523404  24.8639607  16.7517102
 101.1963654  41.9152784  40.9087372 100.3409958  42.0463037  41.3178825
 101.0128021  41.9002485  39.9694252   8.3037186  71.6448689   8.2185256
   8.6932480  72.0167112   9.0098733   8.3847421  70.6980944   8.3338070
  90.5327892  78.8208294   1.4877170  90.1802158  78.7816000   0.5986808
  89.7616005  78.7799168   2.0532377 113.0950928  98.0869102  25.3376698
 113.6966228  98.7818623  25.6049466 112.4338818  98.5328960  24.8083854
 105.6986904  28.0896521  82.4393368 105.3449249  27.9786444  81.5568638
 106.3108444  28.8214087  82.3616791  26.4740086  57.3008585   5.3381425
  26.9176364  57.2056055   4.4953185  27.0830512  56.9242001   5.9733015
  81.8001270   6.1771864  80.1854897  81.5005398   6.7949945  79.5185661
  82.0437241   5.3930867  79.6934748  33.2513285  97.1068096  45.2200413
  33.7918401  97.2043705  44.4361019  33.8724780  97.1548843  45.9467411
  87.1741772  14.1345239  81.8925381  86.7292404  13.3323336  82.1659470
  88.0333138  13.8405764  81.5896797 106.1675453  59.4170761  34.1346526
 105.8100224  60.2602434  34.4129968 107.0462132  59.6230507  33.8156533
  56.7959690  94.4866371  66.0890532  57.3670244  94.0117550  66.6928911
  56.0030079  94.6606731  66.5961599 115.2774620  69.1341639   2.5261894
 116.0787106  69.1228199   3.0497402 114.5735168  69.0107346   3.1629443
  57.8492498  93.4782410  74.9035788  57.2039175  92.7723598  74.8647547
  57.3388672  94.2769623  74.7702169 107.8272247  19.9372041  61.4576292
 108.4234810  20.1558542  62.1738100 107.9691982  20.6265354  60.8088636
  22.9981685  75.5164576  42.2574520  22.8677368  76.2162066  42.8974295
  22.4516988  74.7972488  42.5742245  77.0056820  39.4814825  90.1311016
  76.7350578  39.1947651  89.2588711  76.7147303  38.7806797  90.7145786
   1.8313062  40.5332041  60.5877209   1.3180333  39.7808933  60.8823586
   1.3084677  41.2939024  60.8411217 109.6442699  68.6596823   7.6090038
 109.8689270  68.2851601   8.4607637 110.3446293  69.2874527   7.4311495
  17.2657585  66.0794115  13.0122089  17.2969115  66.9175005  12.5508344
  17.8919291  65.5257702  12.5457060  76.6721725  92.1178532  90.7513046
  77.2871780  91.3862228  90.6991100  75.9230137  91.8390274  90.2247620
   3.7936756  92.7936554  81.9502831   3.0174115  92.9094696  82.4982262
   4.1327634  93.6799622  81.8249416  11.8407357  71.8586493  19.7802103
  12.5144815  72.5363636  19.8350108  12.1761262  71.2393522  19.1319692
  86.8771076  25.2549314  75.7561588  87.5389290  25.8776832  76.0568380
  87.0533276  24.4580388  76.2562990 113.3156872  68.4731007  16.1648202
 112.3789978  68.3114624  16.0520411 113.3595848  69.2874050  16.6660273
  41.3674402  36.5915537   7.6477909  40.4968500  36.9242764   7.4296105
  41.6972160  36.2268519   6.8265283  97.7289295 108.7850571  77.2544718
  97.3303699 107.9224300  77.3695850  97.3168087 109.1358852  76.4649725
  82.8944111  36.9812512  92.6442432  82.7518749  37.7472472  92.0882225
  82.6881218  36.2350059  92.0814037  98.9803791  53.9279604  93.5571289
  99.8272610  53.4860420  93.4960365  98.5560703  53.7496614  92.7178383
  74.7753763   1.3371235  63.1201220  74.1065598   1.7788771  63.6433506
  74.3508577   1.1727246  62.2781086 103.4563732  27.0335674  89.6209431
 103.5602951  27.6893330  88.9314556 104.0472317  27.3218274  90.3166676
   7.1510589  74.9884653  28.4214211   6.2268662  75.1355696  28.6225724
   7.4629050  75.8331823  28.0967164  14.4777632 107.7164364  18.1191313
  14.0110433 107.2381687  18.8044548  15.1314545 107.0959473  17.7967668
  15.9301972  69.9621534  30.6146955  15.4063773  70.6317711  31.0545278
  16.8159485  70.0894737  30.9544945  27.8091192 106.7402744  35.4092550
  27.4207950 105.9005642  35.6548810  28.3216405 106.5466785  34.6243477
  36.6450167  61.5656900  23.2692766  36.6594815  61.3391399  24.1991663
  36.1796427  60.8400726  22.8531837  47.0817184 103.8375473   0.1447330
  46.2859392 104.1785336   0.5530208  47.5594139 103.4210777   0.8620858
  58.5646152  96.0059261  33.3986807  57.6200533  96.1407948  33.4751678
  58.7875175  96.3562679  32.5362396  21.9985986  83.3549976  12.0572793
  22.4163413  84.1802311  12.3036885  21.0982752  83.4392071  12.3712182
  39.4125271  79.4289684   0.6093876  40.2609253  79.1396284   0.9451446
  38.8630962  78.6457586   0.6399509  30.2332735  10.6387794  75.6877470
  29.6404934  10.9847903  76.3549232  29.9073339   9.7560424  75.5123281
  81.2108231  44.5603514  88.6669159  80.7433319  45.3866529  88.5447884
  80.6123638  43.8943100  88.3285904   8.0457056  86.0298443  11.5274441
   8.7713629  86.5591145  11.1964989   7.7955186  85.4768753  10.7872653
 103.5027695  17.5437939  92.8295517 102.6686573  17.0768726  92.7798271
 103.7808228  17.4411619  93.7397003  39.3278599  65.9432602  11.6202509
  40.1674604  65.4836226  11.6139698  38.9914513  65.8397055  10.7301176
 110.6762600  94.2399979  14.6907437 111.3104534  94.9239349  14.4756925
 111.2075424  93.4561920  14.8308289  91.6836166  61.6082096  28.7259865
  91.3434792  62.4990511  28.8092446  91.2152290  61.1094570  29.3953800
 113.2504082  71.1336613  44.5024633 113.4177017  71.1125755  45.4446936
 113.0779552  72.0553970  44.3103886  24.4930291  71.4737177  17.3049080
  24.0571046  70.6219721  17.3320174  24.4849086  71.7175770  16.3793278
 104.6501064  95.0520325   1.7466176 105.4707909  94.7097397   1.3922796
 104.9123859  95.8103180   2.2685778  22.7274513  96.2783337  13.9367235
  22.2078013  96.4609432  14.7195709  23.6087275  96.5787983  14.1587663
  41.2414980  59.4958162   8.8542014  40.7913208  59.3508720   9.6864039
  40.9096718  60.3391409   8.5460943  38.6823606  84.6596527   0.1225719
  39.6090460  84.8230934  -0.0528524  38.6259627  83.7125301   0.2490792
  19.0323389  85.7081699   9.7832644  19.0321732  84.9153709  10.3196490
  19.7905898  86.2050533  10.0904953 100.5102634  53.8750696  80.9987545
  99.7510910  54.0844202  80.4546261 100.3348923  52.9925060  81.3251972
  48.0716801  29.5693207  14.4724274  48.8719177  29.1776061  14.8223042
  47.3958826  28.9083338  14.6228278  37.1878457  64.7460985   0.6948185
  37.1262336  65.6096649   0.2865359  38.0236053  64.7607517   1.1612097
  19.8129082 104.0716171  31.1313486  19.9396157 103.1267929  31.0448313
  19.8225820 104.3979645  30.2315497  13.8967383  77.6449108  22.9836559
  13.6284566  77.2020054  23.7886977  14.0091038  76.9384432  22.3476481
  92.4259949  46.1667204  37.3225927  91.9595432  46.8195200  37.8446102
  91.8112564  45.9321976  36.6273785  34.4649768  60.7742596  28.1815982
  34.8993945  61.2632179  27.4827218  33.6733341  61.2782240  28.3701515
  97.6414013  33.8891649  76.9252110  97.1863365  34.6350217  76.5342569
  98.0109310  34.2334485  77.7383232 112.8682041   8.3607507  93.6614895
 112.1784019   8.9536732  93.3634281 113.4790039   8.9237666  94.1370583
 112.2084618  25.7319546  77.2236872 111.6579342  26.2469983  76.6338634
 112.6027203  26.3785934  77.8090429  14.1556990  82.1497631   9.7785616
  14.0247464  81.6863823   8.9513016  14.7471881  81.5864468  10.2776039
  70.5357647  85.8806610  79.6033192  70.6321621  85.5255222  78.7196827
  71.1431265  85.3667831  80.1355553  95.8104038  42.8390980  52.2332668
  95.4862118  43.0962133  51.3701200  95.0196362  42.6979685  52.7538490
   9.9300390  57.0012093  57.7654839   9.0026581  57.1140575  57.9739571
  10.3713536  57.6974249  58.2520580  27.7203751  58.7993908  23.4299374
  26.9408488  58.4669924  22.9848742  27.4340558  58.9556360  24.3298483
  91.8924618   3.2663921  87.7296257  92.7875519   3.4379339  87.4370289
  91.4081478   3.0836883  86.9244671   5.7845581  58.6688423  23.4662533
   6.5025723  59.2933607  23.5695243   4.9956259  59.1780663  23.6520195
  22.0057702  59.8160982  22.8998661  21.7269540  58.9140368  23.0572677
  21.7156529  60.0041771  22.0072913  43.5005569  59.3419361  19.4307303
  43.2439566  60.1436234  19.8864579  42.9915524  58.6515379  19.8555708
  33.6856937  78.6141777  18.3609593  33.5843897  79.5500374  18.1873548
  32.9996061  78.4129953  18.9973855  98.5968113   8.9775109  88.2399845
  99.4648647   8.8916707  87.8458405  98.7697315   9.2198712  89.1497040
  10.9834707  62.5514269  37.3404479  10.9328604  63.4631586  37.0533586
  10.6979311  62.0447350  36.5802097   0.0303112  18.3475673  74.6542978
   0.5194554  18.3846974  75.4762411   0.6100323  17.8820860  74.0514040
  52.1459055  32.0623541  18.2825446  53.0592012  31.8146849  18.1383896
  51.7086744  31.8566394  17.4562645   4.3953127 101.6529751  11.6830218
   4.1382200 101.4624500  12.5851512   4.2697400 100.8255959  11.2183666
  27.0539832  63.1493235   9.1337675  26.8430686  62.3862362   9.6717733
  28.0089712  63.1403875   9.0693474  32.4596167  59.4388294   1.2625919
  33.2490420  59.2330599   0.7618955  31.7382431  59.2272520   0.6700666
  20.7415485  41.3252544   2.6517570  21.2691307  41.9669819   3.1272343
  21.2160158  40.5005169   2.7562338  70.3298855  89.7914886  34.8314285
  69.6674538  90.3848171  35.1855230  69.8555422  88.9780331  34.6596146
  43.7962818  55.0249910  20.1838207  43.1698751  55.0323153  19.4600832
  43.5103226  54.3009329  20.7407713  18.9447153  61.2753487  34.0242839
  19.6035719  60.5813980  34.0482211  18.1195056  60.8287668  34.2135715
 108.0882645  77.2732735   8.8613093 108.5813332  77.7719307   9.5128167
 107.3322773  76.9345188   9.3408370  32.1360755  62.0811605   0.5945119
  32.2338748  61.1463976   0.7758576  31.1902928  62.2284698   0.5996567
  79.4933939  11.7488718  91.4477825  78.7227583  12.2680676  91.2180328
  79.1927004  11.1715472  92.1495819 105.2911854   4.7800002  74.8249817
 105.8965015   4.9005243  74.0933371 105.0266361   3.8618386  74.7682095
  18.9804900  75.1963615  25.5737662  19.0985465  75.1748848  24.6241188
  18.1814694  74.6921444  25.7272577  12.5772512  55.6679630  42.5915098
  12.9411602  54.9111176  42.1321726  12.0651555  56.1282158  41.9265604
   4.0106073  67.0695353  17.9411316   3.6591393  66.9313049  18.8206732
   4.2285943  68.0011892  17.9140007  88.0956841  22.2422171  89.6994400
  87.6380253  22.1480060  88.8640404  87.9774857  23.1624603  89.9348450
  38.5369682  92.9568672  18.6372602  37.8430963  92.3600006  18.3570409
  38.1738639  93.4042358  19.4016218  88.3574772  18.5305893  51.7297602
  87.9377556  18.5183001  52.5899410  88.9811611  19.2551136  51.7779064
   1.7068094  13.6626554  85.8237362   1.3841534  13.0899704  86.5195560
   1.2759507  14.5019996  85.9852791  86.2147045  18.0114043  78.4444237
  85.6778908  17.3660719  78.9044237  86.0400867  17.8508973  77.5170755
   2.9760942 106.5857697  12.5194418   3.3582669 106.8875980  11.6953802
   2.6301071 107.3793316  12.9278433  37.9263663  58.8486528   3.6688507
  37.6888752  59.3172932   2.8687227  37.0892334  58.6568928   4.0915397
  24.2020035  78.6138153   1.5626064  24.1121340  79.4794512   1.9611374
  25.1358151  78.4147215   1.6303630   6.5190709  78.3835602  39.5871425
   6.1286628  79.2573357  39.5689797   6.1353230  77.9657459  40.3581142
  30.3590536  49.6557570  12.4059296  30.6987381  50.3554010  11.8479419
  31.1019778  49.0646410  12.5278878  96.7063427  80.2459240  12.2240102
  97.6489830  80.3920174  12.3034477  96.4510918  80.7453442  11.4483440
   8.0763710  89.7856236  40.4437208   7.3957604  89.2167950  40.8034849
   7.7568883  90.0197983  39.5723271 111.0999966  32.2627139  77.8227139
 111.4019585  33.0404520  77.3534822 110.6832027  31.7240024  77.1501827
  40.6392145  47.7929688  22.2348189  40.5385256  47.1414852  21.5408015
  40.0957203  47.4654388  22.9514623  19.8375285  86.2674236   4.5960158
  19.8951840  87.0149994   4.0010050  20.7143402  86.1929321   4.9726918
 112.5992298  92.2274494  14.4951236 113.2383442  92.2490025  13.7828767
 112.4829960  91.2964058  14.6845388 103.6219883  33.2298970  66.6009331
 102.8450108  33.3798218  66.0623598 103.3319664  33.4100723  67.4951696
  25.9764194  70.8948517  12.6251149  25.2467895  70.5942917  12.0833254
  26.5766692  70.1497698  12.6532412  21.6231036  85.9959793   0.1429739
  21.6194344  85.1555252   0.6010621  20.7388401  86.3405991   0.2676797
  66.5045118 104.1504955  26.8689895  65.8910751 103.4603882  27.1213460
  67.0487452 104.2827892  27.6452231  40.4381466  36.8512225  73.5367441
  40.0492477  37.6469207  73.1736279  39.7985196  36.5435576  74.1789675
  40.6662035 106.2912178   3.8311699  39.7242427 106.1655235   3.9458302
  41.0219240 106.2594891   4.7192505  38.7817931  87.6964283  25.3024173
  38.6853051  88.0358315  26.1922073  39.2993617  86.8978500  25.4054952
  71.9737911  61.9991207  14.0244603  71.4049387  61.3739634  13.5752225
  71.9609547  61.7197084  14.9398804  17.0291400  51.2231874  89.7391510
  17.2115278  51.8674421  90.4231739  16.3517570  51.6315079  89.2000198
  43.4525299  88.7810516   6.8726081  43.5703802  88.9099598   7.8137386
  42.5080872  88.6710453   6.7623425  51.8760204  86.3926983   4.3181813
  52.7905226  86.6647625   4.3949971  51.4855146  86.6247749   5.1607233
 112.0219898  33.2895517  91.1764431 111.4530277  32.5198317  91.1832428
 112.0691872  33.5443711  90.2549934 101.9561768  62.7669334  20.2516651
 102.8169823  62.5506115  20.6100535 102.0581341  62.6647854  19.3054092
  45.2495432  83.9622974  14.8597407  45.0817680  83.1277561  14.4219828
  44.5329857  84.5299435  14.5759213  10.3391874  23.1630087  85.4598999
  11.1014748  22.9669762  86.0046196   9.6367568  22.6279950  85.8294678
 115.2815533  90.2793407  17.5667977 115.1560402  90.0606251  18.4901822
 115.3045177  89.4325733  17.1210599  78.7132788  86.2682343  33.1013107
  79.3948317  85.6989574  33.4585667  79.1874599  86.8977451  32.5580716
  15.2855015  84.8326683  14.5772231  14.4881570  84.8488998  15.1065719
  15.9973717  84.8884773  15.2146852  10.5420637  63.5336161  12.8452730
   9.9937445  62.7681684  13.0175233  10.0212753  64.0720987  12.2494149
  17.6722956 108.2247353   5.4827362  18.6124945 108.0465031   5.5049032
  17.5020540 108.5009766   4.5822155  30.9683061  78.5258627   4.3680486
  31.2878013  79.2934370   3.8937241  31.1934233  77.7854013   3.8047767
  74.0350199 100.7217407  75.9866762  73.2142496 101.0116673  76.3848066
  73.8124037 100.5596352  75.0699472  12.6716435 106.6055965  34.0168262
  12.3233223 105.8994484  33.4725261  12.6051450 106.2730885  34.9119544
 100.2507114  25.0859571  74.9989271  99.6174622  24.7037172  74.3913794
 100.3073597  24.4534826  75.7151699  24.2418957  87.3680973   8.1780946
  23.6170626  88.0365467   8.4591472  23.6977315  86.6205025   7.9306644
  42.1222639  11.7967665  12.6824236  42.3903227  10.8790410  12.6360106
  41.9891214  12.0538330  11.7700517  10.5279243  35.1591468  13.5955930
  10.2532148  35.7082534  14.3299282  11.2643158  34.6523571  13.9378273
  23.5998416  92.2072601  11.9555008  23.4337282  93.1118584  11.6902936
  24.0398836  92.2828579  12.8021884   0.3135686  38.2861924  86.8081570
   0.8682431  37.9407215  86.1087227  -0.3293637  38.8326216  86.3561821
  99.3046188  19.8628700  86.4093494 100.0060368  20.4700041  86.1734772
  98.5082531  20.3930044  86.3777351  45.9003115  79.8087263  14.7282410
  45.2506495  80.4063416  14.3580651  45.3823137  79.1183615  15.1421297
  37.7024150  48.1048012   0.2441160  37.3143077  48.3954334   1.0694265
  37.6184607  47.1514702   0.2625625  47.4632692 103.9229393   9.3267471
  46.9352007 104.7208500   9.3534678  48.1034231 104.0357494  10.0293922
   5.9226739  10.3932309  71.1273146   5.9265411  11.0843694  71.7895412
   5.1284373  10.5540991  70.6178617   3.8287285  18.5886848  90.2465153
   3.1251341  19.2186368  90.4025555   4.6042776  19.1286695  90.0942898
  27.0603395  33.3846259  88.4819698  26.1851144  33.0802107  88.7218571
  26.9579816  34.3269491  88.3486271  18.6253846  65.7177448   0.3115851
  18.2839274  65.7034397   1.2056957  19.1811478  64.9404716   0.2549804
  28.7275672  66.0306406  13.7684596  28.5391307  66.6390181  13.0538964
  28.9163375  66.5938616  14.5190454  57.8699398  82.2525501  58.5127306
  57.7593136  82.4430180  59.4442463  57.9400969  81.2988853  58.4699345
   4.5335647  80.1531315  17.4476039   4.3599209  79.5051146  16.7648470
   3.8044655  80.0567722  18.0602717   8.1083488  32.2508788  60.6968164
   7.7332497  32.2382903  59.8162603   8.2355094  31.3278770  60.9161997
  80.7612514  37.4787092  90.6993675  80.3840446  37.0933199  89.9085331
  80.9275246  38.3917594  90.4650116 101.0323811  36.0971856  77.8742170
 100.6449413  35.2787781  78.1845856 100.3186607  36.7332458  77.9218006
 102.8120899  33.1762147  71.4591169 103.2136536  34.0298080  71.2967730
 103.4405231  32.7181363  72.0172119  54.2141724  83.1952953  16.3796020
  54.6392822  83.8400650  16.9450891  54.7393131  82.4018574  16.4840877
  14.0803957  94.6788406  37.8757191  13.2698536  94.8918152  37.4132276
  14.2712379  95.4591274  38.3962703  42.2363472  96.5989304  13.6959636
  43.1345081  96.8796444  13.5206318  42.0963049  96.8072319  14.6196675
  99.0712357  38.0238485  89.1153622  98.7555599  37.9277182  90.0138760
  98.3684063  37.6633453  88.5747147  38.0043626  71.6162634  93.6273956
  37.7539563  71.8430471  94.5229912  37.9359055  70.6621027  93.5938835
  19.9945569  17.0371282  90.1741123  20.6419778  16.4918649  89.7271538
  20.1233816  17.9116166  89.8068142  90.9133244  25.6334138  87.2111702
  90.6694126  25.2333999  88.0458736  91.5936756  26.2670207  87.4389648
  38.8600945 100.3476620  22.1906996  38.2656384 100.0709820  21.4933443
  38.4686589 101.1506367  22.5345492  19.9764252  94.1891861  44.5018768
  20.3072762  94.4491100  43.6421061  20.3574252  93.3242989  44.6536732
  22.1555471  98.1497192  23.2248545  22.9905534  97.7626514  23.4878707
  22.3458934  99.0820217  23.1209040  46.3992929 101.3884354   9.4797933
  46.8431807 102.2255993   9.6152502  45.6091404 101.6130447   8.9884245
  18.7010133  96.8163490  43.2343340  18.7749004  95.8670807  43.3327055
  19.5710731  97.1484947  43.4554768  40.1733541  88.4339428  35.7366729
  40.3772974  87.5867462  36.1327839  41.0156584  88.8864422  35.6920266
  49.7711182  90.9409809  27.8018808  50.6765938  91.2513828  27.8022408
  49.6075821  90.6783867  28.7077117  93.2765007  17.9522216  63.7348032
  92.8751755  17.7937913  62.8803587  92.5421619  18.1761491  64.3065023
  21.1982036  89.5036030  10.1072037  20.6494975  89.3011189   9.3494743
  20.9863925  90.4124260  10.3202879  42.6918507  96.1903286   9.6322638
  43.2075596  95.5970192  10.1784003  42.0276833  95.6299686   9.2308801
  59.1607237  94.9640656  12.1691298  59.2960310  95.6857300  12.7832282
  59.5676947  94.2088318  12.5936604  22.0467687  77.4124813   4.0585607
  22.7217746  77.2213554   4.7097668  22.5304055  77.7475071   3.3035219
  41.2589502   2.1487106  21.7427492  41.7915487   1.3548477  21.7912579
  41.0104752   2.3262377  22.6499295  69.8864031  73.5275936   3.8229978
  69.8163366  73.1061554   2.9664284  70.5210114  74.2321301   3.6921003
  44.5351028 105.8830833   5.6158078  44.5304298 105.7961941   6.5690446
  44.0359211 106.6819000   5.4456669   5.7483268 102.5517941   1.8458372
   5.0261271 102.1965218   2.3639458   6.3143331 101.7987919   1.6759591
 108.2569885  46.3189411  69.9230623 108.0395126  46.4035225  68.9947414
 108.7593842  47.1084690  70.1242638  40.9915304  38.0962300  35.5870986
  41.4753437  38.8904214  35.8138537  41.2637472  37.4544477  36.2430286
  52.4012184   4.5691729  20.9952378  52.8646803   4.8867756  21.7701960
  51.5280437   4.3418095  21.3147831 105.4084873  56.7085218  12.0104825
 105.6910992  56.0979605  11.3296175 104.7966576  56.2035275  12.5460923
   8.5419053  37.1639109  19.7263110   8.6469650  37.5991607  18.8802898
   8.6845517  36.2363577  19.5378172   3.2897624  76.1383724  16.1410940
   3.0893663  77.0732212  16.0949194   2.5218606  75.7491922  16.5595400
  53.9533424  93.1431580  40.3922653  54.8270941  93.5266209  40.4681015
  53.4049320  93.8585567  40.0702858  20.9387302  61.2364483  45.4240465
  21.4068580  60.4973030  45.8123112  20.4906797  61.6503525  46.1617231
  25.8542514  75.1871347  15.9021354  26.2812710  76.0431767  15.9349263
  26.3600135  74.6917057  15.2579403  24.1507244  97.3296928   3.8804516
  23.6776280  98.1475449   3.7270510  23.7513280  96.7048264   3.2752642
   6.8384683 100.2635002   4.4258362   6.7667443  99.9049759   5.3104526
   6.1210978  99.8537159   3.9424258  28.1785011 100.0930500  18.2321632
  27.2987318 100.2440834  17.8865838  28.3515215 100.8533287  18.7873888
  51.1829281  75.2808142   3.6477846  50.8193207  76.0312462   4.1177550
  50.5787754  75.1389885   2.9190066   4.6007854  69.3145514   2.0422001
   4.6064237  68.6904287   1.3164777   4.4449282  70.1629496   1.6272750
  23.0027866  38.8490391  90.5231953  22.7730966  39.0568924  89.6175003
  22.2051573  39.0305328  91.0202599 105.2369213  44.3744183  47.7887249
 104.6283531  45.0966501  47.9444885 105.3554916  44.3617249  46.8389797
  33.7082124  90.6892014  17.6386368  34.1240501  89.8737907  17.3585951
  32.7709556  90.5313206  17.5252676  29.9797940  57.6865387  24.4359183
  29.5399094  56.8383217  24.3787432  29.3712282  58.3001661  24.0244079
  12.3578310  94.7212315  25.1988697  11.7421079  95.1038551  24.5737982
  12.6574707  95.4629517  25.7245159  46.5703440  85.8023167   3.4588581
  45.8639193  86.0548592   4.0533471  46.9199181  84.9932671   3.8323003
  36.0448217  64.7660065  15.7525468  35.1579309  64.7682858  16.1126173
  36.0557008  64.0245056  15.1473272  30.4476881  73.8864803   6.2326592
  29.9917269  74.7275448   6.2020808  30.1828003  73.5006523   7.0676458
  12.2550583  89.2016888  15.8478999  12.1459007  88.2509327  15.8285856
  12.8594911  89.3880272  15.1294494   7.8277242  41.5727329  63.3109617
   7.3150647  42.3401546  63.5648870   8.6829460  41.9262552  63.0663157
  50.0330257  54.1826296  10.9754586  49.9813461  53.3758974  11.4880419
  50.9004354  54.1546869  10.5716717  21.8053174  93.0703735  31.0066104
  22.4227619  93.5061455  30.4191566  20.9426785  93.3235836  30.6780195
 111.0145855  22.8142571  70.2731705 110.2975655  23.3231211  70.6515551
 111.0202026  23.0596042  69.3479681  14.9082422  82.1248436  13.1744289
  15.5186152  81.5455818  12.7182162  15.3609133  82.9673672  13.2128227
  29.6850991 102.5152111  26.1952615  29.6994734 101.8538570  25.5034256
  30.3784633 102.2464561  26.7979622  85.5284214   5.6258887  25.5900621
  85.9448719   6.3018364  25.0553703  86.0830784   4.8542470  25.4753351
  54.0303993  70.8240318   3.1013575  53.5093021  71.5297079   3.4843907
  53.4040737  70.3171158   2.5846505  83.2592392   5.5025887  46.8648958
  83.8659382   6.2324810  46.7407608  83.0067730   5.5551124  47.7867031
  53.2439280  60.1110220   1.7851895  52.5791740  59.5586777   1.3737896
  54.0283108  59.9786091   1.2528011  27.3246622  97.3772335  16.6362047
  28.1293774  97.1906567  17.1197879  26.6629171  97.5107288  17.3148108
   3.3083436  39.3611145  86.0438728   3.9487505  39.0740561  85.3929424
   3.3877888  38.7250447  86.7547417  43.7213230  52.7754784  83.0453587
  44.0080404  52.2737408  82.2822762  43.0524445  52.2269344  83.4551525
 106.8180943  12.6866829  76.9803047 107.2501373  13.1419861  77.7029896
 106.5127754  13.3874154  76.4041233 109.5242405  45.5024719  85.3605175
 109.5013809  44.7884274  85.9975719 108.7426853  46.0204458  85.5531597
 105.8908653  19.0822232  69.7095871 106.0949516  18.7164462  68.8488960
 106.0355949  20.0232029  69.6103764  11.9473338  41.8909216  86.5293121
  12.2593307  42.2813368  87.3456860  11.8254232  42.6347685  85.9393501
  15.4516208  54.2634821  86.6013241  15.0171185  54.3123579  85.7498264
  16.3100910  54.6609020  86.4553261  57.1370173  83.5293770  14.8442471
  57.7890730  83.0084133  15.3129077  57.4980354  84.4158649  14.8381960
  67.8576279   5.2767342   5.4046977  68.6420822   4.7440845   5.2737755
  67.1799326   4.6480280   5.6530762  34.1823411  88.9618301  23.5923433
  33.8783216  89.4675446  24.3460417  34.5280266  88.1531525  23.9702010
  56.5795946  56.2208557   7.2751307  56.4757872  57.1709013   7.2215897
  57.1905708  56.0871363   7.9997408  86.2416935  21.8173003  45.6437302
  86.9783020  22.1597099  46.1500788  85.6321239  21.4847803  46.3025904
  87.7108860  17.6988685  94.7376823  87.4897099  16.9191706  94.2283916
  88.2587242  18.2205713  94.1512203  75.1678753  26.9467092  50.3150702
  75.4110098  27.5197363  49.5879126  75.4118490  27.4382997  51.0993195
 104.0688419   1.6980575  27.6431608 104.8452091   1.4769734  27.1287656
 103.8666439   2.6003847  27.3958659  24.2745447  88.5596657  13.5422504
  23.8017416  89.2701340  13.9757597  25.1228976  88.5315800  13.9846766
  45.0265312  70.7326412  12.2791564  45.2410603  71.0763788  13.1463671
  45.0870180  71.4915848  11.6990042  50.5548477  97.6834488  25.0304961
  49.7722530  97.2310638  24.7156501  51.1002064  97.7892971  24.2510033
  16.3542426  88.8501930  29.5487142  15.9973848  89.7315311  29.4386435
  15.6846678  88.2730865  29.1814852   3.0156994 107.2029686  62.1474934
   3.4793675 108.0390072  62.1953630   2.6354134 107.1899414  61.2691736
  30.3988934 104.5591640  11.1854482  30.6907678 103.9602566  10.4981768
  30.8902860 104.2906094  11.9617486  17.7637255  82.1065712  14.6056581
  17.1436691  81.6641712  15.1853514  18.4838092  81.4839745  14.5052505
  13.7673426  99.5575905  84.6336937  13.9020443 100.0150013  83.8037109
  14.4515109  99.8993683  85.2093124  87.8209877  30.1690698  90.8676147
  87.8963280  30.8978271  91.4836216  86.9176865  29.8671293  90.9631348
   6.5671462   9.6933341  92.9954147   6.1205435   9.4137162  93.7945271
   6.9854516   8.8986230  92.6642227 114.8376179  25.3098822  73.4197140
 114.5180511  24.4941258  73.0341578 115.7634068  25.3421903  73.1786442
  44.1029596  97.9767513   1.7350163  43.6162472  98.5453033   2.3317480
  43.8392258  98.2649136   0.8611533  94.5535660  36.0094786  84.0346336
  94.1482639  36.8735123  84.1081810  93.9454174  35.4208136  84.4816875
  26.1795092  12.2005820  77.4762821  26.8848634  12.7998471  77.2321796
  25.5742574  12.7383840  77.9868412  42.0271730  56.8574190   8.9442760
  42.4384117  56.8737173   8.0800724  41.4621305  57.6299715   8.9552534
  18.7869799  44.5036030  -0.0411294  18.2868540  43.6876678  -0.0222377
  19.5534301  44.3274212   0.5045320  98.2643318  23.0886841  60.8616018
  98.8414097  22.9262733  61.6078186  98.0716324  24.0251756  60.9072208
  71.3993454   2.8815493  29.3736982  70.5858183   2.5679383  29.7687292
  71.9334650   2.0942539  29.2682815 110.6185150  16.7847908  56.1585712
 110.2987385  15.8828342  56.1797380 110.2216244  17.1976876  56.9255257
  89.5343018  10.4745996  40.4875231  90.1585102   9.7533071  40.4079342
  90.0609589  11.2149930  40.7886505  56.9428635  96.5687656  14.1579306
  57.7789831  96.7233849  14.5975125  56.6794109  95.6944656  14.4450247
 113.8071728  44.5084047  60.4259872 114.6159172  44.4008303  60.9265757
 113.7735462  45.4432869  60.2232456   8.9364177  65.9506369  50.5456114
   8.6513895  66.2992525  51.3902807   8.4391761  65.1394129  50.4412127
  10.6568885  49.8266506  90.7101440   9.8809612  50.3816414  90.6317139
  10.4411387  49.2108965  91.4105225  53.9368916  85.5755806  21.2563658
  53.7418747  86.1837006  20.5433488  53.0866575  85.2069569  21.4960551
  54.3597698 106.7691231   1.6809708  54.6967745 106.3393021   2.4670443
  54.2214108 106.0553741   1.0583588  76.1726809   6.8014091   6.0825950
  75.6753969   7.6164836   6.0147947  77.0051718   7.0608830   6.4773864
  50.4689741  94.4650555  40.5050755  50.1730347  94.3379688  39.6036863
  50.5356503  93.5795498  40.8623695  27.2335386 102.9290009  71.2820196
  27.3522568 103.4910774  70.5163765  26.9430566 102.0912552  70.9214115
  58.3877563  92.5191021  35.6583524  58.8449860  92.4821377  36.4984775
  58.8341522  91.8705463  35.1139832  16.1949670  48.5247278  91.4724159
  16.9489574  49.0942526  91.6252899  16.5283597  47.6402617  91.6234398
  32.8917742  86.5160179   8.9467394  32.2167635  86.3719749   8.2835317
  33.6188483  86.9120693   8.4663939 101.3218307  49.1217375  84.2495060
 100.4140568  49.0596724  83.9522934 101.2702179  49.5955896  85.0795841
  36.1647511  56.4750051  10.6622219  36.5785027  57.2626972  10.3092539
  36.6822791  56.2598133  11.4381647  30.3188682 102.8478146  22.1314764
  31.1482573 102.5834370  21.7334175  30.3789806 103.8006878  22.1997976
  55.6655073  92.5162601  45.7374763  55.0503540  92.7267170  46.4399910
  55.1269913  92.1005440  45.0641203 108.8482285  58.7345219  85.6901169
 109.2975235  57.9399490  85.9782600 108.3610058  59.0268898  86.4604187
  26.1846781  49.6785069  88.8347530  26.4029241  49.0912771  89.5584679
  25.4719257  49.2360115  88.3738613 111.5860271  22.1876884  83.8978863
 111.5625381  23.1047440  84.1711712 110.9266567  21.7583585  84.4429779
  99.6985626  43.1440592  77.4635267  99.0221691  43.5880899  76.9520950
 100.4333973  43.7573767  77.4724245  39.8677301  98.8452911  44.3272734
  39.2579770  98.8631535  45.0649118  39.7346616  97.9859066  43.9272881
  10.3207231  53.3808184  74.7766924  10.9413612  52.7972841  74.3401909
   9.6220297  52.8021765  75.0820303  70.8563137 101.6541100  81.8075371
  70.1248646 101.1140633  81.5082645  70.8863926 101.5134621  82.7538681
  32.2663236  70.8147764   8.4972233  32.9330158  70.4691887   9.0907919
  32.5755835  70.5745888   7.6237822 101.2123013  20.0165677  77.5201654
 101.9279480  19.6293890  78.0243301 100.4215145  19.6131170  77.8780937
 108.2614994  59.1430187  78.4913397 108.6107635  59.3239641  79.3639803
 108.2593441  58.1879520  78.4275198 111.9923496  16.9240177  22.0271134
 112.8241539  17.2077000  21.6478419 112.1728897  16.0503900  22.3741150
  26.9582629  67.1129704  24.6661592  26.8205285  67.0545149  23.7207246
  27.8478742  67.4541378  24.7579551  11.2052643  47.9066610  67.7572489
  10.9485948  47.0086718  67.5475693  11.4054620  47.8862333  68.6930561
  75.2920818   4.9250144  46.1883402  75.2995491   5.7425082  45.6904650
  76.2069607   4.7848785  46.4324474  42.9646873  96.6974068  16.2697124
  43.8771439  96.5956593  15.9989667  42.9337168  96.3263798  17.1515369
  19.1548836 102.2186184  27.6937866  19.5754290 103.0636883  27.5349474
  18.5644805 102.3794937  28.4298420  36.7747974 104.4069099  36.3304591
  36.6020274 105.2619267  35.9363413  36.2505341 103.7947941  35.8140349
   1.9826637  28.0523109  61.0064650   2.0821422  28.5864305  61.7945337
   1.0871011  27.7179146  61.0552359  25.3695989  42.1027994  92.6560211
  25.8707118  41.9188166  91.8614960  24.9575496  41.2678385  92.8780365
   8.9070845  81.4432144   2.2708398   9.3475455  81.9191360   2.9749218
   8.1048429  81.1096573   2.6725569 114.3782043   4.9804184  33.4082079
 115.0460529   5.4645324  32.9225755 114.4071102   4.0974221  33.0398154
  10.6869411 104.0701294  39.2819953  10.5398035 104.2089748  40.2175713
  11.0293615 104.9065208  38.9666748  15.2037358  40.5041695  86.9464016
  14.8150301  39.6675301  86.6911125  16.1256063  40.4246759  86.7013168
 102.6752090  43.8576651  78.0791903 101.9560242  44.3464518  78.4793091
 103.2315826  43.6043262  78.8157320  35.7067275  99.7363663   0.5797946
  35.5634356 100.3794289  -0.1145950  36.6587782  99.6802711   0.6615426
  29.2797828  30.1282859  91.4017200  29.6434522  29.6950412  90.6295300
  28.4184098  29.7273254  91.5179062  98.0286026  17.8137863   5.4196805
  98.2861233  18.0667925   4.5331711  97.7757454  18.6360097   5.8394986
  49.7446442  95.1739216  78.1003094  50.5605602  95.3948307  78.5494328
  49.4920206  95.9809494  77.6518440  16.0194457  98.1577492  11.4526761
  15.1472855  98.4176350  11.7493784  16.6157579  98.5455227  12.0932055
  98.6787796  77.3595715  86.9458580  98.6558819  78.1694460  86.4361382
  97.8827095  77.3880196  87.4765968  70.8924198  98.3064461  42.2532701
  70.8698177  97.8046703  41.4384413  71.6857433  98.0067539  42.6971769
 107.7708149   1.8414050  81.8927860 107.1127224   1.7855963  82.5856304
 107.5049019   2.5980198  81.3702488   8.7662148  36.0424829  46.7400265
   8.7835455  35.1731038  46.3398886   7.8359294  36.2302828  46.8646574
 109.0499592  43.2120943  87.3149586 109.2414379  42.3544502  86.9354725
 108.8573265  43.0294704  88.2346153  57.9298210  91.0390186  28.9993858
  58.1555319  91.9198132  28.7002659  56.9778585  91.0561371  29.0979075
  80.0248051  15.9351015   9.7377509  80.0927258  15.1245677  10.2423823
  80.8617306  16.3770926   9.8807132  55.9960175 101.4675617  32.0162845
  56.7846537 101.9830799  32.1851921  55.7978773 101.6282368  31.0937047
  26.2948465  78.2100773  19.5392668  25.9041619  78.8147211  20.1701427
  25.5764699  77.6299715  19.2869818  30.7918072  74.3930006  16.1493945
  30.6033635  74.9766588  16.8842864  31.3127208  73.6868668  16.5318215
  28.5346603  90.9699821  24.5222902  28.7102008  91.3432121  25.3860712
  29.1928077  91.3667965  23.9516664  -0.0933058  88.3381367  69.1928482
   0.0534652  89.2791271  69.0968180   0.4935372  87.9375172  68.5514784
  27.1111679 109.1347313  34.8654938  26.8617344 109.2174625  33.9450741
  27.5405550 108.2810783  34.9214840 109.1796207  87.2259617  91.6986084
 109.4073677  87.8985977  92.3404312 109.9100494  86.6081238  91.7297173
  63.2832956  93.9327240  44.9557877  64.1854525  93.8932991  44.6383142
  63.3289099  94.4803429  45.7395458  32.2044873  91.6644287  13.9689362
  31.7917180  91.4406204  14.8030591  31.7751169  91.0964394  13.3292043
  13.8530421  59.3203974  88.2601547  13.2487500  59.4215012  88.9955711
  14.1496456  58.4120846  88.3170033 109.6208191  21.8663239  21.8809342
 109.5049667  22.0312309  20.9451914 110.0796032  21.0272026  21.9212627
  96.2426472  24.0542293  76.4107084  95.6616020  23.7249160  77.0964050
  95.6986427  24.0706968  75.6232929  85.9780979   3.6357972  12.3374081
  86.1656189   3.0507964  13.0714667  85.0428677   3.5185874  12.1705949
  18.3506954  16.0166228  61.9465876  17.7513540  16.6048157  62.4059868
  17.8068948  15.5898905  61.2844610   3.7635639  73.4661722  91.0754871
   3.7469795  74.2369795  90.5082035   4.5444956  72.9846525  90.8025169
  55.8808851  44.5350933  18.5451901  56.3855124  45.2073002  18.0872357
  56.5355158  43.8990831  18.8335991 101.9351292   5.9436345  18.7319207
 102.5245380   5.5575955  18.0840015 101.2407494   6.3490164  18.2125568
 114.7339535  32.3389983  52.3211813 115.0620747  33.1448412  52.7201605
 114.3992329  32.6134825  51.4674520  14.9631572  73.3398247  19.7205210
  15.3979456  72.4870682  19.7197115  15.2815342  73.7717533  18.9278638
 105.3918266  57.3650312  73.9520741 104.4578743  57.4047089  73.7461662
 105.7614708  56.7938423  73.2787752  24.8877335  54.3572187  57.6291370
  24.8102331  54.8878670  58.4220028  24.3101144  54.7851563  56.9971085
  18.7271631  99.3217659   9.0395582  18.3596492  99.6925259   8.2372457
  19.1211116 100.0688171   9.4900692  88.8528919  84.7537804  10.1362717
  88.1317520  84.1453266   9.9750966  89.4046116  84.6830177   9.3572778
  92.2471333  21.7185807  17.1312118  92.9355621  21.8019128  17.7910340
  91.7365551  20.9593058  17.4123585  27.4566412  33.6830068  72.1702242
  26.9269133  34.3313360  71.7062330  28.1115580  34.2001152  72.6391745
  97.4325752  86.9718933  80.0267315  97.7896881  87.7285004  80.4917526
  97.1937084  87.3116684  79.1643333  70.2813435  21.7288566  24.5878959
  69.7173405  22.1649933  23.9492106  69.7411442  21.6570067  25.3748226
  24.8681641  84.4675446  26.6037297  24.7222590  83.9821720  27.4157381
  25.1996565  85.3187370  26.8897533  50.8529806 106.9021702  10.7449198
  51.0753584 106.1131763  11.2391639  50.9754944 106.6533756   9.8287737
  21.7291284  71.1911297  21.1759377  22.3414040  70.4630375  21.2819147
  22.2489214  71.8837595  20.7681274 112.0693588   2.3070845  10.9283638
 111.7962551   2.9362515  10.2606833 112.5817204   2.8244531  11.5496862
 111.1563015  76.5125751  93.3444977 111.0778427  77.0348978  94.1427898
 112.0292759  76.1235714  93.3976269  68.4779024  99.5956707  54.9708843
  68.8609695  99.2234135  54.1765833  69.1287804 100.2269745  55.2775431
  57.0256853 108.2825947  10.9369600  56.8842793 107.7286625  11.7046833
  56.3922405 108.9935303  11.0346234 115.8178299  53.7716246   2.7565429
 116.5590467  53.7642670   2.1509232 115.1482002  54.2890787   2.3092535
  37.0848894  61.0741377  25.8759809  38.0027008  60.8296490  25.7573462
  37.1139479  61.8477821  26.4388919  24.0120649  41.1599684  13.8460755
  24.3095589  41.5655470  13.0316830  23.3793163  41.7815161  14.2059875
   5.5684453  15.6180930  65.1387262   5.4793268  14.6844411  65.3299952
   4.7430366  16.0028279  65.4335356  26.7109990  90.8248425  15.9751868
  25.8387899  91.0084057  16.3241637  27.0211911  91.6696453  15.6491220
  14.1715264  50.2240896   3.5665485  14.1616166  50.4350996   2.6329494
  13.3677328  50.6150675   3.9090165  50.6931734  39.2172503   6.6645014
  50.5377769  39.9064255   6.0186523  50.1610947  39.4712663   7.4185562
  66.4577198  17.2925568  92.9209805  66.4007092  18.1049061  92.4179173
  65.5924368  16.8934453  92.8302765  17.1487617  30.0319314  62.5645733
  16.2827647  30.3168893  62.8562593  17.3925900  29.3395567  63.1788969
  87.2477531   5.4283804  90.7764053  87.9040241   6.1112469  90.9150791
  87.7484989   4.6126270  90.7703876  25.5333543  53.0583763   7.7347696
  25.4662347  52.1037722   7.7133423  24.9336696  53.3560610   7.0506686
 103.1519032  88.3533573  71.9192600 102.2854042  88.5719109  72.2622538
 103.1544685  87.3976326  71.8663168  14.1863370  97.1887398   5.9003919
  14.7534001  96.4212132   5.9750026  13.7724543  97.0982170   5.0420564
  18.0994749 100.1697826  25.8582807  17.9439425  99.3730927  26.3655472
  18.3423090 100.8260155  26.5114403  42.9797554  81.6648388  79.7816563
  42.3104715  80.9883213  79.8846340  43.8090658  81.2006474  79.8957014
  74.4826031  57.5059891  28.3727074  74.9234724  57.3945904  27.5304151
  74.3490171  58.4506607  28.4500360  25.5473995   7.9257631  72.5482512
  25.6141400   8.8457954  72.8038263  25.3439927   7.4651891  73.3623314
  45.7970333  59.9746466  17.9870367  45.2042150  59.3327427  18.3778834
  45.7870340  59.7715187  17.0516908   7.1175569  30.9797764  88.2361698
   7.8744477  30.9518695  87.6508713   6.7872000  30.0814199  88.2434940
  32.9363990  66.7900801  10.4956460  32.5233889  65.9397316  10.6458521
  33.8651061  66.6397905  10.6721377  77.6063156 101.8908787  85.8970070
  78.2443714 101.8062782  85.1885223  78.0472803 101.5211010  86.6618919
  57.1088314  58.6836863  10.7927728  56.8675661  58.4643936  11.6927361
  58.0437613  58.4852266  10.7403123  63.1549740  52.8648043  11.3373625
  63.3865070  52.1375227  11.9150186  63.7824392  52.8074598  10.6167841
  68.9225197  96.4334679  44.8701859  68.4418964  97.1489143  44.4538021
  69.5739508  96.8700790  45.4190397  32.0979786  45.6148529  10.4302776
  31.2340260  45.2634048  10.6454515  32.2637010  46.2730312  11.1052346
  84.5084953  24.8399496  86.0124302  84.6029186  24.9446201  86.9591904
  83.6241245  25.1538348  85.8237743  22.5443673  87.3471832  16.7114544
  22.0169187  86.9299126  17.3925674  23.2221746  86.7034817  16.5053952
  39.0001464  68.6940765   9.8226655  38.5730100  69.5286989  10.0155222
  39.6312046  68.5782099  10.5329978  29.9686003  58.3709669  20.4868960
  29.1763639  58.8457060  20.7383251  29.6988368  57.8315115  19.7436273
  36.5008497  59.2153168   9.7828376  36.2806511  60.0011396  10.2830625
  36.4747000  59.4981194   8.8687426  81.0931492  11.3658023  79.1416979
  81.6504288  10.8564198  79.7300911  81.3600254  11.0936296  78.2636738
  11.7485440  33.4123445  75.0247908  11.9933605  32.6386237  74.5171928
  12.4943399  33.5637355  75.6053925  45.7346964  31.5891886  28.7880802
  45.1626444  31.5173793  29.5521688  45.6827068  30.7304668  28.3684087
  26.3698792  11.0021806  81.3407612  26.1131787  10.3514051  80.6874466
  25.7112026  11.6923463  81.2630081 112.6146793  36.7691731  49.5614672
 113.5270786  36.9438243  49.7922516 112.1651363  36.6928363  50.4030800
  18.8047957   8.5255533  50.8103228  19.6811295   8.8501924  51.0173988
  18.3097053   9.3088472  50.5703878 113.7219906  17.3920107  76.4882231
 114.3014526  17.7202415  75.8006763 113.2696819  16.6502786  76.0863733
  32.7179909  29.0739083  83.0270290  31.8573713  29.4802833  83.1291580
  33.2144809  29.6951056  82.4942589  48.3393574  66.7888069   6.5035164
  48.4108686  65.9526634   6.0431004  47.4050474  66.8801451   6.6904688
  25.7202363  50.6416655   4.7032794  25.6748271  49.6874857   4.6423963
  26.4726114  50.8806705   4.1619456 109.2672729  27.4023795  82.9397392
 108.7154293  28.0738950  82.5387669 110.0259781  27.8825402  83.2714462
 111.1738396  25.3355312  88.6159611 110.8501816  25.2730489  89.5146179
 112.0154476  25.7845998  88.6951828  93.5670567   0.4714803  73.6171150
  92.8033257   0.3115743  74.1715288  93.7809181   1.3928553  73.7639523
  77.6935339  92.7051926  75.7828617  76.9593477  92.1775818  76.0972309
  77.2839689  93.4145260  75.2875566  79.6379471  88.2476902  81.9323063
  80.3929901  88.6418915  82.3690510  78.9870882  88.1437302  82.6264286
  37.6374149  62.1068954   5.0121725  38.4540987  62.5475121   4.7774124
  37.2405267  61.8748856   4.1725981  60.5866718  99.8029232  16.8552268
  60.3516579  99.0516567  16.3106251  61.4600801 100.0532341  16.5540051
   6.2380832  23.5680366  83.5667610   6.5034109  24.3337035  84.0762520
   5.7326770  23.0352259  84.1806889  90.3170490  33.1615019  87.3731422
  89.8692894  33.9987373  87.2515774  89.7269058  32.6527929  87.9291821
   8.5641176  14.0021062  84.4411469   7.9572880  13.6634743  85.0994110
   9.2437315  13.3313668  84.3743229  23.6801291  62.2267532  19.7879803
  24.0239501  61.4066553  20.1421833  22.8716207  61.9746733  19.3418825
  18.6857975  64.5615292  60.3367090  18.2173419  63.7626743  60.5788040
  19.5924580  64.2798853  60.2147484  16.5974796  63.0879164  50.8514309
  16.1750686  62.6813078  50.0948143  16.6793108  62.3792171  51.4896154
   2.3167193  11.4407325  92.8043747   2.0081863  10.5591571  92.5949383
   1.5193923  11.9680119  92.8541565  73.7515068 101.1907578  92.8063774
  74.3857574 101.5503979  92.1862030  73.5572052 100.3159237  92.4700165
  16.6602278  38.0128288  88.7021542  16.8588531  37.6097369  89.5473194
  16.9942749  38.9065814  88.7786579  89.5660877  33.2091999  83.7917709
  90.2405071  32.5836110  83.5271263  89.0815639  32.7602720  84.4845390
  84.2662525  16.4271629  45.8894968  85.1438618  16.3640249  45.5125904
  84.3991661  16.2989819  46.8287182 114.1704369  12.7551734  71.0862732
 114.4435978  12.1124256  71.7408609 113.2275772  12.8492546  71.2218761
  67.2954607 100.2173424   4.3034762  66.8622494 101.0406780   4.5286086
  67.7298212 100.3955269   3.4693232  71.7628336 105.5217171  63.3042812
  72.3877621 104.9999905  62.8007936  71.8348932 106.4024639  62.9364204
  50.9126902  60.8842134  28.2668090  50.0741339  61.3227558  28.1228423
  51.5355015  61.5977812  28.4052324  71.1294127 106.7180634  71.4544678
  71.0516644 106.2162399  72.2658634  70.6144571 106.2236691  70.8168030
  32.6479530  49.8772097  24.6657538  32.1249652  49.0757418  24.6465731
  32.5213647  50.2665710  23.8005352  16.3890994  52.3112822  17.7932155
  16.4694333  53.2523727  17.6378667  15.5980313  52.0567799  17.3181665
  96.9983578  21.5412569  85.5494881  96.1044788  21.8191171  85.7495022
  97.5502300  22.2430563  85.8946705  51.6243124  55.2051115   0.9565550
  51.7279196  56.1566782   0.9603289  50.6771135  55.0673485   0.9483013
  42.1441746  63.9594746  19.8849106  41.4383554  64.4769049  20.2726197
  42.8702068  64.5763206  19.7920859  83.5237789  89.5448208  67.8833961
  83.4281349  90.2495956  67.2427845  83.2898521  89.9477959  68.7195349
  59.7094107 105.8222198  64.6110392  59.0697384 106.4752483  64.3271399
  59.2699862 104.9824619  64.4770575  53.5368013 103.0749130  82.8783989
  53.1915951 102.9568481  83.7633419  54.1448689 103.8102150  82.9546261
  16.8056321  17.8041387  76.7802763  17.2548270  18.2007635  77.5266981
  16.1115885  18.4256363  76.5605593 101.6490364  38.7223148  85.8217621
 102.4153042  38.8371253  85.2597332 100.9689045  38.3918285  85.2348804
  15.0159967   7.7256024  52.7952671  15.5802441   7.8828537  53.5523176
  14.1397655   7.9673278  53.0952978  85.6393147  86.2532330   6.0525429
  85.3192997  86.8141937   5.3460366  86.1831188  86.8302059   6.5888381
  61.7604494   7.9844666  90.2413082  62.6202106   7.6528805  89.9822807
  61.1729288   7.2364748  90.1338100  29.5665288 103.0291748   5.1937205
  29.1534257 103.3249092   6.0049629  29.4868827 103.7747574   4.5987517
  59.4452810  42.7538013   2.8112450  59.8553705  42.7718258   1.9465287
  58.6685133  43.3055639   2.7194920 100.5630302  36.4745522  72.1337557
 101.4587307  36.7602110  72.3136139 100.0366306  36.8940258  72.8143263
 107.1816730  73.6377764  93.6669159 106.6427135  73.9447069  92.9378414
 107.6057339  74.4283390  94.0007019  77.5113535  19.8831534  80.6110001
  77.2052670  20.7560682  80.8570862  76.7952013  19.2990780  80.8604336
 101.2330341  92.2110176  74.3229151 100.3641605  92.0656872  74.6973133
 101.6944599  91.3837051  74.4602823  32.5812626  36.5488410  12.9147673
  32.2099996  37.0824122  13.6174035  32.4810576  35.6472325  13.2202017
  89.5486069 107.3869228  80.1765537  90.1771736 107.3182392  80.8951759
  89.7703838 108.2106018  79.7422695  48.6375237 105.5552006  65.9336138
  49.3721104 105.2456665  66.4635181  48.6486149 104.9943829  65.1579952
  32.0217252  72.7227783  26.4883614  32.4726915  73.5655355  26.4371753
  31.1007810  72.9342604  26.3354802  47.0713615 101.0003090  90.1145267
  46.3987398 100.3922272  89.8078537  46.6042805 101.6012383  90.6949997
  70.1557827  89.1279125  13.5828197  70.8429003  88.7326527  13.0462825
  70.3613901  88.8526344  14.4762266  11.2850118  92.6014709  14.2616713
  11.0286331  91.7379856  13.9377916  10.9548628  93.2121754  13.6026812
  52.6936245  87.9299164  16.1606419  52.7024651  88.3275604  17.0312941
  53.4301949  88.3365059  15.7041478  18.7022364  22.0720124  65.6109095
  19.6088064  21.8902946  65.8585835  18.3260036  22.5027800  66.3784552
  54.6925640   3.3624566  90.2705002  55.0088453   4.1620845  90.6909657
  55.1391029   2.6547500  90.7352448  11.5674102  25.1514840  91.0603046
  10.9509468  24.6855617  91.6252136  11.9954205  25.7809234  91.6406918
  98.8804531  21.4416981  80.3172970  98.4519386  20.5865955  80.3548527
  98.9405823  21.6386175  79.3825054  49.3244696  20.2863646   6.6590047
  50.2770662  20.2532649   6.5712500  49.1297197  19.6903765   7.3822629
  74.9570560   5.0227720  12.2031295  75.6842375   4.5253259  12.5772715
  75.0204468   4.8675162  11.2607348 109.2236042  28.6935949  50.5859756
 108.8257790  28.0779791  51.2016010 108.5097599  28.9384747  49.9971628
  14.8209846  18.6418784  83.3891010  15.7176840  18.8630664  83.6405659
  14.7046471  19.0515947  82.5318718   9.8656410  27.7435374  87.5028229
   9.8472971  26.9428825  86.9785595  10.6647241  27.6699042  88.0246162
  54.0452766  72.4374628  14.7360373  53.6530972  73.1052732  14.1734934
  54.8097229  72.8667116  15.1202226   9.2028725  38.2475996  37.0952201
   9.3438506  38.9327669  37.7485991   8.3826697  38.4910583  36.6660047
  18.0762577  87.4102306  16.3645077  18.7178731  88.0209923  16.0018349
  18.5279453  86.5663624  16.3746262  30.1271963  15.6328940  76.3463783
  30.1060820  15.3040361  77.2450686  29.6219420  14.9927878  75.8451653
  18.5471785 101.9124222   1.5372375  18.3927286 101.4951324   0.6897411
  19.0086961 101.2490654   2.0502627 105.4151058  23.0931020  76.0751677
 105.3563881  23.9137101  76.5644360 105.3957748  23.3602476  75.1562071
  94.9805069   5.8122408  66.4981699  94.1101646   5.4175979  66.5529776
  95.2726078   5.8752698  67.4075270  27.9842424 102.6136971   9.5937347
  27.4861526 103.4238625   9.7022927  27.9887533 102.2167778  10.4647470
  24.9486470  37.1624064  87.4807644  24.4849348  36.3402367  87.3218918
  25.8618331  36.9026589  87.6026440  93.7550640   9.3075335  12.0299888
  93.9768887   9.2709786  12.9604125  94.2195988   8.5651082  11.6436648
   0.6462773  30.2155805  80.9106922   0.5520661  30.3761959  79.9717760
   0.0266931  30.8193612  81.3203144  47.0513773  57.0442486  15.3467536
  46.5113831  56.2739325  15.1699650  47.6468182  57.0960522  14.5990920
  94.5348358  11.5937686  74.9039221  94.0848351  12.0561850  74.1968822
  94.0194321  10.7980251  75.0357771  44.6150303  65.8296633   1.9486751
  43.8916588  66.0351896   1.3564587  44.8617983  66.6734886   2.3272249
  80.8742046   4.4172934   6.4043713  81.3359928   3.9862657   5.6852043
  80.8267784   5.3365415   6.1417592  12.1291685   9.9031979  76.1500931
  12.8952134  10.2958894  75.7315207  12.3367369   9.9104381  77.0844889
  43.0227232  75.0244284  16.2669861  42.2773886  75.2637625  16.8178284
  43.4260082  75.8604574  16.0332131   8.6842924   1.7083983  93.8819504
   8.9334279   1.7340836  94.8058033   7.8600526   2.1934868  93.8425827
  92.0420933  17.5893664   7.2911829  92.4645901  17.0243168   6.6443092
  91.9332027  17.0317650   8.0615431  34.9046230  92.4897289  11.6389477
  34.3372488  92.4903679  10.8680272  35.0426936  91.5628338  11.8339539
  94.3036175  94.8203278  90.4229259  94.1417122  95.5605602  89.8380470
  95.2147293  94.9261475  90.6966114  99.5419884 103.3924389  60.8653831
 100.1527500 102.7895927  61.2893963  99.6591663 104.2198086  61.3322353
  43.7494898  54.5079708  28.1082439  44.4105911  53.8729143  27.8327775
  42.9231977  54.1491747  27.7846098  49.5014572  83.5445976  10.9202027
  50.1277828  82.9784393  11.3712204  49.5576382  84.3805027  11.3831687
  32.3803949   0.7653483  80.0978565  32.4276447   1.3041241  79.3080997
  31.4875245   0.8897835  80.4196167  15.3602064  71.6068506   6.0444474
  14.6830618  71.3593292   5.4148126  15.5912483  72.5049019   5.8070487
  92.4817371  18.3717489   2.6153770  91.8081570  18.3262753   1.9368109
  92.1231079  18.9720702   3.2690045  69.0242529  87.8073311  21.9772029
  68.0897141  87.6629925  21.8287826  69.2114639  87.3440552  22.7936316
  25.6496525  30.7776380  68.1611967  25.9536600  30.6301093  67.2656250
  26.2817335  31.3945627  68.5301256  63.5625505  82.6988983  25.9114814
  62.9013777  82.3638725  25.3058100  63.3341789  83.6209583  26.0292673
  10.7692373  15.1393664  93.9459896  11.5256131  14.5716500  93.7982559
  10.9100890  15.8832610  93.3603191  47.8974342  85.1566219   1.0088588
  48.7037134  85.6649685   1.0967509  47.3621702  85.4255104   1.7554642
  24.6469951  21.9974685  87.4089146  24.7894812  22.9432654  87.4463367
  24.1378665  21.8006539  88.1952190 106.4566994  35.7282043  72.1352386
 106.9861317  36.5235424  72.1933460 106.7410851  35.1963377  72.8785229
  21.2125421  78.4202099  19.8405087  21.2761402  79.2416763  19.3532872
  20.7064629  78.6436176  20.6216645  95.4943180   4.2357934   8.7630790
  94.5956230   3.9237940   8.6570829  95.8634663   4.2071894   7.8803867
   2.0441668  19.6111274  66.7065763   1.6153903  20.4003906  67.0374060
   2.1752459  19.7827411  65.7740545  37.4745584  71.9620800   7.5082064
  38.4188223  72.0081329   7.3582900  37.3894954  71.6026592   8.3912766
  11.8768120  97.6641273   7.1780133  12.7560604  97.6545238   6.7997801
  11.9345272  97.0788097   7.9331917  36.1355472  98.2992172  15.1906931
  35.4468942  97.8487682  14.7017360  36.2274289  97.7921295  15.9973204
  37.0317841  66.7831945   3.6059338  36.2900972  66.1965895   3.4575179
  36.8168831  67.5717783   3.1077540  54.1554785  91.6272736   4.3569455
  54.4350052  91.0941601   5.1011771  53.2501507  91.3603401   4.1977149
  73.1450415 103.5298920  87.5232124  73.1169176 103.1496906  88.4012127
  74.0650654 103.7582874  87.3904705  35.3452373  87.6312351   0.1141005
  35.6862950  87.2535992   0.9248399  35.3966403  86.9182014  -0.5224315
  89.4450569  31.4243317  61.3697290  89.5719624  31.8258286  60.5101204
  90.0094700  30.6513214  61.3587093  24.9221611  16.4446366  72.6191187
  25.6591249  17.0137727  72.8409243  25.2755976  15.5576766  72.6870584
  46.1635923  11.7724717  58.0220938  46.9009829  11.5667057  58.5966778
  46.5648985  12.1768320  57.2528839   7.2653776   8.3088243  57.3208570
   6.3743085   8.3927882  57.6602364   7.6463854   9.1801006  57.4301386
  38.5029340  42.5833178   1.4433676  39.0800047  41.8705845   1.1690781
  37.8608894  42.1645308   2.0166266  41.7932177  74.1524172  13.9890027
  42.3099995  74.7802973  14.4939113  40.9213591  74.5444345  13.9398062
 114.8346329  50.6838036  68.6737061 114.9964905  49.9703884  68.0563974
 114.4033146  50.2635193  69.4177198  22.0081735  44.9163198  91.2104511
  21.1246133  45.2157688  91.4246559  21.9292068  43.9646387  91.1448574
  17.9145956  54.7877884  80.2204704  18.3986723  53.9640951  80.2789783
  17.7344596  54.8939037  79.2863798  19.6439052  72.1524048  19.1677797
  19.1252172  71.4413500  19.5440769  20.3930736  72.2402000  19.7570777
  39.7289634  96.8367100  18.0194104  40.1858616  97.5550652  17.5818765
  39.4214940  97.2148895  18.8432276 107.0591736  12.8218877  67.6494837
 106.7270184  13.6977470  67.8464079 107.7406120  12.9661691  66.9929361
  97.2100163  72.7209377  28.0253267  97.8386784  72.3888206  27.3844528
  96.5217113  72.0562983  28.0523062  14.7471154  23.7874866  73.1238842
  14.4186711  24.6542001  72.8847885  15.6990778  23.8868403  73.1351948
   8.4572941  11.0152161  56.9329548   8.7131268  11.3255858  57.8015471
   9.0986937  11.4068890  56.3401365  24.9498773  97.7660656  23.2446003
  25.0515747  98.3494282  23.9966512  25.5408335  98.1240559  22.5821471
  71.1092281  53.3689117   3.9577028  71.3143110  54.2641354   3.6879814
  71.9309330  53.0322361   4.3150276  39.8284984 104.4832611  89.8979950
  39.9929285 104.9561882  89.0821838  38.9842772 104.8165321  90.2020550
   8.9217657  37.3382688   8.9012146   9.4189948  38.1272316   8.6855048
   9.2521721  37.0742249   9.7599024  66.5481853  51.5792418  22.9789448
  67.3206472  51.4726400  23.5340762  66.7261791  51.0329342  22.2133732
 100.6504822   3.5642540  93.3488846  99.7212124   3.5826701  93.5776806
 100.6904125   3.0361259  92.5515652  93.9079857  23.9004302  78.5577679
  93.7631130  23.8570476  79.5029497  93.6636639  23.0319691  78.2379007
  19.8317635  34.5969629  87.2984314  20.1509094  34.6215010  86.3963413
  18.8799298  34.6577191  87.2174931  34.0095711   5.7388425  87.5784683
  33.7132406   6.3210696  86.8788719  33.4987307   6.0040617  88.3432770
  29.2947865  44.5105791   5.4203904  28.5734773  43.9177465   5.2094531
  29.5365572  44.2836380   6.3183194 104.3214417  10.3486621  70.9026670
 104.7834969   9.9400461  71.6346264 105.0171947  10.6892312  70.3403759
  31.9719172  46.4234543   4.6091253  32.0477891  46.4033365   5.5631012
  31.2131262  46.9821835   4.4409373  46.9326448  85.4111099   8.9521593
  46.8559551  86.1735439   8.3785278  47.7310896  84.9711609   8.6603296
  33.4823775  48.3790636  80.1683426  33.4179688  47.5800943  79.6451473
  34.2010832  48.2092857  80.7773304  18.3470559  18.3765709  93.0222893
  18.7465322  18.2864869  93.8874626  19.0570831  18.6900806  92.4621010
  54.5610666 102.0187187   8.7841898  54.5769691 101.1283875   9.1352993
  53.6386919 102.2725010   8.8165432   4.1690603  58.9100504  90.8452702
   4.2157662  58.4522915  90.0059223   3.3819839  59.4508314  90.7796860
  67.7819777  96.0664368  30.8276272  67.0507097  96.6298294  31.0807514
  68.1874561  95.8132267  31.6569042  85.8693027 100.6883430  86.7575455
  86.7083645 100.2577686  86.9212723  85.2283859  99.9775410  86.7725658
  15.4279983   0.7663732  94.4535542  15.3039157   0.6581602  93.5106182
  14.5410085   0.8476993  94.8040771  63.5322142  30.4598904  85.5672836
  62.6318121  30.3404164  85.2652359  64.0597343  29.9433327  84.9580860
  52.2590542  70.2148724   1.0612305  52.1548128  69.2708063   0.9424607
  52.5530148  70.5326605   0.2075155  61.7567015  96.4329338   4.2038760
  61.6075420  95.7052803   4.8076129  62.7080059  96.5373421   4.1850039
  28.9068365   2.6632434  94.3667698  27.9603314   2.6343393  94.5065022
  29.1389990   1.7697413  94.1138172 104.2421913  15.1414382  80.9060287
 104.5521545  15.3896320  80.0350761 103.6757183  15.8650434  81.1738586
  61.8721247  21.3920236  74.9489403  62.2181559  21.6235280  74.0870237
  60.9458494  21.6296840  74.9068975
 115.8933397 115.8933397 115.8933397 109.4712190 109.4712190 109.4712190
