
37785  0.0000000e+00
  44.1184664  25.5195832  54.5332718  43.5816336  24.8275566  54.0302753
  44.5294952  25.0404525  55.3216839  44.7599792  26.0512137  53.9623690
  43.2306337  26.5910172  55.0287008  42.5270510  26.1567831  55.7389927
  43.8504839  27.7932239  55.8449507  44.4189072  28.4013700  55.1412821
  43.0499029  28.4170175  56.2425041  44.7128010  27.3348808  57.0568657
  45.5132151  28.1527996  57.6534653  44.5514727  26.1952376  57.4551678
  42.3720837  27.0437312  53.8558483  41.4498472  26.3300967  53.4540033
  42.6107740  28.1878662  53.2805634  43.2468271  28.8295865  53.7319374
  41.7213202  28.7237191  52.2318268  40.8709717  28.0453300  52.1625566
  41.3701296  30.1261973  52.6294565  41.0252476  30.6771302  51.7544556
  40.2978611  30.1439095  53.7529182  39.3618631  29.6738052  53.4512472
  40.6044912  29.6428657  54.6710920  40.0112772  31.1815381  53.9240837
  42.5400448  30.8570242  53.1475496  43.2353354  30.8329368  52.4860430
  42.4075365  28.7711644  50.7907438  42.1357727  29.6812725  49.9695921
  43.2654428  27.7774310  50.5470276  43.4815359  27.1081138  51.2718868
  44.0406179  27.6733780  49.3056393  44.4888353  28.6427975  49.0878630
  45.1984310  26.7118478  49.4518280  44.7919989  25.7012987  49.4930553
  45.8232260  26.8059659  48.5636377  45.9573269  27.0334697  50.6066370
  46.1586380  27.9622340  50.4707193  43.3038759  27.3546696  48.0372000
  43.5901260  27.9219079  47.0112371  42.1846390  26.5628195  48.1698418
  41.8539667  26.2747908  49.0796709  41.2782145  26.3391495  47.0096207
  41.7894411  25.8744955  46.1665010  40.1656437  25.4413033  47.3264503
  40.7149553  24.5169997  47.5053787  39.6930099  25.7523298  48.2581043
  39.0236354  25.1705217  46.3613415  38.5067463  26.1141610  46.1867714
  39.5375872  24.6086431  45.0668287  40.1814318  25.3393340  44.5772839
  40.0797319  23.6644769  45.1191425  38.6249137  24.3475032  44.5311642
  38.0743289  24.0841293  46.8931150  38.6141038  23.1809139  47.1776247
  37.5974154  24.4241381  47.8123856  37.2439456  23.8656497  46.2216759
  40.8121729  27.6778841  46.3834763  40.9233189  27.7787042  45.1619196
  40.3794622  28.7002206  47.1299553  39.6938324  28.5156155  48.4155607
  40.3739357  28.2942295  49.2380905  38.8608146  27.8191829  48.3198595
  39.0393281  29.8632288  48.7684107  39.7593379  30.4825807  49.3032837
  38.0688262  29.6862888  49.2320108  38.8172507  30.5728698  47.4468803
  38.8541722  31.6209626  47.7439308  37.8165555  30.4228997  47.0416403
  39.9959087  29.9779582  46.6465425  39.6912026  29.8137879  45.6129551
  41.0941410  31.0061097  46.6143894  40.9135962  32.0774102  45.9371853
  42.2515059  30.7351971  47.1703720  42.2013235  29.8765755  47.6998520
  43.4262180  31.5881014  47.0977497  43.0279732  32.5405288  46.7479134
  44.1128683  31.7337012  48.4296083  44.5342207  30.7453728  48.6133671
  45.3467607  32.7114010  48.3766651  45.7109499  32.8296399  49.3971968
  46.1356020  32.2248483  47.8029966  45.0870657  33.6672068  47.9215860
  43.2226753  32.1076798  49.4611168  42.7767658  31.3018966  49.7321844
  44.3554115  31.1141276  45.9251881  45.0932693  31.9325590  45.3566599
  44.2970133  29.9529505  45.3343248  43.6323071  29.3634868  45.8147430
  44.9940205  29.4972801  44.0837908  45.2359819  30.3821445  43.4950876
  46.3622332  29.0146804  44.4231462  46.6688871  29.4114709  45.3909397
  46.2905455  27.9495192  44.6431398  47.1696520  29.3202353  43.2975006
  47.6079893  30.1536846  43.4840965  44.1654253  28.6029625  43.1098795
  44.6641922  27.8786898  42.2208881  42.8334427  28.6008644  43.2001925
  42.3056650  29.1141462  43.8916349  41.8853045  27.9794025  42.1807575
  40.9045315  27.8762364  42.6450157  41.8467331  28.9789939  41.0033035
  42.7937508  29.1592693  40.4946232  41.1054850  28.6807632  40.2618837
  41.3670111  30.3451133  41.4022017  40.1120710  30.8812475  41.6720629
  40.2523899  32.2033763  41.9217253  39.4280910  32.8709531  42.1249151
  41.5273857  32.5251913  41.8882370  42.0039749  33.3718324  42.1642208
  42.2550726  31.3967633  41.5069389  43.3348513  31.3779402  41.4957857
  42.2309875  26.5624595  41.7640018  42.1196032  26.1768031  40.6005573
  42.5979662  25.7764411  42.7527475  42.7981997  26.2053537  43.6449575
  42.9740906  24.3068123  42.6383829  43.7692738  24.2101645  41.8991566
  43.6064100  23.7917209  43.9312840  43.8476849  22.7425957  43.7603140
  44.8494530  24.5793509  44.2146301  45.4866648  24.0533447  44.9255276
  45.4249573  24.7241688  43.3003378  44.5287848  25.5847406  44.4875145
  42.7275944  23.7726927  45.0290918  42.5418949  22.8394413  45.1562214
  41.8074512  23.3884406  42.1736383  42.1126509  22.2367144  42.0113850
  40.5980444  23.9009953  41.8851852  40.4170179  24.8552132  42.1623230
  39.5085955  23.2257438  41.2151766  39.3823218  22.2279167  41.6352892
  38.2602859  24.1032219  41.3619900  37.5115561  23.5516429  40.7934332
  37.8984714  24.0151143  42.3864079  38.4131980  25.5903482  40.9256172
  38.8128710  26.5503311  41.8669844  39.1784239  26.3117146  42.8548336
  38.6524940  27.9098296  41.5070534  38.8683605  28.6675882  42.2457075
  38.3176637  28.2093740  40.1507092  38.3365631  29.5438170  39.8202872
  38.8694096  30.0681973  40.4225349  38.0520296  27.2693253  39.1661787
  37.8809452  27.5480461  38.1368804  38.0256057  25.9399295  39.6052313
  37.6487637  25.2035546  38.9108682  39.8330760  22.9169774  39.7443843
  39.2284870  21.9343662  39.2380643  40.7387447  23.6309171  39.0739703
  41.2077427  24.3556356  39.5983028  41.2486601  23.3847690  37.7654767
  40.3327465  23.2003760  37.2040534  42.1184874  24.5061207  37.3199201
  42.8005409  24.6884394  38.1503797  42.7291107  24.1750026  36.4799190
  41.3147831  25.7153058  36.9275498  40.6935835  26.0933948  37.7394962
  42.3576212  26.8081832  36.6642284  42.9192591  27.1169782  37.5458789
  43.0876732  26.4664531  35.9305096  41.8262005  27.6935220  36.3151383
  40.5088568  25.5594087  35.5909252  39.7981048  24.7631407  35.8120465
  39.8904848  26.4148378  35.3189683  41.1107492  25.3269148  34.7124195
  42.0091963  22.0024228  37.7797747  42.1319914  21.3062572  36.7666841
  42.4446011  21.5991092  38.9352965  42.2616625  22.1330190  39.7728944
  43.2763720  20.3426909  39.1176581  42.9625845  19.6490455  39.8977160
  43.0397177  19.7370660  38.2428360  44.7384071  20.6700110  39.4034362
  45.2119827  21.7680192  39.2019606  45.3935194  19.6636415  39.8839378
  44.9656296  18.7993646  40.1839972  46.8674326  19.7691309  40.0475931
  47.0533085  20.6288028  40.6914234  47.3247528  18.4748197  40.7535076
  48.4116077  18.3941841  40.7349014  46.9121504  18.4509134  41.7621136
  47.0273209  17.5638473  40.2341175  47.5221539  20.0256109  38.6522007
  46.8716812  20.0314498  37.6384187  48.8539982  19.8820364  38.5781312
  49.3911362  19.7356677  39.4208455  49.7597170  20.1677823  37.4724102
  49.3234110  19.7098792  36.5846825  49.8703289  21.6947150  37.3395228
  50.7087421  22.0538831  36.7427278  48.9976311  21.9816208  36.7528439
  49.8411369  22.4768233  38.6739755  49.1691637  23.5134459  38.6643124
  50.6428289  22.2014141  39.5483208  51.2227154  19.5988703  37.8289509
  51.3091373  18.8033569  38.7783670  52.2774076  19.9258375  37.0807385
  52.0708418  20.3519320  36.1886191  53.6037397  19.4887650  37.3412967
  53.6066675  18.9169562  38.2692671  54.0723228  18.6519718  36.1454153
  53.2903814  17.9233563  35.9314442  54.3609524  19.2885828  35.3090453
  55.2901316  17.7704215  36.4667416  55.3732347  17.1709895  35.5601668
  56.1906052  18.3826184  36.5163326  55.2828979  16.7184925  37.8527355
  53.6793995  15.9560716  37.7281237  52.8931999  16.7109525  37.7161241
  53.6721706  15.4862320  36.7446113  53.5020590  15.2060175  38.4988809
  54.5717669  20.6954455  37.6235104  54.1527796  21.8195009  37.3113155
  55.7638121  20.6332302  38.2006478  56.0071135  19.7069788  38.5215282
  56.5042877  21.6881490  38.8017201  56.0640907  21.7695785  39.7955513
  57.9152489  21.1904931  38.9499378  57.9363680  20.2407312  39.4843578
  58.2548571  20.9539604  37.9415631  58.9001131  22.0445704  39.5954990
  59.8949051  21.6120625  39.4885898  58.9064550  23.0218434  39.1128016
  58.7030506  22.2735858  41.0714436  59.4769955  22.9784274  41.7497683
  57.7326584  21.7607427  41.6737461  56.5010548  23.0885530  38.1274414
  56.8821907  23.2049394  36.9686508  55.9929895  24.1145182  38.8408756
  55.5811262  23.9211988  39.7425961  55.7193613  25.4409170  38.3227015
  55.0432730  25.2991486  37.4795508  55.1012564  26.4149165  39.3565106
  54.7301149  27.2911620  38.8249540  54.1728783  26.0261178  39.7748995
  56.1468887  26.9186449  40.4915047  57.0011663  27.4628711  40.0888491
  55.6058025  27.6535082  41.0875750  56.5988016  25.8699656  41.4769697
  55.8772087  24.9089718  41.8635845  57.7882338  26.0177588  41.8767452
  57.0071650  26.0582089  37.7158904  58.1218529  25.8005977  38.2428288
  56.8730307  26.8573403  36.6547155  56.0423756  26.8596029  36.0801673
  57.9771805  27.7076125  36.2601280  58.8958168  27.1211743  36.2424350
  57.6490116  28.1970286  34.9252105  56.7548943  28.8202715  34.9402690
  58.4110355  28.9243007  34.6450496  57.5006151  27.1791792  33.7570167
  58.7135410  26.8175626  33.1403446  59.6730375  27.1956015  33.4610629
  58.6547184  25.9331393  32.0726633  59.5416737  25.6616616  31.5194798
  57.4692631  25.4263115  31.6232228  57.4825144  24.8717880  30.6965470
  56.2058687  25.7384849  32.2738004  55.2450943  25.3773928  31.9377542
  56.2737846  26.5566945  33.4330940  55.4286289  26.7666912  34.0718532
  58.1573200  28.9516401  37.1655679  57.1541643  29.6685743  37.3585773
  59.3401670  29.2775869  37.7200484  60.1221132  28.6395025  37.6810670
  59.4353294  30.3774667  38.7085724  58.7514925  30.1708961  39.5318580
  60.7952738  30.4479742  39.4126177  60.9518433  29.4037366  39.6830893
  61.6147566  30.6730747  38.7300634  60.8658123  31.2498760  40.6302691
  60.9246778  30.7686067  41.9614840  61.0900688  31.8645430  42.7569485
  61.2385130  31.8567991  43.8266706  61.0946846  32.9555440  41.9462633
  61.2929583  33.8712358  42.3234892  60.8593464  32.6115394  40.6492519
  60.8722591  33.2814813  39.8022509  59.0201569  31.6970658  38.1202388
  58.2968283  32.4950123  38.7024379  59.2624283  31.9727159  36.8114901
  59.9952316  31.4180017  36.3926959  59.0861893  33.2750583  36.2296367
  59.2802715  33.0613112  35.1785684  58.0510044  33.6030269  36.3241315
  60.0745106  34.4342351  36.5610433  60.8934641  34.3568301  37.4874043
  59.9066877  35.5042887  35.8203554  59.1428423  35.3523803  35.1772714
  60.5726910  36.8196273  35.8878756  60.2641535  37.2721028  36.8303037
  62.0921040  36.5627861  35.9040236  62.6907206  37.4708080  35.8314729
  62.5223398  36.0645819  36.7728114  62.6205254  35.7179737  34.7368026
  62.0331240  34.8055410  34.6341896  62.5953388  36.1965704  33.7578154
  64.0597582  35.4074073  34.9460387  64.5103884  35.0703239  34.0125442
  64.5324802  36.3473654  35.2308393  64.2941570  34.4090724  36.0084653
  64.2822933  34.6699691  36.9841146  64.3964052  33.1260538  35.7900262
  64.3564510  32.3487234  36.7772365  64.1313887  32.7438760  37.6790714
  64.3149185  31.3475561  36.6505980  64.4852066  32.4812198  34.7061729
  64.5839691  33.0444479  33.8736343  64.7623539  31.5100026  34.7013378
  60.2210331  37.8718328  34.7830725  60.7716513  38.9959455  34.8373556
  59.3283129  37.5528145  33.8782692  58.8940525  36.6442537  33.9559555
  59.2859268  38.3214116  32.5933266  60.2799749  38.5157728  32.1905971
  58.4471941  37.5334191  31.5204597  57.4476814  37.3808742  31.9276428
  58.2753181  38.2457590  30.1551151  58.0560350  37.6416135  29.2747593
  57.4107409  38.8810349  30.3475404  59.0600538  38.9938998  30.0429654
  59.1279268  36.3588476  31.2893653  58.6592960  35.7012033  31.8084860
  58.7105656  39.7698259  32.6937461  57.5379038  39.9554324  32.7878284
  59.6252680  40.7246494  32.7354074  60.6014872  40.4656172  32.7375841
  59.3201685  42.2056818  32.7251887  58.3015251  42.4349737  32.4122977
  59.4832087  42.7036667  34.1510701  60.4552555  42.3429728  34.4874263
  59.4359207  43.7908268  34.2139268  58.4398174  42.0640421  35.1459599
  58.4985209  40.9815550  35.0324750  58.6771917  42.4538136  36.5772772
  59.5521021  41.9262171  36.9571161  58.7601757  43.5350561  36.6874075
  57.8919888  42.1141577  37.2526956  57.0254803  42.6852131  34.8877859
  57.0445538  43.7495899  35.1219845  56.6527224  42.4818182  33.8839006
  56.2892962  42.1825123  35.5150199  60.2096891  42.9262161  31.7333031
  61.2321854  42.3772430  31.2623000  59.8803806  44.1703320  31.3877487
  59.0836668  44.4996119  31.9139743  60.6235600  44.8932076  30.3080869
  61.5850782  44.4199991  30.1089478  59.7287607  44.9398041  29.0694976
  58.9439058  45.6895256  29.1696095  60.3471708  45.2569628  28.2298064
  59.1438532  43.6080313  28.7558055  59.8683071  42.5979853  28.0526638
  58.9830780  41.6874361  27.6950717  59.1653442  40.7356024  27.2184277
  57.7727604  42.0560980  28.2254362  56.9187784  41.5674877  27.9972529
  57.8819036  43.2737684  28.7936807  57.1330976  43.9246702  29.2203140
  60.9232807  46.3566256  30.7265711  60.4857826  46.8401098  31.7959261
  61.7583227  47.0256519  29.8587132  62.1212101  46.4249563  29.1323686
  61.9261074  48.4975910  29.7545838  62.3516846  48.8140106  30.7068801
  62.8141975  48.8506937  28.5336709  62.4113369  48.4292984  27.6126766
  62.7450275  49.9378395  28.4957194  64.3223286  48.4788275  28.7588692
  64.8033094  48.7077141  29.8727846  64.8215628  47.7515697  27.8782940
  60.5891562  49.2933369  29.6607852  59.7587919  48.9599085  28.8627625
  60.5597973  50.3877020  30.3591204  61.3437700  50.5422640  30.9768558
  59.3414402  51.1987209  30.5652332  58.5245609  50.5098295  30.3501987
  59.3462038  51.7415094  32.0124245  58.3377314  52.0688820  32.2652340
  59.6911287  50.9577847  32.6868820  60.3190184  52.8497601  32.3175383
  60.1667881  53.3471441  33.4534431  61.0196638  53.3929157  31.4386249
  59.0915918  52.3334694  29.5437551  58.2687521  53.2108068  29.7222543
  59.6425533  52.0986271  28.3438683  60.4136562  51.4481306  28.3924294
  59.2564440  52.6709986  27.0411301  58.2452631  53.0767441  27.0096922
  60.2044678  53.8024330  26.6880965  59.7941113  54.2985821  25.8085847
  59.9753475  54.4755030  27.5142837  61.6855192  53.4936285  26.4899945
  62.0280123  52.2890520  26.3702583  62.4566746  54.4599009  26.3366604
  59.1698694  51.6783714  25.9042597  58.8404036  52.0139933  24.7470665
  59.3928862  50.3911018  26.1485291  59.5745230  50.1813269  27.1196651
  59.4648314  49.2672062  25.1487565  60.2318573  49.6218586  24.4602799
  59.7989511  48.0340195  25.9327555  60.6384277  48.2565975  26.5914202
  58.9279366  47.7771664  26.5356302  60.0506639  46.9830227  25.0112152
  60.9815502  46.7728806  25.1155853  58.1555033  49.0583420  24.3038654
  57.0902395  48.8407373  24.8884130  58.2014465  49.2412710  22.9959369
  59.1435575  49.3470812  22.6476145  57.0710325  49.0486622  22.0721436
  56.1742306  49.1908026  22.6751685  57.0151043  50.0996351  20.9523988
  57.9840517  50.2363062  20.4722261  55.9329939  49.6363926  19.9664974
  55.7698154  50.4107809  19.2169666  56.1692142  48.6887550  19.4824636
  55.0295544  49.3965054  20.5271649  56.5047741  51.3572931  21.6419697
  55.4835081  51.1921310  21.9852543  57.2109938  51.5218735  22.4557686
  56.4945412  52.6448298  20.7617378  56.5971184  53.5369778  21.3795137
  57.3952293  52.5408983  20.1567078  55.6875801  52.7173805  20.0325990
  57.0929432  47.6797724  21.5204477  58.1288481  47.3400784  20.9342599
  56.0974264  46.7969847  21.7945695  55.2951813  47.1885347  22.2670007
  56.1458731  45.3353453  21.6599298  57.0510006  45.0341988  21.1325216
  55.9782887  44.7402954  23.0345678  55.1687860  45.2205276  23.5842848
  55.7833719  43.6711168  22.9510999  57.3257017  44.9078703  23.7950969
  58.1691027  44.6974039  23.1374621  57.4015045  45.9347343  24.1527414
  57.4770880  43.8895798  24.9430490  56.8338346  42.8295994  25.0317645
  58.4370422  44.2545652  25.7763529  58.5084915  43.8673782  26.7064500
  58.8526106  45.1601076  25.6108093  54.8615026  44.8632717  20.9781432
  53.8026619  45.4794168  21.1515951  54.8945951  43.6875057  20.3244472
  55.7451534  43.1857347  20.1126003  53.7080383  42.8782606  19.9865031
  52.8558350  43.5190010  20.2130151  53.6584949  42.5659132  18.4152269
  54.6146965  42.1371365  18.1153512  52.5547838  41.6226864  18.0040228
  52.7165079  40.6500340  18.4686685  51.6507244  42.0404005  18.4470701
  52.4112082  41.5298557  16.9275153  53.4549999  43.8531160  17.6488066
  54.3128157  44.5242882  17.6910996  53.2842016  43.5594893  16.6130877
  52.5020409  44.3199205  17.8979373  53.5597181  41.6512823  20.8279610
  54.5093012  40.9104633  21.0670877  52.2944069  41.3853359  21.2069631
  51.6528749  42.1145725  20.9299231  51.8616915  40.4544783  22.2391462
  52.6682043  39.7212625  22.2439313  51.7293739  41.0559702  23.6655068
  50.7949018  41.6162729  23.6958814  51.6262245  39.9501538  24.6740174
  52.4960995  39.3133092  24.8347950  51.2910604  40.3099108  25.6468201
  50.8352089  39.2331123  24.4543481  52.9732418  41.9440842  24.0137601
  53.9357185  41.4428711  24.1163278  53.0872488  42.7916718  23.3379674
  52.9358244  42.6515770  25.3673363  53.0572081  41.9289351  26.1742854
  53.7251711  43.4031963  25.3572798  51.9621468  43.0712032  25.6202483
  50.5827141  39.7247028  21.8539190  49.6416283  40.3954220  21.3868165
  50.4006815  38.4302330  22.0208836  51.3871717  37.3741961  22.2768664
  52.1057081  37.5776553  23.0708504  52.0113516  37.2515774  21.3917327
  50.6287146  36.0564709  22.5892162  50.2254248  36.2061095  23.5907483
  51.1507559  35.1416206  22.3088121  49.4296837  36.2146926  21.6673994
  48.6048841  35.5839276  21.9989777  49.7135353  35.9851718  20.6403399
  49.1232777  37.6980972  21.8910170  48.8547897  37.9993320  20.8784580
  48.0638361  38.0555844  22.9191780  48.4879684  38.4309459  24.0272975
  46.7928123  38.0572104  22.6322985  46.5340328  37.7364516  21.7102098
  45.7025576  38.6530423  23.4453797  46.1728144  38.9656401  24.3777108
  45.1607084  39.9518490  22.7817893  45.0161791  39.8482895  21.7063880
  43.8484335  40.4077768  23.4046364  43.4956932  41.3467646  22.9780602
  43.0538034  39.6626163  23.4420657  44.0673685  40.7163191  24.4268751
  46.0868359  41.2005663  22.8414965  46.2743616  41.5105820  23.8695192
  47.0451117  40.9127092  22.4091101  45.7183981  42.0587921  22.2795367
  44.6718407  37.5324535  23.6065173  44.4807386  36.7032146  22.7322316
  44.1691494  37.4768782  24.7962356  44.4689274  38.1326675  25.5034637
  43.1690359  36.4198995  25.1667070  43.0631495  35.7474923  24.3153787
  43.7889624  35.5725670  26.2890625  44.2825365  36.1687350  27.0565701
  42.9889297  35.1288080  26.8816209  44.8050737  34.5054936  25.7870698
  45.7748985  34.8951721  25.4777145  45.0982380  33.5490203  27.0073390
  45.3536797  34.1842914  27.8554487  44.2080069  32.9897666  27.2951388
  45.9310246  32.8555083  26.8906689  44.3378305  33.5210228  24.7113752
  43.5215235  32.8876138  25.0585604  44.0499020  34.1607070  23.8771057
  45.2060938  32.9029298  24.4829440  41.8935394  37.0458436  25.6710172
  41.9169283  37.4287081  26.8267488  40.8481789  37.2229624  24.8159313
  40.7997942  36.8233347  23.3683467  40.5714655  35.7575393  23.3757782
  41.6710520  37.0877981  22.7691221  39.6387601  37.6752806  22.7833962
  39.0752578  37.0514417  22.0895743  40.0305748  38.5812187  22.3209524
  38.7927079  38.0895281  23.9593935  37.7542591  37.7801824  23.8409352
  38.6294103  39.1634274  24.0497828  39.5517635  37.6161957  25.1958966
  39.7802758  38.4908128  25.8049345  38.7952781  36.7710853  26.1229634
  37.9369307  37.4028397  26.7889428  39.0766072  35.4784727  26.2241602
  39.8502088  35.0689697  25.7202268  38.4298539  34.5782900  27.2222519
  37.3494959  34.7226954  27.2136116  38.7027168  33.1533289  27.0381808
  39.7574544  33.0849957  26.7717981  38.5521173  32.5850439  27.9560447
  38.0207658  32.4908257  25.8518362  38.1241107  32.9237366  24.8568439
  38.4854913  31.5048933  25.8604479  36.5594578  32.3724055  26.0402679
  35.7529974  33.0572438  25.4065490  36.0165262  31.4970183  26.8652630
  35.0177956  31.4026380  26.7480779  36.5860271  30.6915808  27.0821571
  38.8353157  35.0034070  28.6751556  38.0449843  34.7743773  29.5665693
  39.9513817  35.7600975  28.8952279  40.4904747  36.0459280  28.0903792
  40.0768518  36.5810657  30.0936174  39.5598960  36.1985898  30.9737134
  41.6039085  36.7221856  30.5072498  42.0553446  37.2550893  29.6703982
  41.6684723  37.5781393  31.7597270  41.2756634  37.0331073  32.6180625
  42.6627541  37.8414512  32.1205235  41.1299181  38.5209990  31.6644597
  42.2960377  35.3635144  30.7211065  43.3852720  35.3687906  30.6805301
  41.9429541  34.9904990  31.6825080  41.8846560  34.7608829  29.9113536
  39.4036078  37.9975080  29.9134684  39.8262382  38.8057685  29.1159892
  38.4745955  38.3974051  30.8057117  38.0405736  37.6766300  31.3644671
  37.7297091  39.6771193  30.7564306  38.2631636  40.3252316  30.0610995
  36.2811160  39.4191289  30.1974082  35.7166553  38.7522793  30.8491731
  35.6876111  40.3329945  30.1709747  36.1598635  38.7419748  28.7577152
  36.5988445  39.3439102  27.9620576  36.7805624  37.8463316  28.7833214
  34.3860126  38.4020114  28.2291174  33.9078426  39.8994589  27.2856808
  34.3539214  40.7313490  27.8307271  34.3528748  39.9991298  26.2956738
  32.8245735  39.9391246  27.1714187  37.7103162  40.4077911  32.1235538
  36.8307352  41.2912273  32.3432112  38.6429095  40.0673580  33.0346537
  39.4356561  39.5628071  32.6644111  38.9203954  40.7136965  34.2788959
  37.9351258  41.0653067  34.5850182  39.3922281  39.6052146  35.2588797
  38.5928559  38.9033294  35.4964995  40.0796747  38.9435005  34.7319508
  40.1131153  40.1023197  36.4657235  39.7476602  41.0935831  36.7339277
  40.0324154  39.3993831  37.2948575  41.9043684  40.2707529  36.1781025
  42.3623514  40.9704828  37.7559710  43.4364653  41.1557961  37.7627206
  42.0036221  41.9996595  37.7702808  42.0510817  40.3942490  38.6272717
  39.8666668  41.8611383  33.9426017  40.7762003  41.6421890  33.1221199
  39.8057437  43.0408049  34.5822048  39.0985990  43.1857729  35.2886271
  40.6775761  44.1966534  34.2298293  40.9764719  44.0235853  33.1959987
  39.8913097  45.5504656  34.3404651  39.6725202  45.7002974  35.3977156
  40.7255650  46.7874765  33.9755797  41.5433264  46.8265581  34.6951938
  41.2247753  46.6881037  33.0117249  40.0879478  47.6629162  33.8525200
  38.5955191  45.5007696  33.4867716  38.2937646  46.4627028  33.0723715
  38.6923099  44.6842194  32.7712440  37.3760653  45.2243805  34.3705273
  37.1435857  45.9391689  35.1599145  36.5219212  45.1484013  33.6976480
  37.5335979  44.2336082  34.7967362  41.9184732  44.0949392  35.1198053
  41.9234371  44.6411037  36.1951017  42.9843235  43.5236883  34.4850349
  42.8146076  43.1126833  33.5781884  44.1901016  43.2063198  35.1143694
  43.9586020  42.6737738  36.0368133  44.8564577  42.1175432  34.2769718
  44.0871477  41.3641024  34.1078901  45.2018547  42.6310158  33.3796787
  46.1601877  41.4423370  34.8749185  46.9477463  42.1694565  35.0728011
  45.7990074  40.6542444  36.1758804  45.3599977  41.3043976  36.9326329
  44.9914026  39.9703288  35.9148693  46.6021013  40.0960302  36.6570640
  46.5700626  40.4434347  33.8735080  46.9612360  40.9138536  32.9714036
  47.3281717  39.7884607  34.3029046  45.7862616  39.8165536  33.4483242
  45.1432371  44.3843937  35.4981709  45.1363659  45.4364777  34.8538733
  45.9940243  44.1887760  36.5271926  45.8857822  43.2935858  36.9822001
  46.8234301  45.1860905  37.2423124  47.2198009  45.9869528  36.6181207
  46.0659027  45.8477783  38.3910322  46.8020725  46.4789963  38.8887429
  44.9439907  46.7576456  37.9528213  45.2785110  47.4102831  37.1464372
  44.0418339  46.1793280  37.7533984  44.6468210  47.4195480  38.7662554
  45.5284548  44.8662806  39.3763113  46.3356972  44.3518639  39.8976922
  44.9157286  45.3254461  40.1520920  44.9102163  44.1140842  38.8863254
  48.0079412  44.3595219  37.7956724  47.8199196  43.1146955  38.0135393
  49.2419434  44.8826075  38.0067706  49.5850945  46.2457323  37.7901053
  49.3264675  46.8883371  38.6316895  49.2044353  46.6085482  36.8353486
  51.0871887  46.3135147  37.7280617  51.3499594  47.3244858  38.0394816
  51.4477158  46.1549854  36.7117000  51.4531183  45.1348925  38.6029148
  51.5420723  45.4030848  39.6556544  52.4376392  44.7724295  38.3072114
  50.3994656  44.1284800  38.4274149  50.6700373  43.4598732  37.6101828
  50.1412058  43.2709599  39.6996665  49.5075130  43.7315655  40.6539583
  50.5857182  42.0261192  39.6957016  50.8854342  41.7424917  38.7738395
  50.6493044  41.0690832  40.7279634  51.4230585  40.3264189  40.5333900
  51.0690260  41.4742231  41.6487217  49.3767738  40.3063774  41.0506535
  49.4785833  39.3903089  41.8455935  48.2095385  40.6261492  40.4915237
  48.0670357  41.4487791  39.9231219  47.0057535  39.8271108  40.8943939
  46.9898367  39.7663093  41.9825792  45.8090687  40.5493641  40.3977489
  45.8182526  41.4202213  41.0532141  45.8752346  40.8012247  39.3393111
  44.4584703  39.9086952  40.3919554  43.7762690  40.7387447  40.2083063
  44.4951677  39.2230630  39.5453978  43.9353704  39.2836571  41.6488695
  44.6372509  38.8817143  42.5614882  42.5889015  39.3190122  41.7274237
  42.2552395  39.2083979  42.6742840  41.9827700  39.5537519  40.9543753
  47.1298695  38.4062600  40.4020119  47.5558138  38.2267094  39.2561102
  46.7723513  37.3466372  41.1274242  46.3186979  37.5186658  42.0132589
  46.6585350  35.9643292  40.6396246  47.6234245  35.6663036  40.2294207
  46.4575911  34.9886775  41.8081713  45.5049038  35.1162148  42.3221970
  46.2502670  33.6134315  41.1959553  47.1241236  33.1551099  40.7329082
  46.0262775  32.9309964  42.0158434  45.3683090  33.6432004  40.5561399
  47.5111294  35.0559831  42.7371025  47.5253677  35.9102178  43.1749153
  45.6169939  35.9029627  39.4684601  44.4880962  36.4218640  39.6023798
  45.9048748  35.2276516  38.4082007  46.8288851  34.8230624  38.3571219
  45.0681162  35.1046562  37.1917033  44.0593624  35.3981471  37.4821877
  45.5880070  36.0551620  36.1140943  45.5614042  37.0704699  36.5097547
  46.5971756  35.7578421  35.8290005  44.8391342  36.0119939  34.7809887
  45.0347757  35.0552034  34.2968655  43.2722616  36.0951757  34.8764181
  43.0959368  36.9109368  35.5775166  42.8617430  36.4032865  33.9148355
  42.8545094  35.1476765  35.2167654  45.4244518  37.1027994  33.9045930
  45.1437092  37.0318913  32.8537583  45.1207399  38.0769563  34.2878437
  46.5057850  37.0409679  34.0270615  45.0314188  33.5834479  36.7671371
  45.8972883  33.1658626  36.0079670  44.0087605  32.7972460  37.1892595
  42.9965687  32.9221725  38.2185340  42.6109171  33.9416671  38.2186627
  43.4500027  32.6403761  39.1688442  41.8648815  31.9602299  37.9635239
  41.2584782  32.4037337  37.1737885  41.2153244  31.7162323  38.8041449
  42.5267601  30.7414126  37.4026132  41.8963575  30.2336764  36.6726136
  43.0027437  30.1304436  38.1695914  43.7131071  31.4780641  36.6222382
  44.6252251  30.8866787  36.7022586  43.3551884  31.6220164  35.1155591
  43.0264091  32.6501513  34.5887041  43.4543180  30.5380392  34.3655324
  43.8634968  29.6978736  34.7486758  43.1296110  30.4563975  32.9037476
  42.2287130  31.0464597  32.7355170  44.3444490  30.9523964  32.1012425
  44.5432186  32.0128512  32.2562575  45.1434183  30.3305101  32.5049853
  44.2885828  30.8535480  30.5450368  44.0450478  29.8312116  30.2558517
  43.3428001  31.9506717  30.0108409  43.7989807  32.9320765  29.8810410
  43.1456089  31.6606450  28.9788032  42.5192261  31.9382191  30.7247543
  45.6453705  31.2224698  29.9241567  45.7170200  31.0127163  28.8569283
  46.0522842  32.2207785  30.0850987  46.3724613  30.4832220  30.2602434
  42.5764942  29.1371369  32.3967838  42.9913712  28.1573677  32.9832363
  41.7466545  29.1111732  31.4007497  41.5077400  29.9594665  30.9073782
  41.0819101  27.9737568  30.8872080  41.8208075  27.1947646  31.0751104
  39.7900414  27.7478194  31.6966295  40.1570940  27.2165084  32.5747418
  39.3519950  28.6715627  32.0746732  38.8679695  26.8743181  30.9323478
  38.2301545  27.4703860  30.2796602  39.3897629  26.1962128  30.2570653
  38.0344605  25.9494424  31.7878103  38.0746269  25.8346701  33.0419302
  37.1001601  25.2094865  31.1568666  36.4309382  24.8071671  31.7974758
  37.0291591  25.3343773  30.1571345  40.8162403  28.1969833  29.3652081
  40.5518627  29.3318319  28.9913678  40.9674454  27.1996665  28.5263753
  41.3879967  26.3324380  28.8282847  40.9042454  27.2135568  27.0817447
  40.1131201  27.8791809  26.7365408  42.2357750  27.6085782  26.4316750
  42.9321814  26.8410993  26.7694473  42.1714735  27.5501108  25.3451443
  42.7942038  29.0477133  26.8188715  42.9641819  29.1941357  27.8855348
  44.1237211  29.0531373  26.1266923  44.8059416  28.3795142  26.6452575
  43.9995813  28.7767673  25.0796413  44.4820499  30.0762272  26.2406516
  41.9993305  30.1452756  26.0827231  40.9762239  30.1767325  26.4573812
  42.4396086  31.1309624  26.2333012  42.0051670  29.8845577  25.0243807
  40.4881334  25.8748746  26.4466619  40.7225752  24.8067856  26.9919610
  39.9311662  26.0336947  25.2433348  39.9049091  26.9907069  24.9215627
  39.0587831  25.0542450  24.6141934  39.3156314  24.0866542  25.0453520
  37.5250912  25.3508401  24.8755527  37.4364853  25.3917313  25.9611773
  37.2722697  26.2966132  24.3962860  36.6041398  24.2582846  24.4384527
  35.7957506  23.5443521  25.3703690  35.9495044  23.7853336  26.4118528
  34.8864388  22.5031590  25.0419021  34.3003297  22.0727229  25.8404016
  34.7076917  22.2338915  23.6510158  34.0095353  21.4924955  23.2914162
  35.4608536  23.0313659  22.7425003  35.3096294  23.0386639  21.6731644
  36.3694859  23.9920235  23.0788088  36.9372988  24.5221972  22.3285389
  39.4182372  24.9735880  23.0603909  39.4804311  23.9120483  22.4104905
  39.3853259  26.1528587  22.4158168  39.2572665  27.0051360  22.9424381
  39.6293259  26.2557411  20.9889197  38.8824177  25.6543016  20.4707479
  39.4606090  27.7096891  20.6004763  38.3914590  27.9071665  20.5228853
  39.8509073  28.3391619  21.4001846  40.0886011  28.0678368  19.2527223
  40.2833176  27.3048353  18.1141114  40.7206917  28.2171583  17.1421957
  40.9528494  27.8608513  16.1494482  40.8504534  29.4215846  17.6995575
  41.0366488  30.2498555  17.1523821  40.2489424  29.3900537  18.9026332
  40.0695944  30.2191210  19.5711243  41.0424948  25.6958795  20.6241035
  42.0376921  26.1937666  21.1067533  41.1353779  24.6940637  19.7228944
  40.0636864  24.0855193  19.0077186  39.7282553  24.7460461  18.2081604
  39.2134476  23.7984586  19.6264172  40.4985809  22.7295566  18.3862114
  40.2607632  22.7191591  17.3225224  40.0336647  21.9098186  18.9339221
  41.9923639  22.6649141  18.7154520  42.5230312  22.6947999  17.7638209
  42.1688938  21.8118954  19.3706572  42.3289108  23.8332725  19.5551372
  42.5493526  23.4627199  20.5562353  43.4976578  24.6833682  19.0705967
  44.6114588  24.4879889  19.5763922  43.3542442  25.7342434  18.2352698
  42.4175024  26.0550022  18.0359447  44.4501495  26.5887904  17.8333998
  45.3707027  26.0313916  17.6602352  44.0954447  27.0964646  16.4277029
  44.0305138  26.2872338  15.7003570  43.1248999  27.5899959  16.4785206
  45.1447201  28.1204009  15.8909464  45.2274799  28.9662504  16.5734339
  46.1408901  27.6780319  15.8981156  44.6890402  28.6655068  14.5132434
  43.7657213  28.2679558  13.8282454  45.3742409  29.7575140  14.0482056
  45.0043106  30.2273464  13.2342589  46.1826420  30.0428271  14.5822299
  44.7934675  27.7195406  18.8592982  45.9718275  28.0944347  19.0412664
  43.8422441  28.2320738  19.6817231  42.9194021  27.8225255  19.7087908
  44.1531181  29.0863872  20.7698226  44.7219944  29.9314022  20.3819704
  42.7800083  29.6541572  21.2678194  42.3076820  30.0575638  20.3721261
  42.1565151  28.8819027  21.7183518  43.0034828  30.8330894  22.2271824
  43.4066916  30.4804397  23.1764770  43.7517691  31.5669441  21.9277930
  41.7023373  31.5396452  22.4984622  41.7216730  32.7744031  22.3070502
  40.7438755  31.0093498  23.1812310  44.8284483  28.3500886  21.8750596
  45.8875179  28.7413239  22.2572446  44.3640566  27.1683145  22.2624421
  43.4392929  26.8612695  21.9966745  45.1143980  26.1893630  23.1018424
  45.1884699  26.5772367  24.1177988  44.2276335  24.9124932  23.1716847
  43.9446592  24.5447445  22.1853852  45.0023603  23.7121582  23.8401628
  44.3576431  23.0271411  24.3907952  45.5185747  23.2530093  22.9970694
  45.6947231  24.1628814  24.5512056  42.9212666  25.1019430  24.0046167
  42.2534609  24.2506838  24.1368890  43.1859875  25.4884720  24.9888015
  42.2385073  25.8343291  23.5738587  46.5605164  25.8994889  22.6640987
  47.4438334  26.1142993  23.4561920  46.7540407  25.5592966  21.4419174
  45.9262609  25.3211045  20.9145188  48.0240202  25.4767275  20.7531643
  48.6269474  24.7867441  21.3435102  47.8262329  25.0693369  19.2879140
  47.1803808  24.2059302  19.1282153  47.2774506  25.7937312  18.6860919
  49.0755701  24.8459673  18.7337363  49.0311718  24.7882462  17.7765024
  48.8809824  26.6976380  20.7944465  50.0825882  26.5936995  21.1222172
  48.3391905  27.9293656  20.6550288  47.3599672  28.1132460  20.4894638
  49.0796566  29.1620350  20.7761216  49.9785662  29.1218734  20.1609349
  48.1891584  30.2816772  20.4557157  47.8378487  30.1774359  19.4291604
  47.3366165  30.2927017  21.1347938  48.9582729  31.5876961  20.6055760
  49.3248940  31.6566515  21.6297507  49.8173714  31.4786363  19.9436295
  48.1730652  33.2341623  20.2558231  46.8296242  33.3044434  21.4655781
  47.2495222  33.4358430  22.4628377  46.1850834  34.1560912  21.2479448
  46.2257862  32.4014449  21.3757467  49.6202183  29.2488980  22.2430182
  50.8249044  29.4985056  22.3888612  48.8217354  28.9635539  23.2878757
  47.9075766  28.6540031  22.9902267  49.2447662  28.7850785  24.6712470
  49.7428513  29.7356391  24.8621535  48.0056953  28.6077213  25.5483627
  47.1749544  28.2983899  24.9141002  48.0726767  27.6559401  26.7845631
  48.8475561  27.9989743  27.4701166  47.1099997  27.6784134  27.2953033
  48.2932663  26.6274452  26.4988327  47.5485325  29.9667025  26.0303497
  46.6403913  29.8455215  26.6208577  48.2046127  30.5337787  26.6907191
  47.3845005  30.6417608  25.1904178  50.3372240  27.7321720  24.8475862
  51.3204050  27.8867698  25.5804253  50.2184296  26.5583515  24.1686845
  49.3377447  26.2749362  23.7635016  51.2825966  25.5920672  24.2395210
  51.4349508  25.2716565  25.2701640  50.8466625  24.3084025  23.4675145
  50.5459976  24.5542002  22.4490428  51.7207909  23.6857319  23.2770228
  49.7196770  23.4963870  24.1816807  50.2047873  23.0281949  25.0381637
  48.9045525  24.1454315  24.5017076  49.0988874  22.4327564  23.3004570
  48.3260870  22.8054047  22.6281381  49.9090052  22.0603991  22.6734281
  48.4866428  21.4242935  24.1985607  48.8382339  21.3452840  25.1420879
  47.5478792  20.5743599  23.9597583  46.8888855  20.5012989  22.8161836
  47.3116064  20.8947015  21.9875407  45.9756947  20.0704646  22.8399038
  46.9945765  19.9175131  24.9926019  47.6986074  19.7628832  25.7000875
  46.2370777  19.2555356  24.9027324  52.6165915  26.1171508  23.6246943
  53.6549234  25.9416628  24.2358136  52.6971912  26.7207646  22.4557853
  51.8483686  26.8303227  21.9194961  53.8654232  27.4469900  21.9947362
  54.6604633  26.7060018  21.9112873  53.5495424  27.9966116  20.5521131
  52.6065397  28.5431886  20.5620027  54.3739748  28.6889243  20.3814745
  53.4964466  26.8651056  19.6005237  54.4929457  26.3801622  19.0453362
  52.4203444  26.2796116  19.3205523  52.4204588  25.4769492  18.7074995
  51.5791464  26.5830135  19.7900653  54.3145847  28.5334921  22.9138732
  55.5149746  28.5724187  23.2766247  53.3870649  29.3313503  23.4825945
  52.4307203  29.2763495  23.1624627  53.7693024  30.4044843  24.3652582
  54.4063234  31.1243320  23.8513231  52.4631786  31.0531831  24.8076677
  51.8035555  31.2700486  23.9674497  51.9247007  30.3581643  25.4519439
  52.6321316  32.3976779  25.5193758  53.3400297  32.2838926  26.3403749
  53.3566809  33.3767176  24.5147967  52.9844856  33.2861400  23.4943223
  53.2408142  34.3863654  24.9088693  54.4276905  33.1742978  24.5065165
  51.3504219  32.9525113  26.0287142  50.6146669  32.1486568  26.0527635
  51.5934467  33.3495998  27.0142913  51.0128736  33.7781382  25.4022121
  54.5689297  29.8698831  25.6007957  55.6285429  30.3707027  25.9025216
  54.1072178  28.8148117  26.2686801  53.3871603  28.2797575  25.8046341
  54.8763609  28.2007742  27.3871374  54.9483252  28.9968014  28.1282592
  54.0947914  27.1185780  28.0241251  53.7032652  26.4368701  27.2690845
  54.9286461  26.2565875  28.9942956  54.1905022  25.6592631  29.5295000
  55.7711697  25.6572938  28.6491776  55.3799677  26.9664574  29.6874738
  52.9171848  27.7514791  28.7614107  53.2201195  28.3864164  29.5939875
  52.3719215  28.3651590  28.0443430  51.8615437  26.7807579  29.2710972
  52.1339893  25.8980012  28.6926389  51.9933367  26.5215206  30.3215861
  50.8090782  27.0477676  29.1755557  56.2549210  27.7127647  26.9784069
  57.2593212  28.0143714  27.6561046  56.3766241  27.1554303  25.7222891
  55.5010223  26.9204736  25.2770782  57.6642323  26.7561483  25.0336027
  58.1565666  26.1459112  25.7907820  57.3434305  25.7666278  23.8707161
  56.6600275  26.2705874  23.1872821  58.2751656  25.6147742  23.3258200
  56.7421627  24.4342971  24.3962765  57.5280952  23.7964344  24.8006892
  56.0267353  24.6223545  25.1968384  56.0598326  23.5141397  23.3435488
  55.7880783  23.9112544  22.1782804  55.6984901  22.3216867  23.7415838
  54.9544048  21.8196559  23.2785392  55.9898615  22.0717645  24.6757889
  58.6091709  27.9026818  24.6749663  59.7319698  27.6616526  24.2139316
  58.1282425  29.1681409  24.6082544  57.1367455  29.1003776  24.7883606
  58.8327122  30.4281998  24.2214441  59.9071264  30.2445555  24.2204165
  58.4340763  30.8871818  22.7859950  57.3466396  30.9550714  22.7547550
  58.8769674  31.8816400  22.7312374  58.9272451  29.9064946  21.7456293
  60.0412989  29.9513245  21.2072158  58.1027079  29.0600348  21.2921667
  58.4090662  28.2978153  20.7045770  57.2717953  28.9387536  21.8533826
  58.5354662  31.4979029  25.3281164  59.1909885  31.3342214  26.4049911
  57.8403711  32.6028085  25.1098251  57.3927212  32.7430296  24.2153692
  57.8824520  33.7042999  26.0908461  58.8953686  33.7985826  26.4822721
  57.7861929  35.1189590  25.4806590  56.7599821  35.4501534  25.6397414
  58.5420132  35.7693624  25.9208965  57.8466892  35.0907397  24.0044093
  56.8286419  34.5809889  23.4110641  58.8551807  35.5403972  23.4517908
  56.9916296  33.5760283  27.3819447  57.0729256  34.3617320  28.3273053
  56.0514975  32.6334429  27.3417521  55.8879566  31.9548774  26.6117454
  55.1239729  32.3363113  28.4665513  54.4263268  31.6001129  28.0672979
  55.9317255  31.7734671  29.6843982  56.2982798  32.6325607  30.2462697
  55.2160406  31.3719988  30.4018331  57.0229387  30.7386875  29.2328572
  56.7344046  30.2037525  28.3280396  57.9641199  31.2677956  29.0834594
  57.2858047  29.6593595  30.3162575  56.4300346  28.9998102  30.4603171
  58.0866051  29.0019250  29.9777317  57.6931000  30.2522206  31.5882111
  57.0032930  30.7045770  32.1709991  58.9589071  30.4430294  31.9250655
  60.0141811  29.9493456  31.2710142  59.8797083  29.5146060  30.3693366
  60.9202814  30.2880669  31.5614438  59.2708588  31.2084556  32.8606033
  58.5910130  31.7067051  33.4170747  60.2389956  31.4045668  33.0712080
  54.1929197  33.4685636  28.8911271  53.5204124  33.3802152  29.9346113
  54.0699577  34.5543504  28.1580710  54.5365667  34.5919633  27.2631073
  53.5077095  35.8322525  28.6793828  52.8844833  35.5785751  29.5369005
  54.6249199  36.8204808  29.0989089  55.3311062  37.0520020  28.3015442
  54.1048622  38.0639577  29.8215938  54.8733807  38.5783386  30.3985643
  53.6100960  38.6587381  29.0537763  53.4680414  37.6766634  30.6169367
  55.3266001  36.1839342  30.1292324  55.8697510  35.5205560  29.6973586
  52.6412916  36.5245461  27.6341510  53.0837250  36.7658544  26.5130615
  51.3901138  36.7476916  27.9661202  51.0784626  36.5939856  28.9144611
  50.3615046  37.3207045  27.0515752  50.6752014  37.6396775  26.0576177
  49.2622709  36.2911725  26.8219733  48.5719252  36.5422201  26.0166764
  49.7592306  35.4185939  26.3980222  48.4779549  35.9071374  28.0021310
  49.1012573  35.0072956  28.9422536  50.0936079  34.6315074  28.7412119
  48.3171511  34.5312119  30.0231481  48.7500048  33.7646842  30.6488323
  47.1055460  35.1775455  30.3242612  46.6863394  34.8169804  31.2519789
  46.5255785  36.1150622  29.4322491  45.5675364  36.5461779  29.6826410
  47.1798325  36.4876890  28.2553673  46.6989565  37.2301435  27.6357555
  49.6612883  38.6503839  27.5100160  50.0660419  39.1830039  28.5591865
  48.7324524  39.1963887  26.7366958  48.6585712  38.7993670  25.8109426
  48.1280184  40.5272484  27.0652890  48.6849022  40.9601259  27.8963113
  48.2691050  41.4497995  25.8457112  49.2996120  41.7674732  25.6868482
  47.9079247  40.8900881  24.9829412  47.7010202  42.3699093  25.9827662
  46.6408062  40.4565907  27.6054645  45.8172894  39.6758723  27.0829391
  46.1812687  41.3567352  28.4981704  46.8671799  41.8757582  29.0275502
  44.7869158  41.4171553  28.9577246  44.2813587  40.8670759  28.1640458
  44.8376226  40.7554054  30.4160285  45.5735970  41.1879158  31.0937977
  43.4228563  40.9983921  31.1097383  42.5834942  40.6656694  30.4991102
  43.3832550  40.3759241  32.0036435  43.2752037  42.0602226  31.3067293
  44.9804831  39.2306089  30.3238034  44.1952085  38.9235902  29.6330166
  45.9621763  38.9256978  29.9612999  44.7153568  38.7771249  31.2788749
  44.4252825  42.8592634  29.0265942  44.9583912  43.6953783  29.6674871
  43.5746193  43.1885290  28.0327916  43.1868410  42.3562145  27.6120925
  43.0200672  44.4743013  27.6820588  43.8526869  45.1615381  27.5319076
  42.3213482  44.3405294  26.3320446  41.4909267  43.6404228  26.4234233
  41.9180870  45.3031731  26.0177135  43.0933285  43.9421129  25.0979877
  43.4262562  42.9198217  25.2773762  42.3195839  43.8538933  23.7815547
  43.0246782  43.5779428  22.9974651  41.6766500  42.9737043  23.7780023
  41.6529655  44.7020578  23.6255383  44.2857933  44.9277449  24.8131251
  44.7131109  44.6893311  23.8391328  43.9362288  45.9596920  24.7816372
  45.1063156  44.7051144  25.4952407  42.0731163  45.0323248  28.7706447
  41.1037588  44.3935633  29.1940570  42.2761917  46.3098383  29.0711403
  43.0959177  46.7418337  28.6692309  41.2646961  47.1984625  29.6440005
  40.4962397  46.6321135  30.1701522  41.9634581  48.1597567  30.6008387
  41.2275600  48.7962675  31.0921693  42.4531269  47.6566362  31.4346218
  42.5854254  48.8885927  30.0811744  40.5458689  47.9558039  28.5402894
  41.2014914  48.7655544  27.9303312  39.2173553  47.6667595  28.3414483
  38.8265395  46.9560671  28.9433455  38.4067535  48.1498528  27.1469522
  39.1220856  48.2824516  26.3352776  37.3153973  47.1703625  26.5999269
  36.5754080  47.0266771  27.3872447  36.8529296  47.6112223  25.7168221
  37.8334212  45.7677698  26.2660480  38.2333350  45.5106068  24.9481106
  38.3509541  46.3130903  24.2349601  38.6918283  44.2232466  24.5944667
  39.0715241  44.0046501  23.6073279  38.7139630  43.2196569  25.5620456
  39.1284609  41.9438839  25.2510905  39.5787954  41.5567160  26.0053468
  38.2867813  43.4944344  26.8853831  38.3215332  42.6896620  27.6047826
  37.7315021  44.7728205  27.2452998  37.2455311  45.0162125  28.1785703
  37.8770304  49.4673443  27.4226046  37.4574280  49.8361778  28.4751058
  37.8506684  50.2608728  26.3679385  38.2197571  49.9336338  25.4865837
  37.2095323  51.6317987  26.2710619  37.2123146  52.2167540  27.1907997
  38.1613374  52.4665403  25.3438592  38.1940460  52.0105457  24.3543649
  37.8251553  53.4972477  25.2310514  39.5067596  52.4650526  25.7750440
  39.5459056  53.1271458  26.4690924  35.7522154  51.5048313  25.7922435
  34.8698497  52.1789217  26.2624478  35.5221915  50.5500031  24.8795891
  36.3383508  50.0701714  24.5278144  34.2464972  50.0247240  24.4255328
  33.5544348  49.8745632  25.2541471  33.5594320  50.9456921  23.4477019
  33.3079386  51.9140482  23.8802862  34.2159057  51.1523771  22.6024652
  32.2207332  50.4977846  22.8683257  31.7371058  49.4161224  23.2574844
  31.7649722  51.2859344  21.9265246  30.8250237  51.1340332  21.5895939
  32.2663021  52.0989799  21.5982866  34.4400597  48.5739470  23.8401532
  35.0144696  48.3789873  22.7697659  34.2382932  47.5404930  24.6789122
  34.0971565  47.7653551  25.6533957  34.3333459  46.1204290  24.1809893
  35.3249669  46.0092688  23.7423110  34.1678524  45.1539612  25.3159380
  34.7435713  45.5953741  26.1294532  32.7861381  44.8443174  25.8344817
  32.2880721  45.7847261  26.0704160  32.3042846  44.1503477  25.1457667
  32.8003430  44.3714523  26.8164706  34.8729420  43.8364935  24.9161363
  35.9514523  43.9919615  24.9434161  34.8247242  43.0879259  25.7069707
  34.4772553  43.5317612  23.9472842  33.3617043  45.7145262  23.0550742
  33.8287306  45.0986767  22.1265268  32.1001792  46.2565422  23.0449557
  31.7535448  46.5572786  23.9446807  31.1244726  46.0773897  21.9711280
  31.0581803  44.9897051  21.9456744  29.7742867  46.7022324  22.2941470
  29.4351625  46.3535643  23.2696080  29.9624467  47.7727413  22.3760390
  28.6508107  46.6850567  21.2007833  27.9268956  47.2982740  21.7374516
  29.0468359  47.0125151  20.2395177  28.1989789  45.3498745  20.9180260
  28.5274625  44.3696308  21.5012622  27.3400569  45.2338648  19.9658966
  26.9451404  44.3048096  19.9975121  27.0509911  46.0861444  19.5074570
  31.6369104  46.4619875  20.5792546  31.3455153  45.6831837  19.6495235
  32.4992585  47.4848461  20.4240298  32.4730825  48.1098652  21.2169766
  33.1484580  48.0381775  19.2211556  32.7225327  47.6265335  18.3061492
  33.0023050  49.5650053  19.1303551  33.4347272  50.0744247  19.9915206
  33.5283899  49.9990988  18.2801175  31.5076566  49.9250031  18.8924861
  30.9231472  49.8665762  19.8106551  31.5038371  50.9815025  18.6243534
  30.7240033  49.2963219  17.7439141  31.3088322  48.9307690  16.6765308
  29.4857693  49.2412138  17.8757453  34.6628499  47.7872133  19.1136765
  35.2874947  48.1300592  18.0891430  35.2523923  47.0992279  20.1425481
  34.6157122  46.8407488  20.8827734  36.6259718  46.6914129  20.2487803
  36.6909575  46.0452414  21.1241889  36.9696355  45.7613087  19.0352619
  36.1260223  45.1916647  18.6454856  37.3202753  46.2990189  18.1543446
  37.9491949  44.6641159  19.4652689  38.9015198  45.1437759  19.6913397
  37.4594069  44.0973759  20.2571106  38.1816959  43.7050676  18.3218098
  38.6084723  42.7717352  18.6890340  37.2343993  43.5002422  17.8230274
  39.0188479  44.3056059  17.2640932  39.4319081  45.2228403  17.3544967
  39.2834139  43.8465738  16.0709822  38.9074874  42.6676178  15.6983399
  38.5673547  42.0317602  16.4055157  39.0129614  42.4620771  14.7151160
  39.7864389  44.6360016  15.2152836  40.3067207  45.4380083  15.5411541
  39.7918725  44.3335342  14.2516530  37.6694345  47.7675533  20.5474162
  38.8725114  47.5885963  20.2938271  37.1480560  48.9143419  20.9803963
  36.1891055  48.8241673  21.2843370  38.0670929  49.9690199  21.4272428
  38.8674855  50.1091290  20.7007146  37.3799062  51.3618803  21.6060352
  36.8213081  51.4208174  22.5401640  38.0735373  52.1933985  21.7307615
  36.3370919  51.6838169  20.4244280  35.5622888  50.9172249  20.4350686
  35.8632493  52.6528311  20.5812263  37.1170902  51.7881441  19.0800905
  37.7670574  50.8166838  18.5919249  37.0371747  52.8584146  18.3914113
  38.6363506  49.4682264  22.7909684  37.8910065  49.0921068  23.6766076
  39.9840331  49.5980787  22.9490638  40.4698324  49.9593830  22.1406364
  40.7658625  49.4744396  24.1289783  40.2092695  49.8868370  24.9705458
  41.1780024  48.0300283  24.2869496  41.8564034  47.9764605  25.1384234
  40.3413296  47.3330641  24.3351316  41.6892767  47.7969503  23.3529377
  42.0290995  50.3352928  24.0635800  42.8141356  50.2965975  23.1536841
  42.3064137  51.1100006  25.1626205  41.5720081  51.2862062  25.8332133
  43.3938122  52.1022034  25.1316118  43.8533068  52.2079897  24.1488743
  42.9807806  53.5129118  25.6816840  42.4186277  53.2913256  26.5888715
  43.8434935  54.1724968  25.7753086  42.0495272  54.1180706  24.6884584
  41.3229704  53.4011364  24.3060708  41.4422703  54.8091507  25.2730465
  42.6703119  54.8777246  23.4799314  43.9283085  54.8404360  23.2576895
  41.9066238  55.3126383  22.5808692  44.5635557  51.6018677  26.0130501
  45.6996489  51.9699907  25.7414007  44.2715788  50.7371950  27.0103121
  43.3142567  50.4374218  27.1276665  45.1919889  50.3194761  28.0897713
  46.2341595  50.4450464  27.7961493  44.9044466  51.1303949  29.3899393
  43.8192320  51.1546516  29.4890475  45.2007961  50.7275438  30.3584409
  45.4588795  52.5266171  29.3168831  44.6762228  53.5863781  28.9007401
  43.6239767  53.4644508  28.6902380  45.3038120  54.8384619  28.6993027
  44.6729803  55.6428146  28.3507752  46.6719103  55.0309229  28.8989806
  47.2388697  55.9347057  28.7312603  47.4491739  53.9337826  29.3775654
  48.5000229  54.1176653  29.5458245  46.8643618  52.6616144  29.5649242
  47.5003910  51.8311071  29.8334718  45.0471878  48.7686920  28.4142685
  44.3195963  48.0625820  27.7595997  45.8487463  48.2635927  29.3701029
  46.6224003  48.8430405  29.6630239  45.7508087  46.9486189  29.9056792
  44.8719168  46.9140577  30.5494666  45.5441952  46.2565660  29.0893030
  47.0624018  46.4548826  30.7080722  47.9673100  47.2709513  30.9537268
  47.1386337  45.1676607  31.0631704  46.4206123  44.5447493  30.7218146
  48.4354925  44.6149254  31.6838121  49.2533779  45.3182077  31.5271163
  48.2447290  44.6426344  33.2375550  47.3584080  44.0423298  33.4429264
  49.2355585  43.8725567  34.1009951  49.1538525  42.8243971  33.8132620
  50.2005005  44.3625116  33.9708900  48.9909172  43.9335728  35.1614332
  48.1469584  45.9593630  33.8526201  47.3617697  46.4568901  33.6127329
  48.7821579  43.1941080  31.2643528  47.8245592  42.4717760  31.1132216
  50.0406075  42.7857733  31.1374688  50.7782841  43.4505415  31.3219237
  50.4820538  41.4074421  30.7750583  49.8237133  40.9788132  30.0194359
  51.9641304  41.4340544  30.4376531  52.2766876  40.3994560  30.2961850
  52.3623037  42.1675777  29.1527343  51.6350937  41.9444990  28.3720279
  52.6097345  43.1996441  29.4011855  53.3132076  41.7865896  28.7802696
  52.6181459  41.9755554  31.5232491  53.5757351  41.9685459  31.4556050
  50.2301359  40.4316282  31.9535136  50.0441742  40.7795429  33.1223011
  50.3180456  39.1483736  31.6536736  50.1186180  39.0509415  30.6683612
  50.2406502  37.9614973  32.5524449  50.4617500  38.3770895  33.5355496
  48.8266516  37.4098158  32.5664949  48.7784815  36.5479088  33.2319975
  48.1432962  38.1406379  32.9989624  48.4492970  37.1099758  31.5888453
  51.2339020  36.8092060  32.1691823  51.1911535  36.2501192  31.0400295
  52.1607685  36.5385365  33.0855894  52.0547390  36.9950938  33.9802480
  53.1285381  35.4170251  32.9873991  53.3208036  35.3460264  31.9168425
  54.5117760  35.7668495  33.5934138  54.9838018  36.6316938  33.1272197
  54.3896055  35.9251857  34.6649075  55.4840422  34.5862460  33.2871270
  55.3264809  33.7446833  33.9616990  55.3572178  34.3245363  32.2366405
  56.9145918  35.0215244  33.5822368  57.0547915  35.7498527  34.6476531
  57.7876091  34.6950102  32.7370262  52.5698376  34.0900779  33.4472394
  52.0164633  33.9695168  34.5713258  52.6861715  33.0383444  32.6332974
  53.1226397  33.1405663  31.7282295  52.2054577  31.6687465  32.9335427
  51.2544394  31.7695141  33.4565306  51.9111443  30.7866621  31.6872859
  52.8445959  30.7823038  31.1244822  51.4401245  29.3742228  32.0891666
  51.5306854  28.6621594  31.2688851  52.1554375  29.0122247  32.8276730
  50.4958296  29.4425941  32.6292896  50.8908749  31.5083623  30.7847977
  49.9671316  31.7377543  31.3160014  51.2406683  32.4951673  30.4815412
  50.4885292  30.7730055  29.4261742  50.0758886  31.4552760  28.6829710
  51.4110708  30.3318334  29.0488362  49.8451424  29.9115062  29.6049881
  53.2150412  30.9747601  33.8994288  54.4006634  30.8324337  33.5464787
  52.6971769  30.3918791  35.0149059  51.7032099  30.3058386  35.1721311
  53.5588884  29.5160604  35.8417106  54.5959902  29.5166755  35.5062747
  53.8463736  30.0553751  37.2266507  54.4688272  29.3137860  37.7273512
  54.3519592  31.0208583  37.2444749  52.6215744  30.1143456  38.1229591
  52.0105362  28.9408684  38.6257458  52.3887110  27.9740977  38.3278537
  50.8222628  28.9865303  39.4028234  50.2786398  28.0871582  39.6518373
  50.2069521  30.1959372  39.5803237  49.0483236  30.3293514  40.2951622
  48.7176991  29.4736981  40.5782604  50.8619308  31.3866949  39.0875697
  50.4219770  32.3121285  39.4287658  52.0703316  31.3747168  38.3709574
  52.5212193  32.3348475  38.1678319  53.0806351  28.0345297  35.8871317
  53.8863087  27.2335958  36.1583066  51.8387938  27.6698828  35.4556918
  51.0821581  28.3383393  35.4279232  51.4071417  26.2346411  35.4788184
  52.3401403  25.7447147  35.2002835  51.2213945  25.6589103  36.9073248
  52.0049524  26.1401320  37.4926114  50.3621387  26.0644054  37.4415112
  51.4691925  24.5983648  36.9513702  50.3720236  25.8671904  34.4188714
  49.8185730  26.7949510  33.8051510  50.0716448  24.5653319  34.2530036
  50.6487465  23.9723349  34.8321533  49.4120550  23.9673758  33.1050038
  48.4808302  24.5265365  33.0141187  50.2626657  24.0959692  31.7818832
  50.3533173  25.1511192  31.5239334  51.2955475  23.8697863  32.0466352
  49.8455095  23.1880260  30.5561423  49.3574333  23.8456702  29.4307184
  49.1752434  24.9069190  29.5141506  49.0304708  23.2145286  28.2334161
  48.6166954  23.7089729  27.3669791  49.3636513  21.8392038  28.1626940
  49.0492010  21.1518669  27.0138311  49.3691111  20.2497745  27.0879006
  49.8678875  21.1489534  29.2782187  50.0408745  20.0839376  29.2311406
  50.1801348  21.7971969  30.5009413  50.7161665  21.3662791  31.3336325
  48.9845753  22.5014329  33.3895636  49.5740747  21.6664338  34.0978169
  47.7791595  22.1003389  32.9130721  47.2937346  22.8309226  32.4123693
  47.1512699  20.7545733  32.9630661  47.9558563  20.0192261  32.9595399
  46.2164068  20.7125735  34.1308761  46.7580652  20.7330585  35.0765443
  45.4930353  21.5260577  34.0754199  45.6480265  19.2729950  34.2841673
  45.2067089  18.9450932  33.3429909  46.4562798  18.5603380  34.4483376
  44.5003271  19.1399038  35.2955151  44.8392725  19.5052493  36.2649155
  43.7258339  19.7969615  34.8998618  43.8431549  17.8234923  35.4295588
  43.2121325  17.5028932  34.7090530  43.8358355  17.0161855  36.4608383
  43.0715227  16.0149372  36.4216852  42.4642801  15.8284593  35.6364560
  43.0392742  15.4921484  37.2852540  44.4641256  17.2718489  37.5708103
  45.1467848  18.0159879  37.5891089  44.5413542  16.6142774  38.3335257
  46.2507820  20.5212665  31.7377090  45.3485727  21.3296342  31.5409684
  46.4447355  19.4805729  30.9517884  47.1380091  18.7881207  31.1967087
  45.6415701  19.2016292  29.7744846  45.0650930  20.0986242  29.5482659
  46.5408516  18.9395452  28.4853101  45.8543444  18.8139379  27.6480317
  47.1726274  19.8187912  28.3592725  47.4375963  17.7026474  28.5573721
  48.0532169  17.8815424  29.4389081  46.7878962  16.8386316  28.6969113
  48.4518003  17.4699676  27.3961639  48.7355471  16.3301909  26.9961619
  48.9279652  18.4634328  26.8035579  44.6762896  18.0505407  30.1554871
  45.1442146  17.0329702  30.6856084  43.3938694  18.2576668  29.8845458
  43.1143427  19.1656828  29.5418072  42.3587894  17.2765362  30.2642035
  42.8172016  16.3167930  30.5026436  41.5895319  17.9109740  31.4777017
  42.2909260  18.1987214  32.2608709  41.1122274  18.8351572  31.1518741
  40.4764843  17.1234691  32.1913218  39.6667647  17.8107429  32.4364853
  40.0054646  16.3902903  31.5365767  40.8955765  16.3858533  33.5134888
  42.0958900  16.2533152  33.8662791  40.0553846  15.8319747  34.2105079
  41.4014387  17.0528865  29.1024184  40.7872057  17.9648769  28.5636401
  41.2515783  15.7524621  28.7935662  41.7900038  15.1090038  29.3558526
  40.6037521  15.2207935  27.6076245  40.5541325  16.0478902  26.8994188
  41.4777613  14.1675591  26.9360495  41.5835857  13.2737899  27.5509310
  41.0241032  13.7342358  26.0446882  42.8142691  14.7618949  26.4158797
  43.1781626  14.0604043  25.6651545  42.6219988  15.5819881  25.7240844
  43.8997078  15.0671113  27.4548435  44.0714502  14.3993628  28.4525633
  44.8413610  15.8543038  27.1503973  45.6285000  15.6537604  27.7506423
  44.8479271  16.4595211  26.3418365  39.2248702  14.6389329  28.0357647
  38.5211754  13.8799584  27.3264098  38.7378049  15.1028097  29.0903187
  39.2706132  15.7723916  29.6268582  37.5655293  14.5640445  29.8038912
  37.8023171  13.5460639  30.1133251  37.4563694  15.3696799  31.1557555
  38.3303022  15.1841927  31.7802024  37.4783945  16.4486325  31.0025287
  36.2914586  14.9259055  32.0855904  35.6993365  15.7865155  32.7466154
  35.8163285  13.7883997  31.9190836  36.3111472  14.5065522  28.9467740
  36.0066366  15.5311024  28.2677770  35.5455589  13.3710563  28.9441895
  35.6822562  12.6695025  29.6577978  34.3143821  13.0960405  28.1022549
  34.1142344  12.0300424  28.2103729  33.0916047  13.8708019  28.6122441
  33.0117702  13.6919725  29.6845055  33.2105303  14.9453115  28.4730029
  31.7045927  13.6269188  27.9727387  31.1455321  14.6681035  27.1963906
  31.6138077  15.6404221  27.1548820  29.8535419  14.5112193  26.6888666
  29.3550897  15.2815366  26.1191702  29.2548776  13.2433105  26.6901636
  28.3423758  13.0824518  26.1353111  29.8516536  12.1863008  27.4576783
  29.3765020  11.2166727  27.4791145  31.0794044  12.4009550  28.0949116
  31.4778113  11.6265905  28.7336826  34.5688677  13.1867838  26.6110349
  33.6751080  13.4427440  25.7344317  35.8403921  12.9870582  26.1940384
  36.5700459  12.8033292  26.8677974  36.2245560  12.9794097  24.8244619
  37.0101023  12.2245538  24.7896457  35.4481506  12.6107168  24.1541195
  36.7282176  14.3237770  24.2438889  36.7851448  14.4471240  22.9847527
  36.9783616  15.2485919  25.1146364  37.1925521  15.0588799  26.0832596
  36.9984055  16.6810715  24.6766496  37.1115518  16.7540658  23.5949945
  35.6776929  17.4498677  24.9551082  35.5977607  17.8235912  25.9759116
  35.6303215  18.7317908  24.0326166  35.8583379  18.4405267  23.0072999
  34.7191310  19.2825317  24.2661214  36.5127659  19.2492700  24.4089222
  34.3722057  16.6156399  24.6665335  34.3523240  16.2312770  23.6467433
  34.2982602  15.7565188  25.3332734  33.0928063  17.3648858  24.8412895
  32.9703617  17.8697753  25.7995200  32.8268647  18.0110407  24.0047145
  32.3416972  16.5879107  24.9835753  38.1576061  17.4490726  25.3696775
  38.2915449  17.5633669  26.5701032  39.0962148  17.9889464  24.5933056
  39.0791464  17.8694546  23.5905433  40.3312683  18.6500788  25.1786876
  40.5316448  18.0140126  26.0408783  41.5705919  18.5816801  24.2430639
  41.7452335  17.5126517  24.1214943  41.2837315  19.0002275  23.2783699
  42.8557396  19.2037582  24.8082876  42.7657413  20.2863264  24.7185683
  42.8724051  18.9667010  25.8720684  44.1112614  18.6152208  24.1224670
  44.9048519  18.0356693  24.8472762  44.4579458  19.1057158  23.0763483
  39.8956323  20.0444055  25.5889416  39.4970274  20.9321785  24.8485279
  40.2253294  20.2566123  26.8457794  40.4983282  19.4912636  27.4456215
  40.2905273  21.5890598  27.3991704  40.1397276  22.3918867  26.6774845
  39.2038369  21.6484189  28.5565329  39.5359063  21.0046244  29.3710017
  39.1615701  23.1221485  29.1100478  40.0828505  23.5598040  29.4944954
  38.7296987  23.6985660  28.2919192  38.4656930  23.1738281  29.9474168
  37.8030610  21.1093521  28.1712842  37.4723077  21.6221762  27.2681165
  37.8944898  20.0531864  27.9177976  36.7031503  21.1386132  29.2802095
  35.9793043  20.3660393  29.0208292  37.2057176  20.8328032  30.1978230
  36.1401868  22.0706487  29.3300462  41.6597605  21.7244411  28.0794740
  42.1530914  20.6705809  28.5487103  42.2498465  22.8762102  28.1787968
  41.7925167  23.6618567  27.7386665  43.5985327  23.1796312  28.7469888
  44.0353394  22.3686433  29.3297410  44.5086145  23.5106111  27.5179291
  43.8132524  23.9350772  26.7937708  45.6195307  24.5600486  27.8262043
  46.3345242  24.6275711  27.0062423  45.1288128  25.5158567  28.0098486
  46.1570835  24.2758083  28.7308288  45.2316236  22.2236609  27.0531917
  45.8484983  21.9685674  27.9148793  44.4702244  21.4999795  26.7622399
  45.8193731  22.2925115  26.1378145  43.5030413  24.3434429  29.8207331
  42.7956581  25.3128195  29.6910858  44.1646099  24.0708470  30.9289646
  44.6513224  23.1911802  31.0258937  43.8230896  24.6227217  32.2797990
  43.1839371  25.4948306  32.1419120  43.0823183  23.4660888  33.0330110
  43.7091446  22.5828099  33.1555057  42.8212357  23.9145589  33.9915538
  41.8378735  23.1046581  32.2374153  41.2971830  24.0185571  31.9913483
  42.0980740  22.5352240  31.3451481  40.9685898  22.0650601  32.9644918
  41.5877771  21.2916136  33.4189010  40.5224514  22.6110053  33.7957597
  39.9724150  21.3406205  31.9951177  39.5036244  22.0742202  31.3392448
  40.6044960  20.7236052  31.3564706  38.8320255  20.6092715  32.6273751
  38.2248926  20.2094436  31.9262123  39.0743351  19.8395419  33.2347512
  38.2387471  21.2661743  33.1137943  45.1249647  25.1442623  32.9530478
  46.0686731  24.4070148  33.1723309  45.2351236  26.4248681  33.1982398
  44.4202471  26.9960141  33.0254173  46.5372801  27.1416187  33.1676126
  47.3695230  26.4470911  33.2821035  46.6322708  27.7254128  31.7344499
  45.7583284  28.3536124  31.5621376  47.9912519  28.4531736  31.6142535
  48.2907724  28.7314343  30.6038260  47.8311872  29.3463326  32.2181988
  48.8862324  27.9189181  31.9331336  46.6141319  26.5621114  30.6884909
  47.4402332  25.8848357  30.9051847  45.6491184  26.0724378  30.5578470
  46.7933846  27.0606494  29.7358966  46.4955902  28.2031846  34.2162633
  45.4573584  28.7055516  34.6117711  47.6701069  28.4601450  34.8183322
  48.4756660  27.9971862  34.4222975  47.8740406  29.2136359  36.0556746
  46.9351196  29.6630764  36.3789988  48.2099104  28.3123970  37.2204924
  49.1876841  27.8579760  37.0606112  48.2045794  28.9019346  38.1372905
  47.1191216  27.2906065  37.3534298  47.1655941  27.0078778  38.4050989
  46.1669254  27.7271295  37.0519829  47.2597075  25.9353662  36.7139244
  47.2404528  26.1421585  35.6438947  48.2583094  25.5039787  36.7832303
  46.2516737  24.9073744  37.1555352  45.3272724  25.4846931  37.1386981
  46.2843609  24.0803051  36.4463162  46.5409994  24.3060660  38.5160661
  47.5273371  24.0932894  38.4717155  46.5408802  24.9507976  39.2935133
  46.0264635  23.4513474  38.6735678  48.9232349  30.3382134  35.9309363
  50.0881529  30.0770521  35.6222010  48.5629034  31.6297817  36.2659192
  47.7017832  31.8948436  36.7223334  49.3284321  32.8532815  35.9542179
  50.3884697  32.6323152  35.8293533  48.9468288  33.2742786  34.5147848
  49.4665623  34.1788054  34.1988635  49.2955685  32.5236678  33.8055110
  47.8727388  33.4429741  34.4374537  49.2867470  33.9858603  36.9941163
  48.5779333  33.8631129  38.0412173  49.9913454  35.0705266  36.7317152
  50.6380892  34.9905133  35.9600806  50.0408316  36.2525964  37.5130463
  49.0863466  36.4746404  37.9902792  51.2016487  36.2191820  38.5362387
  51.0739040  35.3293705  39.1526937  52.5793886  35.9530568  37.8039908
  53.4376860  36.0743308  38.4648395  52.4631500  35.0083375  37.2728610
  52.6886702  36.7404962  37.0582676  51.4051104  37.4277258  39.4063687
  52.1219063  38.0682063  38.8924718  50.4418612  37.9368854  39.4380808
  51.8951607  37.2169828  40.8143711  51.2270832  36.6385102  41.4524460
  52.9134417  36.8352175  40.8882236  51.9333410  38.2084084  41.2657261
  50.1175737  37.5117230  36.6231108  50.8757448  37.5688219  35.6683111
  49.4556475  38.5836172  37.0132065  48.7853384  38.3691740  37.7376390
  49.6435404  39.9146223  36.3698626  49.4759512  39.8236895  35.2966690
  48.8494110  40.5574036  36.7497230  51.0533142  40.5876160  36.6113377
  51.5838337  40.4744673  37.6933551  51.5532255  41.3635206  35.6012535
  51.0605383  41.3140297  34.7209620  52.9867840  41.6979933  35.5033302
  53.4517288  41.5477419  36.4776778  53.7310934  40.7020664  34.5855737
  53.1222630  40.4913282  33.7063599  54.6610689  41.1964417  34.3047833
  54.0438986  39.2968392  35.1842141  53.2633114  39.1468191  35.9300542
  53.9446878  38.5585833  34.3884492  55.4295444  39.3545818  35.8368874
  56.1193323  39.7682142  35.1012206  55.4130125  40.0583792  36.6690493
  55.8871794  37.9970050  36.1848426  56.2272024  37.4879742  35.3814912
  56.0978746  37.4186802  37.3398542  55.7545710  37.9764891  38.4884763
  55.0774622  38.7258983  38.4918094  55.7378912  37.3497772  39.2803431
  56.7105865  36.3167667  37.3189545  56.8800354  35.8361840  36.4469266
  56.8310785  35.8392692  38.2007575  53.2697964  43.1128263  35.2351999
  53.8564444  43.8221073  36.0650110  52.8581047  43.6499691  34.0883994
  52.4033451  43.0866528  33.3841515  53.3241940  44.9372673  33.5980892
  53.5638952  45.5137873  34.4915485  54.6283722  44.8470163  32.8031111
  55.0878096  43.9296675  33.1711936  54.3872404  44.7601795  31.7436695
  55.4041576  46.1258364  32.9765868  54.8956203  46.9068098  32.4112844
  55.3675222  46.4897966  34.0033722  56.8176746  46.1326265  32.5966954
  57.4125004  45.1049376  32.2869182  57.5274181  47.2812796  32.6786590
  58.5331917  47.2699642  32.5870705  56.9771290  48.0635452  33.0032253
  52.2192049  45.6414080  32.7488828  51.6170645  45.0730801  31.8592787
  51.8046665  46.7793226  33.1511378  52.3639250  47.1377134  33.9119816
  50.8294439  47.6734209  32.4813056  49.8244476  47.2560358  32.4191141
  50.8158493  48.8617373  33.3797169  51.8445826  49.1557980  33.5878921
  50.3427696  49.7348166  32.9302335  50.0829411  48.6159563  34.7092557
  49.0085745  48.4620285  34.6085382  50.5158854  47.7177620  35.1496124
  50.2519989  49.8376369  35.6121969  49.4450903  49.6081161  36.3081288
  51.2486506  49.8925591  36.0501051  49.9509096  51.1578989  34.9468517
  48.9738226  51.2872314  34.7262287  50.7616234  52.1859074  34.6987534
  52.0027351  52.2143459  35.0222111  52.4419260  51.4677715  35.5416775
  52.4676847  53.0815125  34.7942996  50.2999783  53.2515907  34.0935707
  49.2958975  53.3553696  34.0595627  50.9412146  53.9974880  33.8643360
  51.2606812  47.9487658  31.0339546  52.4622917  47.9073763  30.7499671
  50.3814793  48.1926727  30.1118779  49.3957520  48.1518078  30.3281569
  50.7527685  48.7367916  28.7304139  51.6642332  49.3341827  28.7518287
  50.8954906  47.4669933  27.8063250  51.0077572  47.8531170  26.7932081
  51.7416048  46.8732119  28.1521797  49.6537876  46.4929485  27.6969171
  48.5127878  46.9095802  27.1259165  48.5194969  47.9246092  26.7570233
  47.4085140  46.0300398  26.8992782  46.5725994  46.4368248  26.3495660
  47.4988031  44.6767807  27.3181891  46.7152071  43.9633369  27.1099162
  48.6521101  44.2681265  28.0162024  48.7414885  43.3396912  28.5606599
  49.7001410  45.1575661  28.1661081  50.5515957  44.9256897  28.7887287
  49.7014093  49.7110319  28.2546711  48.6909771  49.9459362  28.9036751
  49.9389076  50.3238392  27.0947790  50.8628750  50.2846527  26.6887617
  48.9985132  51.1770582  26.4183402  48.0308628  51.1357260  26.9183946
  49.5952702  52.6409197  26.5130210  49.5672321  53.0039406  27.5404096
  50.6298542  52.5074816  26.1968970  48.9224625  53.6866760  25.5651736
  48.7260294  53.2062101  24.6067047  47.9493380  53.8982582  26.0083008
  49.7234964  54.9573946  25.4291391  49.1599369  55.7907438  25.0095749
  49.9798536  55.4520559  26.3659906  51.0013580  54.7767591  24.6095824
  51.6570330  54.0310526  25.0591540  50.7806396  54.3838596  23.6171007
  51.8053293  55.9169483  24.4904637  52.1412897  56.2568188  25.3802514
  52.6071787  55.7373953  23.9031839  51.3768530  56.6656446  23.9651489
  48.8062620  50.7258177  24.9498773  49.8151302  50.4011345  24.2963672
  47.6000023  50.5601740  24.5147753  46.8938923  50.9433794  25.1268768
  47.2455931  49.9670076  23.2046413  47.9490852  49.1499376  23.0446553
  45.8262205  49.4211149  23.2563448  45.1729965  50.2431011  23.5491514
  45.4143190  48.9828634  21.8745661  45.6364727  49.7322130  21.1148095
  45.9859371  48.1040525  21.5761590  44.3469524  48.7639475  21.8443918
  45.6036425  48.2414913  24.2300844  44.5764828  47.9376507  24.0282822
  46.3456678  47.5049400  23.9218640  45.8376217  48.6534834  25.2117252
  47.5773001  50.9763670  22.0876265  47.1703291  52.1071005  22.1128345
  48.3542681  50.5637169  21.0731077  48.5992432  49.5851612  21.1232543
  48.7714767  51.3453627  19.8615491  48.4972239  52.3804855  20.0650358
  50.2912188  51.2745047  19.7052240  50.6187105  50.3307009  19.2692339
  50.4781580  52.0792103  18.9941645  51.2131739  51.6861820  20.8474445
  51.2370729  50.8761358  21.5763879  52.6830864  51.7736912  20.2348042
  53.3095646  52.0361900  21.0872817  53.1523609  50.8544683  19.8842084
  52.7811050  52.5302076  19.4562304  50.9374428  53.0149460  21.6007638
  51.7384672  53.1836510  22.3204851  51.0119152  53.8413906  20.8939791
  49.9281073  52.8908110  21.9931173  47.9548693  50.7893562  18.6452830
  47.4379396  51.5675545  17.8278065  47.6942301  49.4738626  18.5191488
  48.0148792  48.9503527  19.3211591  47.0033884  48.7422848  17.4905443
  46.1164808  49.3540239  17.3253989  47.9290771  48.6394930  16.2584472
  48.2760525  49.6383858  15.9940159  48.8157845  48.0160332  16.3731229
  47.1242142  48.0644417  15.0690806  46.8616581  47.0565033  15.3903615
  46.2309933  48.6574173  14.8725128  47.9484320  47.9999018  13.7754095
  47.4452829  48.4128284  12.7175927  48.9773607  47.3513699  13.7412906
  46.5375757  47.3110914  17.8948879  47.3724461  46.5086222  18.3385730
  45.2594042  46.9148159  17.7315426  44.6065855  47.5613594  17.3121345
  44.8056793  45.4661465  17.8544044  45.5120277  44.9857044  18.5314167
  43.4118223  45.3011465  18.4798610  42.6553679  45.5393934  17.7321196
  43.2371187  44.2717314  18.7927341  43.1190729  45.9877825  19.7916317
  43.0438280  47.0589828  19.6046078  41.7429256  45.4902315  20.2710104
  41.4583921  46.0977650  21.1301064  40.9779406  45.6759071  19.5170724
  41.8201017  44.4290400  20.5076885  44.1095400  45.6332207  20.8874297
  45.1252508  45.8654690  20.5672693  43.9661598  46.1620522  21.8297052
  44.0928745  44.5738125  21.1433125  44.9095201  44.7384501  16.5140080
  44.7190523  45.2881336  15.3916490  45.1971626  43.4254503  16.6836882
  45.4353666  43.0818462  17.6030874  45.6784439  42.5895739  15.5738771
  45.2752113  43.0325317  14.6632230  47.1798944  42.5869894  15.4450095
  47.6490259  42.2645664  16.3745582  47.5406456  41.9964981  14.6028244
  47.7576303  43.9890909  15.1412928  47.3738718  44.3481064  14.1863394
  47.5495768  44.6891165  15.9504747  49.2858076  43.7171841  15.0373590
  49.6036386  43.5392952  16.0647058  49.4561243  42.8654146  14.3788910
  50.0494146  44.8765373  14.5495343  49.5785284  45.7526302  14.3739676
  51.3425541  44.8392677  14.2518258  51.9562674  45.8979177  13.8811409
  51.5442848  46.8186617  13.8300753  52.9630899  45.8297253  13.8392377
  51.9607162  43.7283659  14.2636800  51.4183807  42.8779697  14.3165731
  52.9102564  43.6124754  13.9395714  45.0136757  41.1987305  15.5838621
  44.5050335  40.7267284  16.6046178  44.9570465  40.5073977  14.4403958
  45.1025581  41.0725117  13.6160350  44.2307997  39.1877246  14.2429078
  44.1503191  38.6689639  15.1981676  42.8149557  39.3830037  13.6181116
  42.7930212  39.8690009  12.6427007  42.0466185  38.0370259  13.4076238
  41.0585976  38.2426786  12.9957771  42.5350142  37.4386716  12.6385045
  42.0462227  37.5427365  14.3791068  42.1344662  40.2459955  14.5066428
  41.2895584  40.4233646  14.0867913  45.0092268  38.2931852  13.2958245
  45.6213140  38.7796402  12.3347235  44.8158407  37.0081735  13.4121978
  44.3506098  36.7378402  14.2669439  45.1613045  35.9539461  12.4410999
  45.2541208  36.3548565  11.4317656  46.4541531  35.2421451  12.8971004
  46.3363504  34.9402881  13.9378262  46.4500475  34.3352795  12.2923863
  47.7703047  36.0878634  12.6440811  47.6242781  37.1041274  13.0101204
  48.6015129  35.6288218  13.1793118  48.2764435  36.2807918  11.2189555
  47.8453112  35.5628037  10.3047109  49.0726471  37.2944117  10.9421420
  49.3235493  37.4923658   9.9840385  49.4343996  37.8447318  11.7078984
  43.9861679  34.9697709  12.4513721  43.3230591  34.7127461  13.4641516
  43.7765360  34.3545938  11.2911344  44.1856480  34.7525406  10.4578483
  42.9347658  33.1258559  11.1245799  41.9678354  33.4110260  11.5390992
  42.7722597  32.6704669   9.6869332  42.2802496  33.4401011   9.0922129
  43.7439489  32.4270415   9.2572016  42.0025873  31.4548349   9.6695650
  41.0708141  31.6352868   9.8139226  43.5049200  31.9874692  12.0996380
  44.6818876  31.8451548  12.3231864  42.6955986  31.2173820  12.8458238
  43.1623411  30.6783295  13.5611391  41.2984228  31.2495136  12.9637766
  40.8148193  31.9333506  12.2662163  40.6588507  29.8733497  12.6550031
  40.9652996  29.7066092  11.6223443  41.0182810  29.1536260  13.3904684
  39.1085982  29.9168897  12.5687110  38.5351086  30.9752703  12.6128829
  38.5255885  28.8149667  12.3004699  40.8320522  31.7625570  14.4122839
  40.6324768  31.0188770  15.3392947  40.7032681  33.0501890  14.5549178
  41.0017729  33.6382818  13.7899733  40.2155495  33.7068486  15.7990277
  39.8252439  34.7088552  15.6208551  39.4394851  33.0931687  16.2564313
  41.3301039  33.8857269  16.8863142  40.9681225  33.9515257  18.0484617
  42.5617886  34.0007281  16.4674008  42.7567673  33.8913178  15.4824579
  43.7952662  34.2891407  17.1961701  43.5607910  33.9405298  18.2019496
  44.9940586  33.4527993  16.7382908  45.3623962  33.7820697  15.7666862
  46.1305141  33.4889030  17.7015698  46.8822193  32.7771211  17.3603797
  46.7430639  34.3843579  17.8066707  45.7585335  33.2215285  18.6906314
  44.5140171  31.9312167  16.6371286  43.9162207  31.6862488  15.7592154
  45.3864193  31.2964725  16.4818704  43.8247442  31.2985539  17.8485227
  44.5643520  31.2098956  18.6442769  42.9390621  31.8372726  18.1853473
  43.4457016  30.3173256  17.5628316  44.0310526  35.7865262  17.3474908
  44.1041374  36.4760041  16.3323820  44.0880299  36.3148785  18.5616302
  43.9517498  35.6450582  19.3051803  44.0858746  37.7432156  18.7825572
  43.9530182  38.2312584  17.8170156  42.9859066  38.1193948  19.7464788
  43.0379200  37.5362563  20.6659055  43.2781267  39.1497469  19.9491680
  41.4972162  38.0438995  19.3696094  41.2834501  37.0044613  19.1206646
  40.9965706  38.3572745  20.2857161  41.1811829  38.9965677  18.2312441
  40.4117107  39.9218869  18.3641732  41.7666483  38.6933184  17.0571482
  42.0156622  39.5018339  16.5054286  42.4478865  37.9487753  17.0161343
  45.4907036  38.1554842  19.2533684  46.1935902  37.3436809  19.8483992
  45.9982920  39.3596077  18.8724971  45.3823376  39.7723079  18.1866562
  47.1979094  39.9869704  19.2117345  47.4738264  39.5866275  20.1872826
  48.1996822  39.5535326  18.0726635  47.7599955  39.9529028  17.1587241
  49.1923475  39.9626589  18.2606256  48.3760357  37.9933453  17.8806865
  48.3839798  37.4964142  18.8507891  47.6541090  37.6486921  17.1403265
  49.7825575  37.7624917  17.1773064  50.6800365  37.1263862  17.7450061
  50.1251936  38.4330916  16.0864949  51.1229849  38.3906269  15.9357762
  49.4771481  38.9327168  15.4944527  47.0783758  41.5141630  19.3959427
  46.0155010  42.0517206  19.0938103  48.0652523  42.2162724  19.9296153
  48.9528179  41.8113661  20.1911044  48.0495596  43.7325573  20.0354743
  47.5524616  44.0585709  19.1218472  47.2621012  44.1664410  21.3159585
  47.7853966  44.0343904  22.2629666  47.0927572  45.2395821  21.2276888
  46.2657452  43.7268305  21.2699461  49.4089746  44.2905521  19.9585247
  50.3176212  43.7266731  20.5363154  49.6196604  45.3994799  19.2750263
  48.8515282  45.7955456  18.7523341  50.8256006  46.1753511  19.3976665
  51.6203117  45.4601288  19.6097958  51.3166475  46.9469738  18.1392527
  51.6013718  46.2536430  17.3478484  50.5378628  47.6422977  17.8260148
  52.5264502  47.8709269  18.4224284  52.2379255  48.6616087  19.1150141
  53.4232807  47.4028873  18.8283110  52.7884293  48.5043383  17.0360577
  52.9526329  47.8079462  16.2137604  51.8710518  49.0381575  16.7879665
  53.8909483  49.5311737  17.1344769  53.7006474  50.2460527  17.9349983
  54.8602057  49.0499735  17.2651649  54.0443134  50.3020811  15.8577681
  53.2317352  50.7796431  15.4947865  54.8714161  50.8814526  15.8396387
  54.3835402  49.6803617  15.1377034  50.6071186  47.1110344  20.5270481
  49.6233463  47.8383875  20.5098104  51.5638781  47.2304058  21.4168286
  52.4813747  46.8563032  21.2210035  51.3885736  47.9726601  22.7192497
  50.5674171  48.6788893  22.5966311  51.0568571  47.0227385  23.8656783
  51.0583067  47.5292301  24.8308587  49.7136831  46.3021660  23.7393475
  49.6187305  45.7032394  24.6450901  48.9248657  47.0366096  23.5766363
  49.7466946  45.6110716  22.8970909  51.9957161  45.8529949  23.9970565
  53.0551195  46.1094522  23.9980555  51.8373299  45.3460741  24.9489188
  52.0372152  45.1939774  23.1298280  52.7335596  48.7166405  23.1358361
  53.8215542  48.2241869  22.8970194  52.6589108  49.7189903  23.9368129
  51.7546415  49.9156046  24.3414688  53.8088894  50.2769756  24.6115446
  54.7432423  49.8894930  24.2054248  53.8869715  51.8441677  24.4289541
  53.7891102  51.9530535  23.3488297  53.0659103  52.4510527  24.8105955
  55.1444387  52.4068880  25.0275731  54.9796963  52.5144625  26.0996675
  55.9040880  51.6755629  24.7515368  55.5255508  53.7931061  24.5584607
  54.7378159  54.6819878  24.2719889  56.8051577  53.9246416  24.4597483
  57.0766211  54.8544884  24.1737437  57.4108791  53.1245899  24.5742726
  53.7722254  49.9762106  26.0981417  52.8236961  50.2933025  26.8691897
  54.8088312  49.3102884  26.6216350  55.5386448  49.3328714  25.9238076
  54.9878168  48.8925982  28.0086255  54.1166830  48.2920933  28.2705760
  56.1191702  47.8702497  28.1436348  57.0277023  48.3811235  27.8247786
  56.3591146  47.4403238  29.5964742  55.3945112  47.1646738  30.0226903
  57.0149422  46.5697336  29.5881939  56.8298626  48.1852245  30.2380490
  55.8197403  46.5698528  27.3637938  55.6213284  46.8619633  26.3325787
  56.7375612  46.0154009  27.1680832  54.6843195  45.6500912  27.8213906
  54.7545528  44.7259951  27.2476220  54.6253777  45.6296730  28.9096045
  53.7793922  46.2071466  27.5786948  55.1319170  50.0760031  28.9275908
  55.7456732  51.0423136  28.4721899  54.5001125  49.9713612  30.0799155
  54.0767288  49.0880013  30.3259230  54.4260073  51.0677099  31.0835004
  54.9824810  51.9319868  30.7209277  52.9317331  51.3857174  31.2849355
  52.3691320  50.4574823  31.3846993  52.7413082  51.9571447  32.1933985
  52.2339344  52.1424007  30.1342964  52.4796629  51.6786385  29.1789722
  50.7236528  52.1894979  30.4350352  50.5467463  52.6092958  31.4252710
  50.2517653  52.7385902  29.6202254  50.3332615  51.1720514  30.4573250
  52.8196764  53.5647726  30.1458406  53.8982630  53.5317659  29.9920321
  52.3904133  54.2947197  29.4595385  52.7008629  54.0400314  31.1195493
  55.0856972  50.6281996  32.4274445  55.2027416  49.4507694  32.7166629
  55.4239607  51.5579653  33.3666563  55.2390242  53.0334949  33.3839130
  54.2057180  53.2952499  33.1561589  56.0102463  53.3302355  32.6730919
  55.5610371  53.5104370  34.7459674  54.6689606  53.3423710  35.3493309
  55.9054995  54.5444870  34.7597528  56.5877914  52.5427389  35.1426888
  56.7738438  52.5333452  36.2166500  57.5378990  52.8659821  34.7173572
  56.2076759  51.1528778  34.5719242  57.0877171  50.6464577  34.1754746
  55.4264116  50.2915144  35.5324888  54.4243956  50.6960964  36.1183763
  55.9104824  49.1282415  35.8395457  51.4541912  56.3141203  59.6836758
  51.0361958  55.5814838  59.1281366  50.8643579  56.4385414  60.4940557
  52.2794151  55.8675337  60.0574017  51.8184423  57.4871731  58.8557863
  52.3594332  58.1873322  59.4923496  52.7462101  57.0747328  57.6932001
  53.6167145  56.5823889  58.1266975  52.1877146  56.3554621  57.0941830
  53.2936096  58.1693363  56.7749929  53.9867687  57.6588392  56.1064005
  52.4094868  58.5041904  56.2325001  53.8773823  59.3602324  57.4604845
  55.0631189  59.3896627  57.7457142  53.1242990  60.3028631  57.7728939
  50.5075693  58.2049799  58.5302734  49.5945263  57.4316502  58.2957363
  50.4032326  59.5626736  58.5890818  51.2591314  60.0901985  58.6853361
  49.1281986  60.3454494  58.6467981  48.4365082  60.0987816  59.4522905
  49.3430424  61.8745232  58.7624121  49.5050097  62.3135567  57.7779770
  48.1664562  62.4761152  59.4946861  47.1886349  62.1182299  59.1723776
  48.0848694  62.1252155  60.5234289  48.2728481  63.5601282  59.4533920
  50.5354452  62.1166706  59.4863224  50.4450989  61.4954042  60.2125883
  48.1524611  60.0612783  57.5016785  47.0129871  59.8386526  57.7845573
  48.6755562  60.0573492  56.2588596  49.6775341  60.1348925  56.1582518
  47.9665661  59.4010878  55.0650549  47.0672321  59.9616146  54.8098898
  48.9231157  59.5976973  53.8458538  49.0532255  60.6743765  53.7366009
  49.9424791  59.2949581  54.0853262  48.4972668  58.9482927  52.4548864
  48.5293484  57.8610468  52.5253916  47.0589352  59.3738365  52.0413685
  46.8737936  60.4185104  51.7913914  46.7094612  58.7760544  51.1995649
  46.5129900  59.0423775  52.9246473  49.5267630  59.3740225  51.4259243
  49.6186161  60.4600620  51.4394951  50.5083466  58.9474630  51.6324186
  49.2501450  58.9294910  50.4699039  47.5546598  57.9578018  55.2457714
  46.4503765  57.7199745  54.8370552  48.3532190  57.0720720  55.7164431
  49.2172527  57.3159504  56.1791182  48.0290985  55.6820059  55.7740355
  47.6478004  55.3980589  54.7931767  49.2811155  54.8279190  55.9398079
  49.9860239  55.1323032  55.1661444  49.7489309  55.1162291  56.8811512
  49.1226292  53.3582354  55.8156538  50.0446987  52.8955412  56.1675119
  48.4595203  53.1150389  56.6458559  48.4017706  52.5854683  54.2970753
  49.7048092  52.7521610  53.0176592  50.6497908  52.3870897  53.4199429
  49.3876314  52.2324038  52.1135807  49.7897816  53.7950087  52.7121162
  46.9030714  55.3529263  56.7897320  46.1078072  54.4520664  56.4755964
  46.7843294  56.0612917  57.8628016  47.4797297  56.7269278  58.1684875
  45.6651783  56.0450363  58.7787247  45.6794405  55.0461912  59.2148590
  45.8920145  57.1327400  59.8328972  46.1536741  58.0025768  59.2303848
  44.9301195  57.2188759  60.3382969  46.9421625  56.8961477  60.9124947
  47.1763325  57.8083467  61.6944170  47.5641298  55.8249903  60.9661484
  44.2902899  56.1974573  58.1394672  43.5151958  55.2400398  58.1490993
  44.1251802  57.3558235  57.4106216  44.8229456  58.0527115  57.6287508
  43.0992603  57.5876999  56.4775038  42.1899271  57.7780056  57.0475912
  43.3125257  58.9064169  55.7278347  43.0903482  59.6854544  56.4571095
  44.3327045  58.9649534  55.3484821  42.3194313  59.0609503  54.5614386
  42.5998974  59.9281931  53.9636612  42.3702621  58.2247305  53.8641214
  40.8249807  59.2212152  54.9359465  40.3649330  58.3218241  55.3452778
  40.7353163  60.0040388  55.6891060  40.0427532  59.7494125  53.7542343
  40.6137800  60.0313902  52.9703188  38.7781668  60.0717068  53.7307930
  38.0148053  59.9376345  54.7724676  38.3336091  59.5609760  55.6537104
  37.0378113  60.1847172  54.7051382  38.2605982  60.7092905  52.6714563
  38.8435054  60.5910063  51.8551683  37.2585201  60.7879496  52.5726986
  42.7373409  56.3711023  55.6238651  41.5557909  56.0625792  55.5219078
  43.7065840  55.8848381  54.9057770  44.6194029  56.3164711  54.8820496
  43.4978056  54.6691751  54.0288830  42.6750660  54.9634504  53.3772707
  44.7658443  54.3108892  53.1874180  45.5098867  54.0180349  53.9281845
  44.4319105  53.0885983  52.2582150  45.2880001  52.7793694  51.6585636
  44.0060329  52.2749996  52.8454018  43.6219263  53.3291435  51.5696192
  45.2087545  55.5382681  52.3246288  44.4213963  55.6742382  51.5832281
  45.1414824  56.4847565  52.8610420  46.5948343  55.4891443  51.7355633
  47.3708344  55.3018093  52.4777412  46.7376757  54.7056103  50.9914064
  46.8887615  56.3758469  51.1738920  42.9955435  53.4230661  54.7657394
  41.9174910  52.8765392  54.4374180  43.7066936  52.9170799  55.8048582
  44.4521093  53.5387897  56.0840368  43.3534241  51.8886471  56.7350245
  43.4598637  50.8757591  56.3466597  44.3318367  51.9660187  57.8620481
  44.6184349  53.0021572  58.0420017  43.8748646  51.4896536  58.7294340
  45.5532646  51.0897636  57.5075054  45.3320503  50.0353241  57.6728106
  45.8803606  51.3473988  56.5001678  46.7171907  51.5422773  58.4752750
  46.8825293  52.6166296  58.5561037  46.5368271  51.2280369  59.5032930
  48.0099297  50.8039284  57.9838705  47.7065516  49.7703505  57.8172016
  48.3088255  51.2018204  57.0141077  49.1622066  50.8801317  59.0288973
  49.4134283  51.8069649  59.3419075  48.9560652  50.3553820  59.8668957
  49.9450827  50.4610920  58.5476398  41.9172335  52.0559216  57.2811556
  41.1776781  51.0935926  57.2001028  41.4923048  53.2822609  57.6324987
  42.1583414  54.0127277  57.4253273  40.2049446  53.6877155  58.2184553
  39.8594713  52.9981041  58.9886427  40.1890230  55.1713753  58.7332296
  40.9804440  55.4110384  59.4433784  40.2738523  55.8185959  57.8602982
  38.8344526  55.5387926  59.4464064  38.9462852  56.5794277  59.7508287
  38.0838466  55.5270290  58.6561203  38.3525205  54.8108673  60.7294416
  38.0862737  53.7661982  60.5685520  39.2237282  54.8098087  61.3844967
  37.1136999  55.3836107  61.4975739  37.2103095  54.9236393  62.4810362
  37.2582436  56.4474773  61.6856909  35.8286214  55.0035715  60.8514833
  35.6316662  54.0132427  60.8276796  35.0667596  55.2567053  61.4643383
  35.6912041  55.4184103  59.9409199  39.0835810  53.5210514  57.2402573
  38.0976009  52.8876829  57.6959038  39.3199420  53.6433983  55.9119987
  40.1881409  54.0285397  55.5684996  38.2766485  53.5468912  54.9255514
  37.3212838  53.6950779  55.4289627  38.3272171  54.6482944  53.8576221
  39.3296289  54.6181726  53.4305716  37.6867104  54.4155312  53.0069304
  38.0966616  55.9796953  54.4241381  38.7630820  56.2118721  55.2548504
  38.4181857  56.7050314  53.6767292  36.6616797  56.3292408  54.7675085
  35.7072234  55.6788445  54.3898535  36.3658452  57.3668861  55.5486393
  35.3743315  57.4233532  55.7325125  37.1375275  57.7232695  56.0941553
  38.2600021  52.1624899  54.2893791  37.2344208  51.7566681  53.8166428
  39.4798160  51.5691710  54.1917181  40.2517033  52.1230173  54.5345736
  39.7444677  50.1579857  53.7119532  39.4538093  50.0305605  52.6691771
  41.2781763  49.7795916  53.8507414  41.7940092  50.4891920  53.2038355
  41.5948963  49.9268579  54.8832655  41.4928007  48.3641529  53.3919811
  40.8915186  47.6584530  53.9651680  41.1154509  48.0666208  51.9338369
  41.5752792  47.1640682  51.5312576  40.0314188  47.9838181  51.8555832
  41.4164877  48.9677095  51.3995075  42.9416990  47.9981852  53.6067963
  43.2113266  48.1215191  54.6556997  43.1321430  46.9538021  53.3596087
  43.5134983  48.6318302  52.9288292  38.9012623  49.2159653  54.4396400
  38.2054353  48.4323168  53.8234186  38.7779236  49.3203449  55.7698250
  39.3749571  49.9847078  56.2412786  37.9950523  48.4486914  56.7293930
  38.6129212  47.5673866  56.9015932  38.2368875  49.1175222  58.1294107
  39.3117833  49.2485619  58.2540131  37.8419757  50.1301336  58.2116747
  37.7445936  48.3423758  59.3528843  37.9456472  47.2768164  59.2421389
  38.1584120  48.7551022  60.2729464  36.2713122  48.5156918  59.4050503
  35.9974265  49.4433451  59.9075937  35.7733440  48.4450293  58.4380245
  35.6199622  47.4266911  60.1978683  36.2403107  46.8032503  60.6944561
  34.3330550  47.1423292  60.0215673  33.7531853  46.2538767  60.7221365
  34.3267369  45.7734680  61.4006281  32.7458930  46.1801004  60.7266188
  33.5472178  47.9178953  59.3850231  33.8145185  48.7341166  58.8535738
  32.6848102  47.5062752  59.0580320  36.6092849  48.0025578  56.1967230
  36.1677122  46.9087362  56.5118504  35.8645368  48.9578199  55.5941820
  36.2731147  49.8657608  55.4244328  34.4336200  48.8779116  55.2756596
  34.0150213  48.3631468  56.1404657  33.7683630  50.2664995  54.9606371
  34.3014216  50.6347847  54.0841007  32.7498436  50.0550747  54.6350384
  33.9144874  51.3135004  56.1177015  34.9621534  51.5798235  56.2575865
  33.3952999  52.2185421  55.8023548  33.2844448  50.9031439  57.4440050
  33.9757681  50.4763794  58.3972216  32.0435929  50.9985638  57.5265789
  34.2815113  47.8357458  54.0898085  33.2267952  47.2468519  53.9566469
  35.3713894  47.5479364  53.3418036  36.2563753  48.0015087  53.5183668
  35.4676771  46.6850424  52.1782970  34.4823384  46.4380932  51.7830420
  36.2637901  47.3218298  51.0777569  37.2888851  47.4797440  51.4129305
  36.3410544  46.5697432  50.2925873  35.6957674  48.5532856  50.3694248
  35.7644248  49.8520660  50.8252382  36.3060522  50.0855494  51.7299604
  35.0375152  50.7634735  50.0672150  35.0792027  51.7683077  50.1603174
  34.2638493  50.0535488  49.1607141  33.1024599  50.3387547  48.4429216
  32.6274824  51.3083553  48.4171057  32.4080777  49.3101501  47.7779818
  31.5119910  49.5430326  47.2219229  32.8654528  48.0048323  47.8289032
  32.3336911  47.1790028  47.3798513  33.9796782  47.6965284  48.5627174
  34.2683625  46.6645050  48.6968374  34.6810913  48.6644077  49.2902660
  36.1524272  45.3549528  52.5906801  35.8528543  44.2821217  52.0004368
  37.1925831  45.4068708  53.4857512  37.5252032  46.3027525  53.8126469
  37.9444289  44.2442703  53.9997673  37.2657371  43.3920860  54.0353107
  39.1463923  43.8314056  53.1516266  38.8843942  43.7160540  52.0998907
  39.8821330  44.6353006  53.1748390  39.8984218  42.5396347  53.6526823
  41.0809660  42.3103189  53.2918787  39.2435861  41.7852068  54.3486643
  38.4324408  44.5538568  55.4639721  39.2529726  45.5007458  55.6151915
  37.9661298  43.8337564  56.4828777  37.3392177  43.0830860  56.2307167
  38.2365251  44.0120173  57.9142809  38.3564162  45.0626183  58.1787825
  36.9666290  43.5493946  58.7459517  37.0543170  43.8518333  59.7894764
  36.0812759  44.0570354  58.3631277  36.6163731  42.0339680  58.7949133
  37.5767732  41.5189266  58.8164902  35.9926009  41.8469143  59.6689939
  35.8558178  41.4782333  57.6575041  35.6794739  42.1696234  56.6000366
  35.4816389  40.2963972  57.6861525  39.6293902  43.4326887  58.3605242
  40.1418543  43.9138794  59.3723440  40.2737141  42.4943876  57.6335859
  39.8682165  42.2243500  56.7488527  41.6672611  42.0053005  57.8878260
  41.6083479  41.5576553  58.8799143  42.1294928  41.1836910  56.6251850
  41.8475962  41.7612457  55.7448053  43.2170010  41.1218596  56.5850973
  41.4259624  39.9067545  56.6332912  41.7244530  39.0788627  57.5039244
  40.6051445  39.6244192  55.6654167  40.2312994  38.6864257  55.6879854
  40.2268076  40.3421068  55.0638485  42.5713968  43.2749224  57.9142618
  42.4294519  44.1343737  57.0247316  43.4013653  43.4283209  58.9297104
  43.5267544  42.7070999  59.6255732  44.2151213  44.6793222  59.1426992
  43.6402178  45.5850124  58.9495325  44.7351170  44.7665071  60.5816126
  45.1876974  43.8130093  60.8538580  45.5339193  45.5061436  60.5272388
  43.5798645  45.0447655  61.6309452  42.6985598  44.4512129  61.3878298
  43.8801050  44.7553396  63.1231928  42.8523111  44.7986174  63.4835672
  44.1417360  43.7029696  63.2334661  44.6186447  45.4606295  63.5042858
  43.3547640  46.5698195  61.6610289  42.5392103  46.8655205  62.3209763
  44.2628241  47.0784473  61.9848013  43.0725765  46.9887018  60.6951046
  45.4586792  44.6324348  58.1677008  46.0110331  43.6008978  57.8681707
  45.8358812  45.8594275  57.7027178  45.2408791  46.6340685  57.9596281
  46.7886639  46.0287952  56.5717316  46.4032507  45.3807688  55.7845783
  47.0039463  47.4959469  56.0512018  46.0392094  47.8318644  55.6710148
  47.3585224  48.1191349  56.8721819  48.0260515  47.4864292  54.8864412
  48.9868498  47.0488453  55.1575089  47.6794624  46.8950272  54.0389585
  48.2329035  48.9908791  54.4874668  47.2695398  49.3934298  54.1744566
  48.5100317  49.5739174  55.3657436  49.4307899  49.1618204  53.5001993
  49.4235373  48.3381414  52.7863312  49.3756723  50.1637936  53.0746126
  50.7899475  48.9850187  54.1035032  51.5228939  49.2912531  53.4797192
  50.9375048  49.6409845  54.8571873  51.0287571  48.0351162  54.3499851
  48.0800390  45.3778553  56.9799566  48.4928370  44.4187069  56.3209724
  48.7207556  45.9149551  58.0058765  48.2558250  46.6423130  58.5301828
  50.0314331  45.4658747  58.4351778  50.7124233  45.5531406  57.5885773
  50.6817245  46.3958836  59.4692516  49.9924803  46.5551805  60.2985096
  51.5562677  45.8869648  59.8745632  51.1814070  47.6911592  58.8705397
  51.8334484  47.6738501  57.7990818  51.0337019  48.8539553  59.3707800
  50.1142359  43.9244366  58.7717581  51.0757971  43.1855679  58.3641720
  49.0514374  43.3644199  59.3324184  48.3887100  43.9985371  59.7552490
  48.9102840  41.9306135  59.7124004  49.7878122  41.4725065  60.1686764
  47.7940607  41.8525219  60.7771063  46.8929148  42.3651886  60.4406309
  47.4097586  40.8559799  60.9946299  48.1794548  42.4085665  62.1855831
  49.3444395  42.7237701  62.6172352  47.2520304  42.4959755  62.9875326
  48.5932779  40.9667015  58.5329676  48.4992933  39.7380590  58.7068987
  48.2802773  41.5019989  57.3078775  48.2044840  42.5052166  57.2189236
  47.8104305  40.7240438  56.1618853  48.1283236  39.6926880  56.3146925
  46.3258219  40.7088232  56.2165546  45.9489107  39.9080467  55.5803204
  46.0632992  40.5039930  57.2544527  45.7162285  41.9098186  55.7335281
  46.1266232  42.6400137  56.2025642  48.2997942  41.1059904  54.8057699
  48.2605505  40.2478170  53.8767862  48.9684057  42.2540426  54.6255541
  49.0338373  42.8718567  55.4218721  49.1757345  42.9101324  53.3304834
  49.1512728  42.1138096  52.5865889  48.0357027  43.8542795  53.0483246
  47.9089165  44.5225382  53.9000654  48.3381653  44.5132685  52.2344685
  46.7584515  43.2120085  52.5538540  46.3859606  42.5502014  53.3357573
  45.6890059  44.3114471  52.3813772  45.2294827  44.5116043  53.3492994
  46.1134338  45.2413988  52.0030117  44.8687935  43.9832783  51.7428970
  46.8819523  42.4682045  51.2337589  47.1691179  43.0989933  50.3924847
  47.6180792  41.6725826  51.3486528  45.8621883  42.1128559  51.0857439
  50.5718327  43.5851049  53.1588602  51.2614346  43.6924124  54.1518164
  50.9935760  44.0115690  51.9467020  50.4051352  43.8171577  50.6568909
  49.6125031  44.5389986  50.4599428  49.7873688  42.9250813  50.5535650
  51.4160442  43.8734293  49.5424891  50.9850121  44.2573929  48.6178875
  51.8919611  42.8977442  49.4443130  52.4663973  44.7704315  50.1259089
  52.1443415  45.7990932  49.9639225  53.4554863  44.6882391  49.6753073
  52.4099970  44.5405674  51.6849279  53.0682182  43.6895084  51.8597174
  52.8219366  45.7892418  52.4590635  52.1636009  46.8454695  52.5294065
  54.0609026  45.7480764  52.9947138  54.6043873  44.8967695  52.9970312
  54.7424269  46.9510269  53.5800362  54.0758753  47.4419117  54.2891502
  55.9604692  46.4837837  54.3200445  55.6604385  45.7143307  55.0313997
  56.7165756  46.1666059  53.6018515  56.5296364  47.5378036  55.0149059
  55.8774519  47.8508139  55.6459999  55.1043320  47.8682947  52.3458481
  54.8340082  49.0356159  52.3882771  55.6208611  47.4023771  51.1600494
  55.7709742  46.4085340  51.0608244  55.6356001  48.1861353  49.9367571
  56.4093781  48.8864470  50.2513123  56.2239218  47.2781277  48.8486624
  57.2093725  46.9625711  49.1913223  55.7157803  46.3208199  48.7326193
  56.3715124  47.9203701  47.4663401  55.4484224  47.8843355  46.7394972
  57.3315668  48.7448168  47.2972584  57.6881313  48.9588404  46.3768435
  57.9813242  48.7165594  48.0699921  54.3112183  48.8411427  49.4958544
  53.3031225  48.1115341  49.4384956  54.2897034  50.1112604  49.0083456
  55.4340172  50.9970427  49.1013622  56.3244772  50.6609201  48.5701370
  55.7507467  51.3386106  50.0868130  54.9221277  52.3514080  48.4945440
  55.0786877  52.4611712  47.4214458  55.3432846  53.2270908  48.9884138
  53.3983278  52.3546934  48.8052416  52.8674173  52.9560566  48.0672741
  53.2731056  52.7527809  49.8121929  53.0651093  50.8554602  48.6090994
  52.2623110  50.6203699  49.3079185  52.5685358  50.5720472  47.2008801
  51.3861418  50.8383512  46.9022179  53.4139681  50.0374079  46.3251448
  54.2017221  49.5738077  46.7548275  53.0937719  49.6942854  44.9379349
  52.4356127  50.4849768  44.5777464  54.3888712  49.7957945  44.0547609
  55.2356052  49.2510319  44.4723463  54.1211653  49.3377304  42.6158905
  55.0659370  49.1430092  42.1083641  53.5229778  48.4279728  42.5647545
  53.4577084  50.0089264  42.0705366  54.8045015  51.3120985  43.9768791
  53.9788961  51.9323349  43.6279058  55.0315857  51.7034292  44.9685431
  56.0218477  51.7017984  43.1267834  56.3481569  52.7342749  43.2517481
  56.9130707  51.1372805  43.4009027  55.9228659  51.5005779  42.0600986
  52.2738981  48.3807278  44.8416090  51.2944555  48.2833147  44.1003323
  52.8370571  47.3845100  45.4302025  53.6080980  47.7273273  45.9852457
  52.2358227  46.0503101  45.6882238  52.0779419  45.5464220  44.7346687
  53.1191826  45.1735401  46.6308832  53.4761763  45.9048748  47.3560047
  52.5248575  44.3606615  47.0481491  54.3682957  44.5357656  45.8923864
  55.1997519  44.1252327  46.7027044  54.3715143  44.4185972  44.6392775
  50.8497190  46.1795282  46.2890625  49.8566628  45.7873440  45.6286144
  50.7101202  46.9265509  47.3961163  51.5328264  46.9373989  47.9819012
  49.4481134  47.1670055  48.0578423  48.9858580  46.2210655  48.3400249
  49.7598410  47.9448605  49.3373632  50.2071428  47.1928501  49.9873590
  50.4458141  48.7863016  49.2397451  48.5734844  48.4770823  50.1632690
  48.5395050  49.8606062  50.4727125  49.4032001  50.4614830  50.2290344
  47.4149466  50.3528643  51.2094784  47.4179268  51.3180590  51.6940260
  46.3596869  49.4466686  51.5480137  45.5501556  49.6979332  52.2172880
  46.3110161  48.1636238  51.0009766  45.5681372  47.4347115  51.2894392
  47.4182510  47.7210426  50.3504372  47.4700928  46.6433859  50.3017187
  48.4944296  48.0497313  47.1906281  47.3195696  47.6499796  47.0324564
  48.9914799  49.1227293  46.5606356  49.9127865  49.4025326  46.8655968
  48.2472515  49.8610497  45.5749655  47.4768639  50.3803778  46.1449814
  49.0771437  51.0193110  44.9399614  49.2688894  51.7140102  45.7577181
  50.0296497  50.6603956  44.5500755  48.5257721  51.6472292  43.8585663
  48.7025833  52.5842142  43.9699125  47.6139450  49.0752506  44.4391298
  46.4177704  49.1518545  44.2568970  48.3145237  48.0566025  43.9327192
  49.3164062  48.0931091  43.8102341  47.7471399  47.0794010  42.9623747
  47.0450926  47.7058554  42.4121141  48.7784338  46.4864445  42.0121098
  49.5566368  46.0253143  42.6202679  48.3471966  45.8014107  41.2821388
  49.4605875  47.6281786  41.2169600  48.6902046  48.5125589  40.4962444
  47.6204729  48.3640051  40.4922104  49.3094873  49.5350838  39.7375822
  48.7004709  50.1920033  39.1342974  50.7119417  49.4681311  39.5017028
  51.2409115  50.4723883  38.7236190  52.1490097  50.2837420  38.4758806
  51.4745378  48.5395908  40.1887798  52.5529051  48.5573006  40.1321220
  50.8496475  47.6092386  41.0304689  51.4438009  46.9193125  41.6113186
  46.8989563  45.9819078  43.6144114  46.0118675  45.5865669  42.8971434
  47.0830345  45.5967093  44.8633337  47.8533697  45.9664726  45.4018164
  45.9483337  44.9352694  45.5512142  45.6451416  44.1000462  44.9198818
  46.4653540  44.3668413  46.8974352  47.3533726  43.7497282  46.7606878
  46.6881990  45.2427053  47.5067759  45.4643631  43.5298586  47.7242565
  45.4775858  42.1950865  47.8534174  46.2316322  41.5270090  47.4642038
  44.5058060  41.8286228  48.6921024  44.3482065  40.8905077  49.0315199
  43.7735176  42.8698635  49.1330194  42.6105833  43.0390692  49.9393749
  42.2247219  42.2154188  50.5217075  41.9554758  44.2766428  50.0540018
  41.1513567  44.3846655  50.7668257  42.4812365  45.4008150  49.3804312
  42.0061111  46.3440132  49.6063185  43.7365198  45.2632332  48.6343861
  44.3153763  46.1175442  48.3158159  44.3253088  44.0181255  48.4914255
  44.6443033  45.7702875  45.6105518  43.6276865  45.1680183  45.3925323
  44.6376753  47.0824432  45.8518314  45.4867840  47.5445843  46.1443090
  43.3962393  47.8638268  45.9860373  42.8781700  47.1585751  46.6359043
  43.6256981  49.2305040  46.6732836  44.4302082  49.7358513  46.1389732
  42.3515368  50.2295351  46.6706848  41.4001417  49.7371244  46.8719006
  42.4225807  51.0041380  47.4342585  42.2157478  50.6859350  45.6901932
  44.0514421  48.9913321  48.1058359  43.9774084  49.9678707  48.5843611
  43.3994484  48.3003807  48.6402464  45.0023651  48.4618187  48.1647015
  42.7167082  47.9382372  44.6862555  41.4971685  47.7018166  44.6035576
  43.4464598  48.1716394  43.5877943  44.4349051  48.2787991  43.7655449
  42.9374409  48.2011604  42.2338820  42.0429659  48.8224745  42.2783518
  43.9726686  48.8691378  41.3294554  44.7553682  48.1350136  41.1383104
  43.4898710  49.2617416  40.4345417  44.2985868  49.7331476  41.9085598
  42.3298979  46.9771671  41.6319132  41.5029001  47.0673418  40.7195902
  42.7397537  45.8040428  42.1612358  43.2349157  45.8122778  43.0414915
  42.2411919  44.4549799  41.8850183  41.7711353  44.4011593  40.9030485
  43.3883572  43.4771109  41.9600868  43.0420876  42.4951124  41.6377783
  44.1491222  43.7688923  41.2360716  43.7383366  43.4493923  42.9920006
  41.1090183  44.0774536  42.8519535  40.7126093  42.9312229  42.8555346
  40.5700064  44.9610853  43.6923409  40.9641123  45.8896589  43.6420059
  39.6230507  44.6807957  44.7896767  38.9811540  43.8747931  44.4341040
  40.4582167  44.2947865  46.0052586  41.2182093  45.0453663  46.2223911
  39.8169851  44.3307352  46.8859529  41.1386347  42.8863287  45.9334040
  40.4591084  41.8654728  45.7931519  42.4120665  42.7687454  46.2100410
  42.6054335  41.8199205  46.4971733  43.0322218  43.5465717  46.3846684
  38.6013627  45.7828665  45.0401306  37.5277901  45.4876947  45.5891323
  38.8796377  47.0466471  44.6771002  39.7882509  47.2628212  44.2926550
  37.8985333  48.0662107  44.7567654  37.3233223  47.8758049  45.6628466
  38.6467004  49.4502306  44.9328947  39.3544054  49.5126915  45.7595444
  39.2827272  49.4476366  44.0476990  37.6769376  50.6459045  45.1843977
  36.9367433  50.7084227  44.3867111  37.0800996  50.6523991  46.5722799
  36.3381124  51.4508677  46.5704536  36.6291618  49.7112751  46.8869972
  37.8042150  50.8846474  47.3531914  38.5342407  51.9868946  45.1709318
  39.3697214  51.9802570  45.8709431  38.9634848  52.2134829  44.1949654
  37.9161358  52.8378868  45.4570341  36.9938087  47.9429960  43.4989882
  37.5133610  48.0204582  42.3934507  35.6281734  47.8944921  43.6714458
  34.8357248  47.7833748  44.8755884  35.0350070  48.5459661  45.6284761
  35.1634860  46.8169165  45.2585173  33.4179544  47.6112270  44.3736076
  32.9710913  48.5926199  44.2146111  32.8584075  47.0049620  45.0859642
  33.5645604  46.8959904  43.0833292  32.6387095  46.8998289  42.5080967
  33.6325741  45.8305693  43.3032131  34.8693895  47.5668716  42.4537468
  35.4048944  46.7595387  41.9541979  34.6096516  48.8160276  41.5343094
  33.4574914  48.9474678  41.1781979  35.6229949  49.4362640  40.9911823
  36.4857650  48.9652681  41.2233353  35.5484271  50.3788424  39.8936296
  34.7370076  51.0477161  40.1805258  36.8530035  51.2376213  39.8501253
  37.6069212  50.6599283  39.3153477  36.5616250  52.5278425  39.0864277
  36.2054753  52.2497511  38.0944943  35.8732080  53.1726885  39.6326518
  37.4781513  53.0906296  38.9093757  37.5225973  51.5681124  41.1889124
  36.8997002  52.3120594  41.6855431  37.5898933  50.6306505  41.7409420
  38.9929533  52.0868683  41.1336946  39.5094967  52.0368576  42.0922279
  39.5962906  51.4586115  40.4784203  38.9648390  53.0866051  40.7002878
  35.1263714  49.8217821  38.5839391  35.7718992  48.8584185  38.0966926
  34.0658617  50.4695511  38.0001235  33.5961866  51.2279320  38.4737945
  33.5578561  50.0217247  36.7278099  33.3295918  48.9606190  36.8280673
  32.2961879  50.9167290  36.4173007  31.6575480  50.8475876  37.2979045
  32.5308681  51.9599533  36.2058592  31.4493179  50.2172756  35.3478980
  31.4486408  49.0008593  35.2488422  30.6967425  50.9663153  34.6861148
  34.4946098  50.0955677  35.5568767  35.2221608  51.0683060  35.5430627
  34.4548154  49.3089294  34.5300603  33.7549090  48.5843658  34.4576216
  35.1916814  49.5758629  33.2732463  36.1742473  49.1423559  33.4596157
  34.6744895  48.7974358  32.1382475  33.6969090  49.2273855  31.9201159
  35.1726556  49.0837955  31.2120032  34.4862676  47.2737217  32.2982359
  33.9172888  46.7908621  33.3021450  34.8854041  46.5960026  31.3150048
  35.3179288  51.0920954  32.7750659  36.3718939  51.5933847  32.3905110
  34.1280150  51.7452526  32.6763129  33.3233094  51.1565638  32.8375506
  33.8816595  53.1773281  32.5550365  34.1063929  53.4600878  31.5266180
  32.3894119  53.5221672  32.6386404  32.2248435  54.5729446  32.4001312
  31.8418431  52.9545259  31.8862772  32.0152903  53.2262993  33.9812350
  31.4978838  52.4191761  34.0306115  34.7300172  54.1563511  33.3888364
  34.8952866  55.3073835  32.9639411  35.3808188  53.7621307  34.4890356
  35.1446843  52.8250837  34.7827697  36.3502884  54.6403170  35.2874279
  36.5302420  55.5562735  34.7246194  35.4287648  55.1246977  36.4408302
  34.7043371  55.8365107  36.0450649  34.9735832  54.2761421  36.9515872
  36.2286830  55.8521748  37.5398064  37.0534253  55.2237749  37.8759742
  36.8334794  57.2245216  37.0938396  37.3736882  57.1504068  36.1500263
  36.0980010  58.0289078  37.1054339  37.6681352  57.4662924  37.7518654
  35.3622651  56.1038399  38.7903714  35.9362054  56.6899586  39.5081186
  34.4710851  56.6839743  38.5509038  35.1219153  55.1356745  39.2296720
  37.6668930  53.9458084  35.6324911  38.6864424  54.5712614  35.7556224
  37.6267672  52.6696539  35.7954764  36.7025089  52.2727108  35.7044315
  38.8004398  51.7960739  36.1656141  39.0098953  52.0605659  37.2020912
  38.3901381  50.2985525  36.0681558  37.5369048  50.1011992  36.7171144
  38.0680752  50.1317358  35.0402641  39.4454050  49.3280935  36.4085865
  39.1226816  48.3749533  35.9896994  40.4186106  49.6175528  36.0121131
  39.6403193  49.0092230  37.8899550  40.4416800  49.6165276  38.3107901
  38.7291241  49.2174578  38.4507298  39.9563384  47.5563526  38.0473804
  40.8975220  47.2049189  38.1511307  39.0746522  46.5799856  38.2147479
  37.7661085  46.7874479  38.1806302  37.3711348  47.7054119  38.0342102
  37.1134734  46.0340548  38.0176425  39.4971228  45.3653908  38.3908391
  40.4829216  45.2194214  38.2265377  38.9118528  44.5629883  38.2072353
  40.0893641  52.0740986  35.3231359  41.1631775  52.2631168  35.7829809
  39.8161602  52.1951246  33.9732003  38.9183307  51.8466282  33.6689615
  40.8420944  52.6539564  32.9729152  41.7298460  52.0245409  33.0348134
  40.2682877  52.4589205  31.4830780  39.8733640  51.4447117  31.5423775
  39.1455960  53.4107590  31.2080741  38.4077883  53.4210682  32.0103431
  39.5581579  54.3994761  31.0072494  38.6270118  53.0144835  30.3350711
  41.3053179  52.5500774  30.3725123  41.5168476  53.6155701  30.2826118
  42.2125292  52.0709658  30.7406449  40.8826447  51.9211960  29.0539527
  40.5098295  50.9070063  29.1972208  40.1538515  52.6196194  28.6426520
  41.7600298  51.7849255  28.4217143  41.3919497  54.0075970  33.1905365
  42.5911283  54.2581034  32.9635310  40.5547905  54.9751472  33.5905766
  39.6346712  54.6704483  33.8745356  40.9950447  56.3189650  33.9607120
  41.4845419  56.8007088  33.1142974  39.8345852  57.3570395  34.2847991
  39.4640589  56.9979811  35.2449489  40.3212690  58.3081818  34.5006132
  38.6747122  57.4694300  33.3043146  38.4812903  56.4415169  32.9975820
  37.7663732  57.8827620  33.7426925  38.8514090  58.1560469  31.9630384
  39.9882245  58.2189941  31.4610362  37.8159714  58.6483622  31.3339210
  38.0476975  59.1194534  30.4710913  36.8843603  58.6029100  31.7214060
  41.9541883  56.3509798  35.0574327  43.0100489  56.9041252  35.0019836
  41.7250252  55.6368876  36.1386037  40.8352470  55.1590443  36.1463928
  42.6943159  55.4041338  37.1441579  42.9732180  56.3794470  37.5430036
  41.9872665  54.5358610  38.2763982  41.3515615  53.8013935  37.7818918
  42.7059364  53.9194441  38.8164377  41.2199783  55.2841330  39.3601179
  41.0616255  54.6207094  40.2103519  41.9340467  56.4743948  39.8881292
  42.9242516  56.1898184  40.2439404  42.0902872  57.1876907  39.0788627
  41.3681412  56.9283581  40.7016230  39.8826337  55.7373953  38.8063216
  39.3188882  54.8428011  38.5417342  39.2934823  56.0407686  39.6717525
  39.9661684  56.5018702  38.0338597  43.9991474  54.7286177  36.6755223
  45.1178741  55.2864027  36.9463634  43.9383268  53.7341928  35.8189702
  43.0271864  53.4146070  35.5226803  45.0900984  52.9098082  35.3387475
  45.5658817  52.6553774  36.2858486  44.4683599  51.6395044  34.6402597
  43.7949610  51.2155104  35.3851485  43.8097906  52.0066071  33.8531017
  45.4010963  50.6139898  34.0280414  46.0583925  51.0447598  33.2727265
  46.3503265  50.1733589  35.1674128  46.8332005  50.9845638  35.7122946
  45.9485674  49.5429087  35.9606481  47.0624495  49.5157862  34.6688294
  44.6003246  49.4893551  33.4043574  44.2235994  49.8200846  32.4364710
  45.3007221  48.7414026  33.0327272  43.8687420  49.0185213  34.0610147
  46.0936213  53.7575006  34.4999337  47.2573137  53.2637787  34.2486501
  45.6751537  54.9235201  33.9694333  44.7180080  55.1910162  34.1495061
  46.5461159  55.9331799  33.2679868  47.1217251  55.4360247  32.4872088
  45.7006311  57.0910692  32.6894021  45.1614952  57.5296307  33.5291028
  46.3098478  57.8568029  32.2091866  44.7697163  56.4703035  31.6484809
  45.3901720  55.9600878  30.9117246  44.1543341  55.6649399  32.0494699
  43.9215946  57.5784540  31.0327339  43.5490847  58.2448149  31.8107438
  44.6162605  58.1542778  30.4212046  42.7990580  57.0909595  30.1792860
  43.1537628  56.4398050  29.3803620  42.1725750  56.4800644  30.8292294
  42.0096159  58.2288504  29.5956302  41.0799408  58.2660055  29.9886131
  42.4903584  59.1129780  29.6811056  41.8061018  58.0639601  28.6201811
  47.6558399  56.4810896  34.2319608  48.8086891  56.6222239  33.7478662
  47.3992395  56.5037775  35.5379057  46.4539909  56.3276672  35.8470988
  48.3846664  57.0411730  36.4943981  48.8540506  57.9466963  36.1099553
  47.5472832  57.6159096  37.6957107  47.0549583  56.8237209  38.2597661
  48.6214399  58.1761742  38.7019563  49.3648195  58.8060141  38.2133031
  48.2333803  58.5601854  39.6453810  49.2940426  57.4142075  39.0958023
  46.4902496  58.7094450  37.3134542  46.9773293  59.5664978  36.8483567
  45.8762646  58.3768463  36.4764953  45.5030060  59.1097403  38.3943534
  44.9345684  58.2586765  38.7694073  46.0599566  59.5505095  39.2211771
  44.7730684  59.7563076  37.9072762  49.4306040  56.0550356  36.8506527
  49.2142200  55.0223494  37.5466967  50.5973721  56.4165401  36.4452696
  50.5974340  57.1921110  35.7982850  51.8361521  55.5989408  36.6040802
  51.7094421  54.5502663  36.3351250  52.9908085  56.1929083  35.7633662
  53.0326176  57.2137690  36.1430955  53.8212204  55.5431271  36.0395908
  52.8249216  56.1365938  34.2792559  53.4262133  56.9828939  33.5740638
  52.1023464  55.2101564  33.7647510  52.1278143  55.4615402  38.1493831
  52.4410391  54.3948507  38.7531042  52.1826935  56.6242361  38.8424873
  52.2021675  57.4761248  38.3002663  52.5740910  56.7717075  40.2711630
  53.4642458  56.1519670  40.3790903  52.9169989  58.1816578  40.5452442
  53.8785410  58.3829927  40.0730085  52.1704435  58.8249159  40.0794458
  52.9403496  58.4607029  41.9318056  52.9154301  59.4198847  41.9626141
  51.4483500  56.1776066  41.1017895  50.3901672  56.7108488  41.2802505
  51.7465258  54.9253178  41.4134264  52.7102184  54.6247721  41.3807917
  50.7907248  54.1034460  42.0645046  49.8989582  54.0787363  41.4382172
  51.3541603  52.6995039  42.1785069  51.8615055  52.4104738  41.2580919
  52.0598221  52.6754808  43.0089045  50.5349970  52.0086002  42.3778296
  50.2885818  54.6430731  43.3993578  49.1733456  54.2838860  43.7711143
  51.1309719  55.3852177  44.1247940  52.1285629  55.3209209  43.9806271
  50.6805086  56.0133839  45.3569984  50.1350451  55.2897167  45.9627056
  51.8432951  56.5880871  46.3091946  52.5065184  55.7422590  46.4903164
  52.6355314  57.6389027  45.5836391  53.5984564  57.8872013  46.0299969
  52.7484512  57.4575901  44.5147753  52.2310591  58.6462545  45.6824112
  51.3232183  57.1945381  47.6622772  52.1147966  57.4663353  48.3605814
  50.7123137  58.0739880  47.4586248  50.5674076  56.1154222  48.4174442
  49.6575212  55.7615185  47.9327154  51.2841558  55.2977037  48.4929800
  50.3019571  56.6243362  49.3440723  49.6560144  57.1589231  45.0713062
  48.6528444  57.2045422  45.7845831  49.8951197  58.0638599  44.1038704
  50.6490612  57.9427958  43.4427977  48.9083052  59.0587854  43.6310434
  48.5687113  59.5392847  44.5485926  49.4529009  60.1202393  42.7563047
  50.4545784  60.3692770  43.1066179  49.5309019  59.6817780  41.7614317
  48.6802673  61.4539862  42.5877237  49.3284082  62.0407963  41.9368219
  47.7547169  61.2764645  42.0400572  48.3687973  62.1933651  43.8481236
  48.9362669  61.9246054  44.9102020  47.5963306  63.2153225  43.6524773
  47.5158262  63.9699173  44.3189669  47.3026323  63.3465528  42.6950741
  47.7038288  58.3882332  43.0038309  46.6040277  58.6996317  43.4918451
  47.7796841  57.2962379  42.1535826  48.6931324  56.9948292  41.8455744
  46.6446018  56.4526033  41.8016958  45.8805513  57.0173597  41.2674904
  47.0945120  55.3512144  40.8501625  47.8355932  55.8183193  40.2015400
  47.5327778  54.6033764  41.5110397  45.8614731  54.8241282  40.0453424
  45.0068712  54.8268747  40.7219172  45.6600904  55.5922604  39.2986703
  46.1487198  53.4384394  39.4637871  45.4085493  53.3103323  38.6739564
  47.1426916  53.3543634  39.0244031  45.8063173  52.4019814  40.4561043
  44.8258018  52.2133493  40.6081533  46.6090345  51.9112206  41.3918972
  47.9247761  52.0500803  41.2664032  48.2935429  52.3483658  40.3746986
  48.5195637  51.5827990  41.9357204  46.1624289  51.3057518  42.4136591
  45.2556610  51.5275764  42.7992392  46.8960238  51.1174345  43.0818462
  45.8915424  55.8228779  42.9894638  44.7216082  55.9082937  43.1266451
  46.5283585  55.1626730  44.0106583  47.5315857  55.0626087  44.0708733
  45.8484936  54.6601009  45.2084208  45.1167154  53.8922453  44.9574137
  46.8307352  53.9527178  46.1477327  47.2571564  53.1104136  45.6029510
  47.6714993  54.6374846  46.2587023  46.3026953  53.4969473  47.5836563
  45.9038591  54.4044781  48.0368948  45.0688410  52.6326847  47.6648188
  44.7263098  52.4455690  48.6825418  44.3259096  53.1379843  47.0477104
  45.0610399  51.6671610  47.1590424  47.4211740  52.8792334  48.4194469
  48.2707500  53.5542536  48.5227251  47.0197201  52.7378750  49.4229174
  47.7829933  51.9412565  47.9982662  45.1804209  55.8578062  45.9664440
  43.9927006  55.7534218  46.2945652  45.7605934  57.0277929  46.0759687
  46.7418671  57.1773291  45.8892870  44.9603701  58.2229424  46.6109848
  44.6026754  57.9402733  47.6010656  45.9693861  59.3852472  46.6786814
  46.3623619  59.6458292  45.6959486  45.4175186  60.3012800  46.8894434
  46.9664907  59.2227459  47.8283215  46.3584805  59.3340683  48.7261152
  47.4346352  58.2401752  47.7691603  48.0032110  60.3043699  47.8442669
  48.5361862  60.2426338  48.7930727  48.8241386  60.2589417  47.1286488
  47.4997950  61.7168140  47.6913214  46.6188860  61.7426968  47.1979332
  48.0338764  62.8970051  47.8813553  49.2797184  63.0677605  48.2945633
  49.8330641  62.2388744  48.4584284  49.6705055  63.9938498  48.3932877
  47.3675871  63.9755440  47.6473427  46.3768864  63.8879967  47.4713898
  47.8686619  64.8482466  47.7334166  43.7750864  58.6058331  45.6554222
  42.7181387  59.0108204  46.2053156  43.9161348  58.4874392  44.3132019
  44.7770405  58.1079340  43.9458895  42.7814054  58.7083578  43.3959723
  42.2192860  59.5881081  43.7092876  43.3572531  58.9067650  41.9769907
  43.9860964  58.0340004  41.8010855  42.5406694  58.8287449  41.2592125
  44.3783379  60.4339552  41.6727114  45.4890347  59.9348211  42.2223616
  41.7356300  57.5420094  43.4677744  40.5880213  57.7124929  43.0984783
  41.9998741  56.4454269  44.2649794  42.9338217  56.3202763  44.6285486
  41.0631895  55.3002977  44.4566631  40.2261162  55.4291201  43.7705088
  41.8226814  54.0278721  44.1921759  42.8079653  54.0196466  44.6582794
  41.3154268  53.2001638  44.6878481  42.0152283  53.7162018  42.7126122
  41.0963106  53.5329866  42.1557331  42.5200462  54.5874691  42.2952890
  42.9082632  52.4686956  42.4295855  43.5578203  51.9157791  43.3678818
  43.1752825  52.1958685  41.2350845  40.4089975  55.2740908  45.7824183
  39.1955757  55.0741625  45.9206486  41.1842728  55.6941366  46.8155384
  42.1322298  55.9310532  46.5599060  40.6492043  56.1723375  48.0989361
  40.3803635  55.3197098  48.7225199  41.8607759  56.7873383  48.8086319
  42.4617052  55.9148264  49.0649700  42.3468399  57.4402237  48.0836582
  41.6548872  57.6759291  50.1082945  41.0033655  58.4916639  49.7949314
  41.1728382  56.8421173  51.3116789  40.2523136  56.3172340  51.0562754
  41.9752121  56.2083054  51.6892767  40.8779430  57.4513626  52.1660471
  42.9206085  58.3906984  50.4394674  43.5877895  57.5777245  50.7259226
  43.2860851  58.8693762  49.5309591  42.7962589  59.1118097  51.2473249
  39.4574571  57.1700335  47.9872561  38.5075760  57.0187235  48.7912798
  39.4545650  57.9855251  46.9828892  40.2845860  58.0262184  46.4088631
  38.3219504  58.7858009  46.5861177  38.0557823  59.4144773  47.4358320
  38.6292648  59.6499109  45.3615332  38.8410473  59.0037012  44.5096779
  37.7591634  60.2923298  45.2261639  39.7183514  60.6573391  45.6013060
  39.8010182  61.2657928  46.7043018  40.4528809  60.9730577  44.6421432
  37.0451641  57.9709816  46.3469887  36.0004663  58.1848478  46.9426107
  37.1422172  56.9871664  45.4580164  37.9799485  56.8411732  44.9130487
  35.9855437  56.0811567  45.1828766  35.0400424  56.6106987  45.0657511
  36.4038754  55.1666451  43.9850760  37.3468423  54.6639967  44.2001629
  35.3194427  54.0956831  43.8036489  35.3818011  53.7236500  42.7810001
  35.5199027  53.2964373  44.5171785  34.3082380  54.4512177  44.0015316
  36.5679693  55.9076977  42.6268530  36.2509823  55.3057528  41.7752171
  35.8419704  56.7129087  42.5143290  37.9735518  56.4413786  42.3722029
  38.1321359  57.2390985  43.0978727  38.7177515  55.6451082  42.3870993
  37.9824686  56.9849205  41.4274359  35.6535554  55.1846886  46.4187527
  34.4536662  55.0310898  46.7855597  36.7140722  54.8132801  47.0672703
  37.6174188  55.0289249  46.6703320  36.6321659  54.0003538  48.2629251
  36.1140108  53.1087399  47.9098749  37.9777265  53.7267780  48.9039612
  38.5598493  53.1544971  48.1816530  38.5021472  54.6270084  49.2243910
  37.9510021  52.8554916  50.1276112  37.3632503  53.4425783  50.8332825
  37.4836397  51.9236231  49.8093462  39.5964503  52.5329828  50.8016300
  40.3476477  51.4194345  49.6024036  40.3939295  51.9314814  48.6412716
  41.3550425  51.1169291  49.8883247  39.6331263  50.5965900  49.5803261
  35.6805730  54.7334003  49.2889738  34.8745894  54.0231705  49.8809528
  35.9633684  56.0334778  49.5466423  36.7320371  56.4645767  49.0532780
  35.2350450  56.8701553  50.4932213  34.8973131  56.4153433  51.4244509
  36.1586285  58.0890560  50.7678556  37.0713687  57.6681137  51.1895418
  36.3088012  58.5209942  49.7784233  35.5381703  58.9611292  51.8189096
  35.1349306  58.5350180  52.8738070  35.2060962  60.1994038  51.5171623
  34.5502138  60.5733919  52.1880198  35.3773689  60.5815125  50.5980587
  33.8223100  57.3237562  49.9672461  32.8226209  57.3857594  50.7468843
  33.7369657  57.5613832  48.6504507  34.6005154  57.3971272  48.1530571
  32.4524283  57.8491545  47.9654408  32.1001697  58.7951612  48.3766413
  32.6381564  57.9482365  46.4140034  33.5694265  58.5032940  46.3010883
  32.7480698  56.9616842  45.9637451  31.6162705  58.7836552  45.6389523
  30.5990553  58.4179878  45.7791615  31.5349817  59.7933912  46.0413599
  32.0053673  58.8300085  44.1537809  32.9918885  59.2246675  43.9106369
  31.9534969  57.8472757  43.6851168  30.9411192  59.4675350  43.2947540
  30.7290030  60.4844570  43.6248732  31.2793159  59.4911718  42.2588158
  29.5939231  58.8511896  43.4794426  29.2943668  58.9054585  44.4424677
  28.9303350  59.2529202  42.8326273  29.6527529  57.8475666  43.3826017
  31.3688087  56.8703365  48.2637501  30.2604795  57.3095083  48.5872173
  31.6917753  55.5724382  48.1585836  32.6932740  55.4416800  48.1582260
  30.7474828  54.4767618  47.7634430  29.7637606  54.8897934  47.5402975
  31.4152026  53.8542366  46.5221405  31.2388825  54.4412088  45.6207657
  32.4503255  53.6984158  46.8260145  30.6811380  52.2944307  46.0864782
  29.5462799  52.9766798  45.9089041  30.5867314  53.4654474  48.8262320
  31.4293528  53.2614517  49.7020531  29.3332171  53.0069256  48.9760447
  28.5923052  53.3817768  48.4010363  28.9668059  52.0635939  50.0416517
  29.8174119  51.7647028  50.6542158  28.1286693  52.8368711  51.1188316
  27.2698879  53.2923174  50.6257057  27.4926829  51.9423723  52.2473478
  26.8067765  52.4848366  52.8980207  26.7484522  51.2790585  51.8066263
  28.1512809  51.3217163  52.8549099  28.8844109  53.8772583  51.7874861
  28.7516069  54.6590376  51.2463856  28.3552289  50.7727814  49.5553255
  28.3920288  49.7299719  50.2445364  27.6911616  50.7832146  48.4063578
  27.6603985  51.6099930  47.8270578  27.0240092  49.5697546  47.8768110
  27.3570609  48.6517382  48.3609867  25.5452323  49.7712374  48.1977844
  25.2016878  50.7587147  47.8896236  24.9111557  48.9695501  47.8191757
  25.3775454  49.7589445  49.5786428  24.4727302  49.4596815  49.6941853
  27.1992731  49.4029284  46.4028692  27.9402804  50.0784063  45.6956959
  26.5119123  48.3865643  46.0144043  25.8897543  48.0008316  46.7102718
  26.5016413  47.9396725  44.6428537  26.9490194  48.6453819  43.9429092
  27.3365116  46.6708517  44.5513105  26.9383764  45.8996773  45.2107620
  27.1866345  46.1107492  43.6283159  28.8629079  46.9038868  44.7273064
  28.9082742  47.7853966  45.3668261  29.5247698  45.7790422  45.4772615
  29.2904496  44.8181295  45.0191736  30.5956817  45.8897877  45.6475067
  29.1105056  45.6096268  46.4711332  29.6683216  47.0985937  43.4347343
  30.7272625  47.2667789  43.6308718  29.5771122  46.1235619  42.9560852
  29.2964435  47.9180050  42.8196192  25.0554395  47.7883148  44.1089630
  24.2954326  46.9907808  44.6744013  24.6413851  48.4449434  43.0451584
  25.3689766  49.0420151  42.6788092  23.4008098  48.2443476  42.3145866
  22.6596427  47.6877403  42.8881359  22.8305864  49.6134567  41.8740702
  23.5651541  50.1214361  41.2491941  21.8158960  49.6370125  41.4766407
  22.6675296  50.5622911  43.4592915  23.9619398  50.8914185  43.4264660
  23.7077904  47.4331093  41.0034943  24.8116016  47.1065903  40.5855370
  22.5589728  47.0954943  40.2597809  21.6417575  47.4350405  40.5118227
  22.6440191  46.2549973  39.0860868  23.4793401  45.5647182  39.2037773
  21.2925363  45.5833006  38.8523912  20.5423427  46.3196659  39.1406178
  21.2347388  44.6565676  39.4232893  21.0019612  45.0761795  37.1964192
  23.1394100  47.0576048  37.8690839  22.6058888  48.1427097  37.5919533
  24.1998434  46.6738701  37.1115494  24.6624613  45.8295727  37.4169159
  24.7113323  47.3233271  35.9184027  25.2144742  48.2354689  36.2392688
  25.8581400  46.4672709  35.3585434  26.6268706  46.2540531  36.1013007
  25.4349995  45.4957914  35.1030254  26.4154339  46.9718170  34.0670276
  27.1433210  46.1824226  33.8795638  25.6619167  46.8644190  33.2867861
  27.0342422  48.3815956  34.0384579  27.1926904  48.6437178  32.9923773
  26.3426042  49.1389132  34.4075298  28.3643055  48.3988953  34.7645831
  28.6630130  49.4471645  34.7629666  28.2271719  48.0898094  35.8008075
  29.3952203  47.5253820  34.2233229  29.3967080  47.5832748  33.2149839
  30.2789068  47.8392696  34.5984006  29.3000293  46.5352488  34.3984771
  23.6212611  47.6645136  34.8735738  23.6821580  48.7026215  34.1927648
  22.7069449  46.7298651  34.6475887  22.6530313  45.8808708  35.1920199
  21.8338871  46.7922497  33.4515023  22.4448061  47.3119879  32.7134299
  21.3849282  45.3394508  32.9624176  20.9119153  44.8813581  33.8310432
  20.5963492  45.4896927  32.2250772  22.6271105  44.5298862  32.5119448
  23.3316898  45.2443314  32.0862269  23.2010460  44.0679026  33.3152342
  22.2395515  43.5674667  31.4724445  21.1498547  43.0120945  31.3195586
  23.1955385  43.2495546  30.5577922  22.9815817  42.5380373  29.8736382
  24.1432238  43.5988283  30.5585885  20.5773377  47.6633263  33.7147236
  20.2040958  48.4655571  32.8320575  19.9319351  47.5872850  34.8389959
  20.3037095  47.0421553  35.6036639  18.7144792  48.4981155  35.2166367
  18.5332918  49.0904617  34.3197513  17.5646913  47.5715733  35.5921507
  17.4455953  46.7239666  34.9172640  16.6339338  48.1383228  35.6164241
  17.6787949  46.9133997  37.3368835  19.0751755  49.5439005  36.3092232
  18.8334787  50.7749128  36.0650516  19.7529697  49.1119385  37.4125218
  19.8117816  48.1186819  37.5859761  20.3064513  49.9709558  38.4681344
  20.9996676  49.3185663  38.9991117  21.0426235  51.2053585  37.8203440
  21.4639902  50.9517574  36.8475962  20.3422356  52.0162964  37.6205063
  22.1715212  51.7860556  38.6901832  21.6896415  52.3048115  39.5189023
  22.7209544  50.9539938  39.1305184  22.9487824  52.8057241  37.9618216
  22.6372313  53.1118679  36.8090487  23.9615464  53.4735680  38.4905791
  24.5236897  54.0573788  37.8878665  24.2461967  53.2867146  39.4414520
  19.2117858  50.4163742  39.4755387  19.3231523  51.4166021  40.1876354
  18.0405009  49.7713232  39.4310784  17.9218853  48.9837313  38.8100028
  16.9173980  50.2393389  40.1794863  16.8777668  51.3134861  39.9985480
  15.6928074  49.4429874  39.7107577  15.9276128  48.3785963  39.7168851
  14.8286402  49.5510483  40.3662300  15.3350866  49.9434996  38.2392645
  16.1738622  49.8021555  37.5576615  14.4841039  49.3637657  37.8817201
  14.9400055  51.4397430  38.1096792  14.8758209  51.9114399  36.9328904
  14.8253453  52.2156096  39.0886188  16.9752717  50.2101564  41.7242956
  16.3603091  51.0676622  42.3722553  17.8085816  49.3397713  42.3001146
  18.1918216  48.6544466  41.6648531  18.0841327  49.1610193  43.7355089
  18.1943297  50.1199865  44.2418098  16.9570458  48.5008192  44.4849968
  16.0197473  48.9921522  44.2239141  16.7123997  46.9607353  44.2339182
  16.6175354  46.8101406  43.1585407  17.5724232  46.3839912  44.5742559
  15.7650900  46.5649176  44.6000242  17.1769750  48.6712122  45.9067488
  16.3464141  48.9121771  46.3235283  19.4640541  48.5369635  43.9201117
  19.9799907  48.0319071  42.9412413  20.1000428  48.7251997  45.1065588
  19.5773697  49.1349125  45.8675098  21.3291836  48.0341673  45.5554438
  22.0188904  48.1520653  44.7196770  21.9636631  48.6774778  46.7675877
  23.0001807  48.3735323  46.9136810  21.9926524  49.7243595  46.4654064
  21.2074804  48.5829973  48.0281782  20.1687360  48.8417006  47.8227758
  21.3228488  47.5344467  48.3026457  21.8603492  49.5121145  49.1208410
  21.2682152  50.5208683  49.6059465  22.8499937  49.0527916  49.7907925
  21.0662603  46.5125227  45.8302593  20.0727177  46.0946131  46.4069605
  21.9971585  45.6719875  45.4268456  22.7712941  46.0769987  44.9201012
  22.0744848  44.2122984  45.6676674  21.0552168  43.8567400  45.8186007
  22.5541759  43.4540987  44.3452978  23.1533098  44.1080618  43.7116766
  23.2807517  42.0952749  44.5463324  24.2192554  42.2017384  45.0903702
  22.5988722  41.4257431  45.0706148  23.5812593  41.6802645  43.5842657
  21.3698149  43.2142830  43.3372450  21.7468381  42.7732134  42.4145269
  20.6355405  42.5376654  43.7744331  20.5376410  44.4113874  42.7540874
  19.8393965  44.0828609  41.9842625  20.0182676  44.8715544  43.5946846
  21.2359190  45.1469803  42.3548317  22.8158474  43.8443995  46.9096661
  22.3537993  43.0483723  47.6995707  24.0144277  44.4354677  47.1652746
  24.2000198  45.2049971  46.5379953  24.8304224  44.2662334  48.3701897
  24.1306639  44.0803146  49.1849709  25.6954408  43.0312538  48.2083750
  25.1477289  42.1421814  47.8958750  26.8946433  43.2862091  47.2196960
  27.4815440  42.3825645  47.3842430  26.5793419  43.2934427  46.1763239
  27.4970007  44.1864014  47.3418474  26.2565112  42.6648712  49.5183992
  25.7322216  41.9434023  49.8736525  25.5648065  45.5005407  48.7636614
  25.6098533  46.4488983  47.9723930  26.1737680  45.5276775  49.9859571
  26.2336326  44.6603012  50.4999399  26.7433071  46.6780329  50.6714106
  27.0701146  47.4331903  49.9565411  25.7230639  47.3632526  51.6248083
  24.9304557  47.7485323  50.9833765  25.1112103  46.3987732  52.6459885
  25.8545375  45.9964418  53.3342457  24.2317247  46.9459009  52.9854822
  24.6960115  45.4956913  52.1986055  26.3159037  48.5370827  52.1007442
  26.4299369  49.0374899  51.2894487  28.0331564  46.2448978  51.3799381
  28.0916142  45.0648928  51.7348957  28.9704943  47.1761417  51.3365746
  28.7396336  48.0338907  50.8558702  30.3780103  46.7665243  51.4895868
  30.5778766  46.1369753  50.6225061  31.2652040  48.0331564  51.2608385
  32.2911453  47.7596045  51.5072393  31.1805105  48.4290123  50.2487946
  31.0209846  49.2037487  52.2827291  30.0189519  49.6209764  52.1829796
  31.1625075  48.9665174  53.3371449  31.9268799  50.3848457  51.8500519
  32.9402494  50.0715113  52.1010637  31.8416309  50.5255318  50.7725334
  31.6566849  51.7376900  52.5859261  30.5887008  51.9303465  52.4839735
  31.9764233  51.6143370  53.6206532  32.5485659  52.7984571  52.0994377
  33.5424614  52.6756430  52.2305679  32.4283409  52.9778862  51.1128044
  32.2078967  53.6575270  52.5069237  30.6528449  46.0117722  52.7641296
  31.5092111  45.1013803  52.6990795  30.0025463  46.2883949  53.8474941
  29.3314290  47.0404959  53.7838793  30.1697874  45.6473017  55.1397705
  31.2214422  45.7309532  55.4138660  29.6887732  46.5417528  56.2630510
  28.7116337  46.9824934  56.0654497  29.6921992  45.9823895  57.1985722
  30.6407475  47.6118946  56.6368341  31.6070056  47.3958731  57.3610926
  30.4121995  48.8759518  56.1949730  30.9807658  49.6464014  56.5162849
  29.6369290  48.9858532  55.5570269  29.7231555  44.1649389  55.2562761
  30.1967359  43.4539175  56.1699867  29.0490222  43.6919022  54.1501522
  28.7013435  44.3337345  53.4521008  28.6357284  42.2562408  53.9319992
  28.9475656  41.6791487  54.8025322  27.1128726  42.2137642  53.8480806
  26.7720056  42.6599503  52.9138231  26.8195486  41.1676216  53.7606335
  26.3813663  42.8381062  55.0334358  26.5796661  43.9060211  54.9421453
  25.3144813  42.7145576  54.8474503  26.8727255  42.2531414  56.3764286
  27.1893883  41.0193443  56.5166807  26.8998933  43.0641985  57.3199320
  29.3203306  41.4949274  52.7380180  29.1037440  40.2974844  52.5923538
  30.2987766  42.1352243  52.0762110  30.4232502  43.1146622  52.2890663
  31.3739944  41.4640522  51.3795042  30.9819293  40.8348465  50.5804491
  32.3435879  42.5052929  50.7321882  32.7562118  43.0511332  51.5806580
  33.6122012  41.9729710  49.9807692  34.2427492  41.3364077  50.6014872
  33.3185911  41.5902853  49.0033007  34.2653012  42.8283167  49.8077536
  31.5904331  43.4430170  49.7898483  31.1305475  42.7750492  49.0615416
  30.8156896  44.0526056  50.2548981  32.4755597  44.4608307  49.1337299
  31.7898464  45.1367617  48.6228371  33.0304170  45.0768328  49.8413849
  33.0082393  44.0160418  48.2931852  32.2370076  40.4581642  52.2478390
  32.3598337  40.7324028  53.4610081  32.7199769  39.4033265  51.5851974
  32.5356627  39.4572878  50.5936241  33.2673073  38.2158256  52.2585201
  33.3076859  38.3491611  53.3395767  32.1966171  37.0939469  51.9964075
  31.2900972  37.4479318  52.4873447  32.0030069  36.9669342  50.9312868
  32.3656559  35.7655883  52.5309563  31.6089869  34.6798420  51.9988012
  30.7584810  34.7774601  51.3403845  31.8270826  33.3764291  52.4775791
  31.2345076  32.5861311  52.0409060  32.9921889  33.0621243  53.2523489
  33.2016134  32.0818591  53.6543751  33.7781549  34.1200686  53.6835051
  34.6696424  33.9254856  54.2612505  33.4500790  35.4439664  53.4074640
  34.0558290  36.2707949  53.7477875  34.6940064  37.9702592  51.7360210
  34.9276209  37.3878622  50.6190014  35.6947017  38.2181334  52.6074743
  35.3997874  38.5349512  53.5200262  37.1081305  37.8974009  52.2427368
  37.2273088  38.1284952  51.1842012  38.0686402  38.9013886  52.9381132
  37.9235768  38.8076282  54.0143394  39.0979671  38.5916877  52.7573586
  37.9822588  40.2276325  52.5410223  38.4361815  40.8366346  53.1281137
  37.4987507  36.3942361  52.4284315  38.5503936  36.0345006  53.0167866
  36.7147350  35.5580664  51.7867422  35.8461642  35.8420730  51.3565969
  36.8890810  34.1917348  51.6205359  36.7527342  33.7274933  52.5972557
  35.7444572  33.6967492  50.6846380  34.7466660  33.7264132  51.1223984
  35.6692982  34.3864679  49.8439598  35.9128141  32.2667336  50.1983738
  36.8514585  32.2281718  49.6456003  36.0462713  31.3093686  51.3749695
  35.2352166  31.4755392  52.0839739  35.8026242  30.2775049  51.1219978
  37.0026231  31.3542509  51.8960047  34.7658682  31.6903591  49.3747377
  34.5833755  32.2876406  48.4813929  35.1550293  30.7464552  48.9930296
  33.8464928  31.5360022  49.9395609  38.3273458  33.7922692  51.1131334
  38.9187527  32.7526975  51.5274000  38.8020420  34.5279145  50.1168585
  38.3117771  35.3798437  49.8845577  40.1114035  34.2845130  49.4662809
  40.5475092  33.2995462  49.6328688  40.0872087  34.5290613  47.9550219
  39.3469167  33.9085627  47.4499846  39.9875808  35.5745840  47.6633787
  41.3900661  34.2348242  47.5849628  41.3993597  33.4993458  46.9680500
  41.1246777  35.1810360  50.1968241  40.8220863  36.3424087  50.4776430
  42.3124790  34.7118998  50.6084633  42.5364017  33.7332201  50.4982615
  43.4692144  35.5227494  51.0624599  43.1311226  36.1513805  51.8862391
  44.6224070  34.6282864  51.6473436  44.2225313  33.9398456  52.3918200
  45.0795126  33.9612794  50.9164143  45.6465626  35.4272556  52.4454212
  46.2780714  36.0861111  51.8494272  45.0297832  35.8924198  53.2143831
  46.5909147  34.5255876  53.2508421  47.1103239  35.0649309  54.0429449
  45.9756851  33.7198758  53.6513710  47.6444197  33.9768124  52.3698616
  47.5606394  34.0639281  51.3671207  48.7023067  33.2941484  52.7508736
  49.5393610  32.8657842  51.8655396  49.3127108  32.9382372  50.8839703
  50.3961039  32.3913527  52.1125555  49.0428162  32.9678535  54.0007114
  48.3474112  32.9139280  54.7311926  49.8586369  32.3868656  54.1310740
  43.9551258  36.4645696  49.9585962  44.4073534  37.5363302  50.4307127
  43.7481880  36.1357737  48.7333584  43.3996201  35.2167249  48.5010862
  44.0195227  37.0354128  47.6119089  45.0282764  37.4162364  47.7715683
  44.1367674  36.1973238  46.3963747  44.5467329  35.2188182  46.6464949
  43.1353855  35.9531617  46.0418129  44.9355364  36.7372251  45.2897882
  44.8095560  36.1615467  44.3728256  44.7903156  37.7975798  45.0832558
  46.4898252  36.5832806  45.5612898  46.8667650  35.8269620  46.4567184
  47.2772455  37.2353315  44.8745966  43.0376768  38.1808996  47.5023460
  43.3602953  39.1174340  46.7924547  41.8731737  38.1285930  48.1824923
  41.6040277  37.2198510  48.5315609  40.9787989  39.2079163  48.4939480
  40.9473515  39.3307114  49.5765543  41.2400770  40.1108742  47.9421329
  39.5347810  38.8928223  48.0994987  39.2273927  37.7667522  47.7282333
  38.5707927  39.8733377  48.3048439  38.6470795  41.1872768  48.9401150
  39.4260859  41.8076611  48.4969711  38.7906837  41.0895634  50.0161839
  37.3525882  41.8612766  48.6512756  37.4012804  42.5460529  47.8046274
  37.1363521  42.5397730  49.4764948  36.3614607  40.7093906  48.6106825
  35.5128026  41.0376406  48.0105686  36.0237050  40.4695749  49.6189022
  37.1775031  39.5251751  48.0056953  36.8584156  38.6462522  48.5658598
  36.7454934  39.4911647  46.5151739  35.6195068  39.0470266  46.2019300
  37.5128198  40.1024055  45.6191921  38.4215260  40.4924583  45.8246517
  37.1001291  40.2866983  44.2087078  36.0231543  40.1193714  44.1936922
  37.4187040  41.7255640  43.7332726  37.2528601  42.4381781  44.5412254
  38.4822726  41.7349672  43.4948778  36.5288711  42.0673752  42.5128460
  37.0724106  41.6532183  41.6636467  35.5586767  41.5923786  42.6584625
  36.0982752  43.8428831  42.2934484  37.7221680  44.4110155  41.5980864
  38.1580639  43.7321711  40.8651066  37.5450802  45.3977823  41.1702585
  38.4132123  44.5595646  42.4278355  37.7251887  39.1933894  43.2543325
  37.7849627  39.4318414  42.0250273  38.2198548  38.1318235  43.8787699
  37.9764867  38.0435419  44.8550272  38.9312005  37.0699906  43.2029772
  39.9675417  37.3759556  43.0598593  38.9035296  35.9178782  44.2062855
  39.6265078  35.1642013  43.8942337  39.2200708  36.1436987  45.2245712
  37.8954291  35.5258393  44.3409824  38.4299159  36.6230679  41.8211603
  37.2302938  36.4445996  41.6453457  39.2344236  36.3348198  40.8091545
  40.2170038  36.5326762  40.9336042  38.8066816  36.1767983  39.4049120
  37.9695892  36.8673205  39.3021655  39.9576879  36.8870568  38.5347819
  40.0113964  37.8963590  38.9428544  40.8538485  36.3166451  38.7789869
  39.7088623  36.9346881  37.4746323  38.6031175  34.7172785  39.0429235
  39.4580078  34.1448450  38.4354210  37.5353408  34.1323137  39.5813823
  36.8193674  34.5781732  40.1369858  37.3942041  32.6860595  39.3938923
  38.2913089  32.2163224  39.7971988  36.2241077  32.1781349  40.2459955
  35.2720261  32.5128007  39.8341227  36.1463428  31.0919595  40.1983261
  36.3227105  32.5182295  41.7216253  36.8061590  31.4507961  42.5366020
  37.2456336  30.5851197  42.0634556  36.9700313  31.6473579  43.9273596
  37.4455166  30.9615040  44.6128654  36.5349150  32.8556943  44.5244694
  36.9294786  33.0785179  45.7823372  36.3151121  33.7175846  46.1507750
  36.0297060  33.8891244  43.7045002  35.6791234  34.8738647  43.9761305
  35.8319926  33.6452174  42.3250103  35.4415751  34.4647050  41.7398453
  37.1165967  32.2759295  37.9204154  36.4745426  33.0305362  37.2313547
  37.5108504  31.0930490  37.3805642  37.9687405  30.4641938  38.0247521
  37.0725703  30.5277252  36.0756612  37.2569108  31.2829828  35.3116536
  37.8021431  29.2364502  35.7365537  37.4304032  28.4511471  36.3947392
  37.5421977  28.9066672  34.2550969  38.1983399  28.0566454  34.0679145
  36.4901876  28.6786127  34.0837264  37.8890634  29.7165656  33.6133432
  39.3284917  29.4274354  35.9237456  39.5778489  29.6237302  36.9665265
  39.8847389  28.5198045  35.6894445  39.7301865  30.1150250  35.1794600
  35.5997348  30.3372931  36.1707234  35.0565386  29.3239212  36.7294836
  34.8656702  31.0669374  35.3123236  35.3117418  31.6550827  34.6229720
  33.4585857  31.0446596  35.0768137  33.0229831  31.0999584  36.0744596
  33.1056595  32.3026109  34.2949533  32.5918651  32.9670763  34.9896502
  34.0003181  32.7476645  33.8595057  32.1322727  31.9851804  33.0938101
  32.5017643  31.2362623  32.2102261  30.9311032  32.5615978  33.0096674
  30.3982496  32.5303864  32.1522331  30.5186009  33.1636858  33.7078285
  32.9919696  29.6355319  34.5965028  33.8315344  28.9356303  33.9480162
  31.7823339  29.1691804  34.8763609  30.7100344  29.9255824  35.5278349
  30.6286502  30.9350300  35.1247287  30.8849645  30.0012565  36.6010427
  29.3236732  29.1999841  35.3992581  28.7146997  29.6569729  34.6192479
  28.6748934  29.2701077  36.2723398  29.8001742  27.8519487  35.0968003
  29.0934658  27.4893236  34.3503642  29.8199010  27.2434020  36.0008907
  31.1871099  27.8413987  34.5672512  31.7733431  27.1628690  35.1869512
  31.2637901  27.4059749  33.1158376  31.1903334  26.1565232  32.9328442
  31.5087199  28.3261657  32.1972179  31.5567589  29.2946053  32.4799132
  31.6855574  28.0952835  30.7392955  31.5080595  27.0752168  30.3986263
  30.6170321  28.9021373  30.0253797  31.0598564  29.8915482  30.1397347
  30.5924892  28.5803819  28.9842391  29.2131639  28.7007165  30.6587982
  28.2741880  27.7758861  30.3642750  27.1589231  28.1304383  31.0475922
  26.1851072  27.6665711  30.9936094  27.4305344  29.1773129  31.8495202
  26.7513704  29.4872093  32.5298142  28.7495637  29.5305824  31.6545153
  29.2842507  30.3872466  32.0374513  33.1317377  28.4253931  30.2797484
  33.3932042  28.5729575  29.0411520  34.0331483  28.4978557  31.2455869
  33.6623144  28.3895087  32.1787763  35.4265523  28.6000156  30.9810734
  35.9639311  28.1492114  31.8154001  35.6997943  27.9915690  30.1189590
  35.9471750  30.0427914  30.6712341  37.1446466  30.2442336  30.4787922
  35.1135468  31.0991454  30.7368279  34.1195416  30.9474826  30.8319807
  35.6561661  32.4745560  30.8130550  36.3514805  32.5794268  29.9802065
  34.5239472  33.4711671  30.6746578  33.8588262  33.1665611  31.4826989
  34.9416018  34.4364452  30.9608436  33.8055396  33.5832548  29.3466449
  34.4265103  34.2739964  28.3090091  35.4183626  34.6931911  28.3921289
  33.7635756  34.4875455  27.0283914  34.2443800  35.0647426  26.2524605
  32.4673462  33.9237571  26.8607330  31.8418145  34.2087579  25.7045221
  32.3145580  34.9489379  25.3169060  31.7863774  33.2489920  27.9130721
  30.7849097  32.8704286  27.7711010  32.4890614  33.1493115  29.1184449
  31.9713283  32.5922823  29.8853040  36.3786054  32.7955699  32.1633053
  36.3445020  32.0188498  33.1567907  36.9867182  34.0086055  32.3528099
  37.1657538  34.5560718  31.5231562  37.5935960  34.3931127  33.5854650
  37.1747375  33.7546968  34.3633413  39.0816951  34.2296576  33.6411166
  39.5354104  34.9960160  33.0126715  39.7301769  34.4569063  34.9791336
  40.7910061  34.2235804  35.0702381  39.6276307  35.5251098  35.1702619
  39.1635776  33.9921904  35.7860446  39.6811008  32.9163599  33.1255770
  40.7251358  33.0951095  32.8683972  39.6422791  32.0782781  33.8214350
  39.1589713  32.7197766  32.1891809  37.2130466  35.8407974  33.8931942
  37.7467489  36.7088866  33.2443953  36.3820338  36.0456252  34.9137616
  36.0322309  35.3356791  35.5412292  35.8211184  37.3788643  35.2285242
  36.3833070  38.0052257  34.5358992  34.3128824  37.3856592  35.0772738
  33.9636040  36.7556095  35.8952856  33.8793540  38.3292484  35.4086399
  33.8188148  36.9219232  33.6668086  34.1623569  37.6304054  32.5279570
  33.4158278  37.0700169  31.5568042  33.4951711  37.4205208  30.5383468
  32.5372267  36.2295246  32.0192027  31.8692756  35.7369566  31.4435983
  32.7316284  36.1649776  33.3622217  32.0598936  35.7147217  34.0780735
  36.2004638  37.8047800  36.6919684  36.3110781  36.9051003  37.5431442
  36.2193918  39.0893745  37.0654702  36.0723138  39.8671103  36.4380932
  36.3626885  39.4876528  38.5141516  37.1898079  38.8812280  38.8832331
  36.9660664  40.8769989  38.5495901  37.0516300  41.0295486  39.6254659
  38.0044365  40.7134247  38.2612658  36.2132311  41.9719458  37.7584505
  35.9629655  41.7258310  36.7265129  35.3245950  42.2346973  38.3323741
  36.9674516  43.2847834  37.5932789  38.1731772  43.2545233  37.2813106
  36.4486599  44.4371939  37.7935195  34.9952316  39.4122100  39.3550634
  33.8794851  39.9163938  39.0276647  34.9731088  38.5394669  40.3993893
  35.8733916  38.1319737  40.6080532  33.7529540  38.0438328  41.0236263
  32.8649139  38.5818100  40.6918526  33.5263658  36.5031743  40.6371117
  34.4755793  36.0083652  40.8426762  32.3842859  35.8461046  41.4463091
  31.5205145  36.5097666  41.4068747  32.0436764  34.8640728  41.1181307
  32.7422619  35.7854390  42.4740601  33.2735825  36.3002467  39.1745400
  32.2493458  36.6154289  38.9752889  33.9599752  36.9315767  38.6102819
  33.4570503  34.8812437  38.6179209  33.0218339  34.0341568  39.1481519
  33.0557203  34.8318553  37.6056957  34.5369148  34.7677302  38.5224962
  33.7877512  38.3080411  42.5670671  34.6462226  37.7401948  43.2136202
  32.9177999  39.2490506  42.9996347  32.2178459  39.5137024  42.3213053
  32.7744508  39.6735215  44.4349432  33.7691283  39.7878814  44.8657990
  31.9104743  40.9368181  44.5362759  31.0084701  40.9357977  43.9243221
  31.5936947  41.1321402  45.5607796  32.7579474  42.2153807  44.2618132
  33.1234407  42.1254826  43.2388592  31.8361259  43.4513283  44.4170904
  32.3515344  44.4032764  44.2896414  30.9011126  43.4331560  43.8571596
  31.3829660  43.3844471  45.4061699  33.8530970  42.4179935  45.3133965
  33.4863758  42.2570133  46.3271523  34.6307373  41.7229033  44.9968147
  34.3650627  43.3786297  45.3696918  32.1886039  38.5263276  45.2202606
  31.0672665  38.0520082  45.0197458  32.9913211  38.1003809  46.2106180
  33.8852167  38.5417008  46.3727522  32.5220752  37.0722270  47.1402979
  31.7172813  36.4138556  46.8132591  33.6722350  36.2731767  47.7015781
  34.4018292  36.8743658  48.2441330  33.1301618  35.1991129  48.6132145
  32.3233676  34.6339750  48.1465197  33.9022899  34.4523668  48.7984133
  32.7307820  35.7317829  49.4762659  34.2307472  35.5609226  46.5986347
  34.8115778  36.0857177  46.0429144  31.7963409  37.7966785  48.2960415
  32.4171996  38.7144375  48.8038063  30.6079936  37.3915815  48.7120962
  30.3744507  36.4836645  48.3362675  29.6206832  38.1605196  49.4417143
  30.1814604  38.9106107  49.9993801  28.6755729  38.8483381  48.3801126
  28.4621620  38.1825566  47.5438786  27.3418832  39.3502140  49.0133524
  26.6556382  38.5058594  49.0783930  27.4567485  39.7611499  50.0163651
  26.8109822  40.0979757  48.4242010  29.4678593  39.9939132  47.6872683
  28.8172579  40.5272055  46.9941568  29.7956300  40.6907940  48.4586477
  30.4002452  39.7174144  47.1950197  28.8569713  37.2709465  50.4253960
  28.3426642  36.1976695  50.1023722  28.8042426  37.6379538  51.6643572
  29.0874481  38.5921168  51.8360281  27.9729223  36.9642210  52.6961613
  28.0949402  35.9030461  52.4791002  28.4214830  37.4228024  54.0785074
  28.3936143  38.5123754  54.0908384  27.6721931  37.0284986  54.7649431
  29.6264815  36.8776345  54.7108603  29.5815730  35.5902767  55.2601004
  28.6488533  35.0482988  55.2082443  30.6925106  35.0392365  55.9345770
  30.5243659  34.0732193  56.3872766  31.8295836  35.8633399  56.1441469
  32.7759314  35.5186796  57.0821095  32.3754859  34.9746585  57.7642250
  31.7897677  37.1970725  55.6529522  32.6270890  37.8578758  55.8221626
  30.7260489  37.6778150  54.9211073  30.7585287  38.6878133  54.5399904
  26.4922118  37.2583270  52.6901340  25.7744741  36.3717365  53.0412388
  26.0630512  38.4579659  52.3314381  26.7451286  39.1807890  52.1514463
  24.6080685  38.8394594  52.3485422  24.0532875  37.9050970  52.4338913
  24.3727875  39.7581720  53.5757256  24.7891450  39.3153930  54.4805431
  24.8048067  40.7489967  53.4352827  22.8128505  39.9535155  53.7931299
  22.3472381  40.3506613  52.8911400  22.3586226  39.0186834  54.1215563
  22.6199317  40.9864235  54.9327803  23.2258415  40.5849648  55.7450676
  22.9587626  41.9669151  54.5982218  21.2103915  41.0192966  55.3104115
  20.5939937  41.5552664  54.5886803  20.7659554  40.0319195  55.1852417
  21.0506248  41.6701889  56.6749525  21.5094590  41.1387634  57.4010086
  21.4469862  42.5985622  56.7084265  20.0901890  41.7976570  56.9602823
  24.2894220  39.6086860  51.1083317  24.8556018  40.6652117  50.8202457
  23.2993937  39.2169619  50.2945423  22.8010154  38.3838868  50.5732965
  22.7841306  39.8772597  49.1241741  23.0117154  40.9427357  49.0914154
  23.1548810  39.1584897  47.8159094  24.2312813  38.9928508  47.7709103
  22.5795126  38.2460690  47.6592493  22.9104352  39.8411012  47.0020390
  21.2407756  39.8169780  49.2357349  20.6948733  38.8258743  49.7578287
  20.5879283  40.8518505  48.6250544  21.2173963  41.5467405  48.2495642
  19.1277611  40.9406185  48.4516335  18.8357913  39.9541616  48.8118458
  18.6137867  42.0290804  49.4326830  18.7616003  42.9835510  48.9274693
  17.5381482  41.9423294  49.5862341  19.3955564  42.1398973  50.9794044
  20.2635169  43.0907297  50.6223869  18.8742733  41.2105560  46.9734144
  19.8204374  41.4197016  46.2043571  17.6182294  41.3654613  46.5629578
  16.9224834  41.0920811  47.2421503  17.0581257  41.7234898  45.2716398
  15.9723902  41.6322851  45.2406836  17.3440850  43.1240368  44.9686575
  18.3980107  43.3784151  44.8562622  16.9690728  43.4209776  43.9892197
  16.7593157  44.1314077  45.9969425  15.5590427  44.0881157  46.2411261
  17.5521088  44.9637604  46.6896582  17.2353053  45.5467939  47.4511099
  18.4594929  45.1443863  46.2845325  17.6479685  40.7955551  44.1937876
  18.0050254  41.1822462  43.0736065  17.7371907  39.4686604  44.4930744
  17.4426079  39.1201591  45.3941154  18.1149745  38.3838677  43.5669422
  18.0358124  38.8615537  42.5903940  19.5290542  37.7299976  43.8311768
  19.4892168  37.2816253  44.8238897  19.8155773  37.0420074  43.0357695
  20.5641866  38.7814426  43.7613440  20.3165364  39.6989369  44.2951775
  21.8734980  38.1355667  44.2745495  21.9917178  37.2615075  43.6341286
  22.7334976  38.7920165  44.1419697  21.8982053  37.8224349  45.3183079
  20.8228469  39.2834616  42.3457384  21.4393020  40.1813936  42.3033524
  21.1207533  38.4906363  41.6595984  19.8992944  39.7591972  42.0158482
  17.1917963  37.1592379  43.6084366  16.9465363  36.6171455  44.7078371
  16.6426635  36.8353677  42.4662161  17.0772743  37.3132181  41.6897678
  15.8693445  35.5989790  42.2472858  15.4394937  35.2804565  43.1969547
  14.6694708  35.9678173  41.3826990  15.1064849  36.5310502  40.5581474
  14.0625274  35.1086283  41.0971928  13.6616182  36.9256783  42.0232725
  13.5216498  37.0959640  43.2125664  12.8956485  37.5335813  41.1601162
  12.0553100  37.9399920  41.5458107  13.0617177  37.3781776  40.1760578
  16.7087579  34.4608116  41.6612530  17.5776303  34.6070313  40.8714437
  16.4342082  33.2501507  42.1234655  15.6422961  33.2082343  42.7489519
  17.1787989  32.0577908  41.8703318  18.2060277  32.3495364  41.6517305
  17.2963512  31.1891770  43.1642771  16.2912238  30.8206630  43.3692551
  18.0370247  30.4111552  42.9793835  17.7522254  31.9402456  44.4598532
  16.9232678  32.5849819  44.7518206  18.0795646  30.9753799  45.5434799
  17.2572374  30.2622581  45.4857349  19.0382886  30.5569625  45.2370834
  18.0564988  31.5290427  46.4821100  19.0229857  32.7980113  44.1425371
  19.9808455  32.2915483  44.0237808  18.8303721  33.3599901  43.2286549
  19.1016662  33.5203075  44.9550676  16.5843892  31.2499094  40.6257582
  15.3638959  31.2067389  40.5571032  17.4446976  30.6815434  39.8042154
  18.3831418  31.0477948  39.7315335  17.0768011  29.8158193  38.6573029
  16.0468984  29.9771738  38.3389258  17.8677630  30.2236295  37.4041939
  18.9350891  30.2532434  37.6233816  17.6622319  29.2603493  36.1766195
  16.7400301  29.5184445  35.6560040  18.5722697  29.3545413  35.5841160
  17.5486803  28.2092285  36.4418530  17.6119912  31.7395234  37.0303345
  16.5294015  31.8135548  36.9272614  18.0329204  32.3750281  37.8094721
  18.2362962  32.1968889  35.7044792  17.7812183  31.7635632  34.8138404
  17.9378724  33.2343435  35.5537057  19.3153083  32.0439196  35.6837988
  17.0932412  28.3504581  39.0878725  18.0872750  27.6026797  39.0086794
  15.9464645  27.8357100  39.4805002  15.2852809  28.5772848  39.6621656
  15.6423318  26.4906383  40.0539875  14.5602179  26.4594340  40.1811028
  15.8867478  25.7025647  39.3417358  16.3952887  26.1211324  41.3088703
  17.0667207  26.8949223  41.9457626  16.2661219  24.8534298  41.6829300
  15.8420396  24.2113638  41.0287094  17.0897830  24.2947412  42.8005219
  16.9104660  24.8329902  43.7312412  16.6607213  22.8417444  43.1695700
  17.2199535  22.5077844  44.0435410  15.6408644  22.8213191  43.5537243
  16.9250119  21.7730546  42.0535374  16.3375235  22.0561266  41.1801386
  18.0045116  21.7952824  41.9042587  16.4276183  20.3833795  42.5136566
  16.9060707  20.1676154  43.4689713  15.3445709  20.3762770  42.6363659
  16.8257153  19.3313086  41.5785599  17.4960792  18.6026216  41.7778778
  16.0871065  19.0895176  40.5039644  16.2545276  17.9777288  39.8472571
  16.9345713  17.3402739  40.2362299  15.7262731  17.7902460  39.0070796
  15.2501929  19.9135900  40.0562143  15.0052798  20.7581496  40.5530453
  14.8793340  19.6801317  39.1462350  18.6239970  24.3718886  42.4891472
  19.1113043  24.2740512  41.3333941  19.4926584  24.3552279  43.4998465
  19.3092513  25.0459862  44.8079109  18.8630629  24.3761921  45.5430269
  18.7954295  25.9817672  44.5879126  20.7516146  25.3316355  45.3266811
  20.7810926  25.1391816  46.3991547  21.0463238  26.3428545  45.0461626
  21.5402842  24.2125463  44.7101974  21.4458656  23.3680749  45.3928804
  22.6034188  24.4499755  44.6717930  20.9584212  24.0476584  43.3453989
  21.3183594  24.8265529  42.6731920  21.3066053  22.7320218  42.6859665
  20.5190372  21.7504573  42.8585482  22.4716544  22.5633478  42.1878004
  23.0694437  23.3759284  42.1381903  23.0513859  21.2786198  41.7243290
  22.6794791  20.3845119  42.2246885  22.8839183  21.2182426  40.1785421
  21.8558645  21.1736345  39.8190832  23.2968545  22.1658778  39.8327446
  23.6375880  20.2534461  39.5720410  23.3285260  20.1209140  38.6728644
  24.5772314  21.3723278  41.9357681  25.1403451  22.4997544  41.9768381
  25.2860260  20.2987146  42.1655655  24.7536087  19.4439960  42.2435904
  26.7500305  20.3038716  42.3651457  27.0156837  20.9783816  43.1791258
  27.0809722  18.9038110  42.9546118  28.1482744  18.8178217  42.7507162
  27.1615386  19.0351105  44.4887829  26.1418080  19.2548263  44.8049736
  27.4462438  18.0933058  44.9578762  27.9372120  19.7395313  44.7891569
  26.4417219  17.7759528  42.5537443  25.5814338  17.8592801  42.9715538
  27.5609207  20.5630422  41.0532665  28.7575436  20.7604527  41.0646152
  26.8625569  20.5240440  39.9400449  25.8533525  20.5083346  39.9770260
  27.4899197  20.5539036  38.5915923  28.4305859  20.0051713  38.6378717
  26.5881658  20.2405262  37.3566675  25.6107450  20.6766820  37.5628638
  27.0767355  20.7149410  36.5055895  26.3466120  18.7690747  37.0110440
  25.6302381  18.4824169  37.7809381  25.8713770  18.6585450  36.0363436
  27.6057601  17.9150915  37.0716190  28.4548402  18.0754483  36.1510015
  27.8413844  17.1276021  38.0246925  28.0779076  21.9653177  38.2716823
  27.3736095  22.9648542  38.1531549  29.4168377  21.9518065  38.0236697
  30.0095701  21.1836505  38.3042073  30.2682114  23.1625056  37.6480985
  31.1722541  22.8478122  37.1267724  29.5465493  24.0620732  36.5285301
  28.7900591  24.7921300  36.8163729  30.2156568  24.6607876  35.9105206
  28.9178681  23.1623840  35.4351759  29.6216607  22.1504569  34.6679950
  28.7139130  21.5991426  33.8365006  28.7742138  20.7510114  33.1705904
  27.5076604  22.2498393  33.9921904  26.6962934  21.6865468  33.7812757
  27.6276064  23.2296133  34.9962306  26.8560576  23.8870525  35.3689027
  30.7810760  23.9340186  38.8409138  31.4651990  24.9405217  38.6564755
  30.5051303  23.5061073  40.0389624  29.8307371  22.7592707  40.1257801
  31.0036564  24.0802932  41.3035774  30.6596184  25.1121998  41.2335443
  30.3135371  23.4203982  42.4981451  29.2415333  23.4641600  42.3058033
  30.6589389  22.3865700  42.4997044  30.6926537  24.0008473  43.7656260
  30.1659441  23.5793757  44.4486618  32.5261974  24.0015364  41.4752865
  33.1025171  22.9084039  41.3232088  33.0931187  25.1006675  41.9741488
  32.5169230  25.9089899  42.1604872  34.5217395  25.1897287  42.4499083
  35.1440382  24.7847843  41.6518688  34.9007177  26.7518854  42.5084639
  34.4853377  27.1973586  43.4124088  35.9871149  26.7862701  42.5900507
  34.3579173  27.5826597  41.3421631  34.6927905  27.2636247  40.0919104
  35.2664471  26.3761973  39.8687553  34.2464614  28.3305979  39.2765546
  34.6238327  28.4544230  38.3479238  33.6449409  29.3337631  39.9991703
  33.0980873  30.5834055  39.5916033  33.2751584  30.8545756  38.5613060
  32.5904655  31.4624977  40.5964994  32.1048713  32.4009323  40.3730106
  32.6827836  31.0591245  41.9457960  32.2308826  31.6363573  42.7388859
  33.2548618  29.7747135  42.3017597  33.3155918  29.4704556  43.3362341
  33.7586141  28.9621139  41.3520622  34.8576736  24.6047187  43.7775850
  36.0185242  24.2485976  44.0136528  33.8316226  24.3888712  44.6219969
  32.9334712  24.7342157  44.3151379  33.9688349  24.1606212  46.1037493
  35.0142574  24.0297818  46.3831758  33.3970523  25.4059482  46.8536043
  32.3553443  25.2817965  46.5577459  33.4646916  25.2477098  47.9299307
  34.0290451  26.8091607  46.5648842  35.4245114  26.9175386  46.3533545
  36.1142945  26.0949516  46.4714813  36.0027933  28.1410599  45.9942532
  37.0785475  28.2360816  46.0056543  35.1051521  29.2311430  45.8979750
  35.5057168  30.2110267  45.6840229  33.7165260  29.1309261  46.0639095
  33.0498433  29.9803472  46.0435486  33.1412673  27.9011154  46.4274073
  32.0786452  27.8336573  46.6082144  33.2950592  22.7655625  46.4636850
  32.1157765  22.7186608  46.7281246  34.0652299  21.7262435  46.5540981
  35.4745078  21.5645170  46.2436581  35.9809303  21.9093728  47.1451616
  35.8712292  22.1115923  45.3884268  35.7851481  20.1011729  46.0268354
  36.7653918  19.7494316  46.3485575  35.6144524  19.8010266  44.9929714
  34.6722317  19.4869792  46.8944597  34.9860549  19.4757795  47.9382467
  34.4793653  18.4742570  46.5404797  33.4759045  20.4369330  46.8845510
  32.9027796  20.1951075  45.9894800  32.5447011  20.3872323  48.1636333
  32.9650378  20.8578420  49.2457104  31.3642645  19.8717082  47.9940510
  31.1800647  19.5103443  47.0690680  30.3682709  19.7645235  49.0544415
  29.7740293  18.8604558  48.9216280  30.8320069  19.7373867  50.0404978
  29.3758774  20.9403300  49.0700626  28.5412574  21.0318232  49.9438572
  29.6669197  21.9450879  48.2021093  30.4225039  21.7765021  47.5534391
  28.7737155  23.1014156  47.9467058  28.1016207  23.1817555  48.8010693
  29.5836377  24.3914986  47.9682732  30.3534245  24.2812061  47.2044897
  29.0275574  25.2259731  47.5410414  29.9255538  24.8698258  49.3696356
  31.1379099  24.5090318  49.9889517  31.7991638  23.8658929  49.4272423
  31.3834405  24.9289155  51.3099861  32.2965646  24.6318316  51.8043089
  30.4360223  25.8030534  51.9560432  30.7904053  26.1395288  53.2340479
  30.4388213  26.9584131  53.5910082  29.3371177  26.3249278  51.2478542
  28.6726332  27.0043492  51.7609262  29.0998220  25.8320737  49.9510860
  28.1913042  26.0921526  49.4282436  28.0852270  22.8776765  46.6325474
  28.7046766  22.9753923  45.5373764  26.7517447  22.6447654  46.6718245
  26.3087177  22.7489972  47.5734711  25.8998775  22.7289081  45.5026913
  26.4066172  22.2138095  44.6866035  24.5234132  22.0633197  45.8745718
  24.6718168  21.0212731  46.1577988  24.0830517  22.4999285  46.7709875
  23.8766718  22.2088099  45.0093222  25.6691527  24.2721438  45.1903725
  25.8243990  25.1331186  46.0199690  25.2481866  24.5866156  43.9427805
  25.2348518  23.9524245  43.1568289  25.0183225  25.9850359  43.5229063
  24.7110033  26.5200496  44.4214678  26.2636447  26.6981983  43.0660772
  26.1187100  27.7674913  43.2200480  27.0716810  26.4210463  43.7431049
  26.8556952  26.4009666  41.7073870  26.8319345  25.2555728  41.0731411
  26.3459873  24.3803477  41.4784050  27.5370836  25.2664423  39.8693538
  27.7673292  24.4983578  39.2552400  28.1504488  26.5218973  39.7206473
  29.0139699  27.0560241  38.7553859  29.3748665  26.4645839  37.9269218
  29.4420385  28.4171557  38.8971639  30.0917244  28.8975430  38.1805491
  29.0613604  29.0862274  40.0672817  29.3902183  30.1062107  40.2010202
  28.2993531  28.5072517  41.1157608  28.1214857  29.0276146  42.0452690
  27.7374268  27.2276211  40.8722067  23.8847303  26.2009096  42.4834919
  23.6553359  25.4042172  41.5687227  23.1259823  27.3194408  42.6090097
  23.5100722  27.9776764  43.2718134  22.0054054  27.7660227  41.7724609
  22.0164704  27.0964551  40.9124231  20.5989075  27.8690624  42.3675680
  20.2462912  26.8470478  42.5062895  20.4805446  28.7760162  43.6542416
  21.2392807  28.5512161  44.4038296  20.4282761  29.7997451  43.2836294
  19.4978642  28.5275674  44.0551281  19.6967351  28.4211636  41.4411545
  19.2170429  27.7711010  40.9225845  22.3350120  29.1905332  41.2490606
  23.1459236  29.8988032  41.7791033  21.7957354  29.5831847  40.0819254
  21.2513328  28.9230227  39.5453501  22.1269178  30.8031249  39.3132663
  23.1746054  31.0180187  39.5236707  22.2478938  30.5211639  37.7627850
  21.2848043  30.1931143  37.3717117  22.6968765  31.7574620  37.0080543
  23.5264134  32.1444535  37.5998330  23.0122042  31.6081119  35.9754038
  21.8607426  32.4566436  36.9966769  23.2767129  29.4257903  37.3426604
  23.0602860  28.4917641  37.8611636  23.2047629  29.2999434  36.2623429
  24.2684102  29.6747541  37.7203751  21.2990141  32.0405173  39.7907829
  20.0636601  31.9434881  39.9011469  22.0158315  33.1742907  40.0311899
  23.0186558  33.1888056  39.9118829  21.3887501  34.4312644  40.5036879
  20.4845572  34.1946006  41.0645199  22.2650003  35.0339508  41.5362453
  21.6809964  35.7790136  42.0765495  22.5035787  34.1890979  42.1823168
  23.1385922  35.5439043  41.1301851  21.0303426  35.3652596  39.3641043
  21.9276547  35.8880496  38.6361957  19.7443426  35.6861162  39.2600751
  19.0764570  35.3046989  39.9147129  19.2909157  36.7574239  38.4247780
  20.0626922  37.0296001  37.7047896  18.1152511  36.1641264  37.6568270
  18.3838320  35.1631856  37.3190641  17.2681749  36.1197376  38.3413649
  17.7161336  37.0094824  36.3909292  17.7250373  38.0401754  36.7454600
  18.3667433  36.8008304  35.5416489  16.3704336  36.6425133  35.9112978
  16.1326623  35.4994822  35.3964090  15.3455615  37.4811149  36.0131574
  14.4814897  37.2750521  35.5325150  15.5591297  38.4046030  36.3619494
  18.9721990  37.9539609  39.3408370  18.3946478  37.7457142  40.4362822
  19.0918863  39.1731715  38.8037419  19.6495569  39.2855573  37.9691935
  18.2547259  40.3036308  39.1831160  18.6268830  40.7457304  40.1073170
  18.4860790  41.4379120  38.1896734  17.9587436  41.3752460  37.2377849
  19.5567763  41.3949585  37.9900169  18.1809103  43.0583572  38.8800812
  16.8301773  39.9172664  39.4929266  16.1764276  39.1847897  38.7206173
  16.3162088  40.3954744  40.6375074  17.0258987  40.8977461  41.1514759
  14.9064505  40.6256151  40.9732199  14.2908061  39.7288656  40.9030819
  14.6986175  41.0047817  42.4457836  15.2195728  40.1853704  42.9410362
  15.1542008  41.9317341  42.7940798  13.2610953  40.8623028  42.9443026
  12.7121913  41.7326546  42.5847387  12.7645409  40.0412989  42.4271059
  13.0536640  40.6861115  44.4550276  13.3933902  39.6744227  44.6767902
  13.7968349  41.3061333  44.9563980  11.6072869  40.8280373  44.9067783
  11.3671124  41.8522167  44.6213388  11.0839880  40.0329399  44.3756676
  11.5231895  40.5770254  46.3218594  10.6096768  40.5144882  46.7481089
  12.0333397  39.7224569  46.4937878  11.9710279  41.3034296  46.8621206
  14.3004513  41.6249752  39.9827003  13.1203461  41.4491129  39.6547699
  15.0019634  42.6383162  39.4097090  16.0084844  42.6284456  39.4928908
  14.3477225  43.5591698  38.5074663  13.2745230  43.5989618  38.6939144
  14.9859273  44.9789429  38.7684083  16.0735202  45.0284576  38.7155795
  14.3097496  45.9531116  37.7830458  14.7422338  45.7564783  36.8020225
  13.2378566  45.7557917  37.7685046  14.4988799  47.0002890  38.0191422
  14.4903600  45.3963327  40.1581430  14.5191121  46.4853811  40.1227379
  13.4686160  45.1012850  40.3970671  15.4523361  45.0082731  41.3569593
  15.4906523  43.9244223  41.4660358  16.4386177  45.3489828  41.0418940
  15.1228833  45.6196833  42.1970463  14.4320667  43.0920696  37.0945859
  13.4511769  42.5827169  36.6358972  15.6252968  43.1302166  36.5050769
  16.4840364  43.5062599  36.8809175  15.7250452  42.6138735  35.1333451
  14.7509789  42.7788305  34.6728182  16.6137767  43.6760664  34.3795538
  16.2562895  44.6928358  34.5422816  16.4497674  43.6854315  33.3019996
  18.3565998  43.5287857  34.9213672  16.0327733  41.0809708  34.9793458
  15.7982862  40.2534962  35.8922553  16.4506888  40.8354235  33.7887502
  16.6999972  41.6764164  33.2880783  16.7386150  39.4815278  33.2088542
  16.1458313  38.7297368  33.7299275  16.2710643  39.4905829  31.7238402
  15.1896667  39.5850444  31.6250324  16.8289924  40.2487564  31.1743045
  16.6026521  38.5356736  31.3160396  18.2448530  39.2484784  33.4771872
  18.7739706  38.2107854  33.1087947  19.0517485  40.1911163  33.9284849
  18.6379397  41.0839605  34.1558266  20.4497504  40.0380707  34.1676068
  20.9783220  39.9600792  33.2175350  21.0008454  41.3485909  34.8174739
  20.6981754  42.2016621  34.2102170  20.5389833  41.3865376  35.8040571
  22.4138308  41.4354944  34.9964070  22.5798607  42.3190212  35.3331733
  20.8598995  38.8723731  34.9708915  20.4591990  38.7907195  36.1441803
  21.8413043  38.1570625  34.3972802  22.0152068  38.2356238  33.4054685
  22.4736524  37.0445704  35.1035500  21.8203759  36.6804790  35.8964992
  22.7689433  35.8337927  34.2409110  23.4560513  36.0812378  33.4317470
  23.2665491  35.1148915  34.8918080  21.5904355  35.0484538  33.6296988
  21.7101359  34.0118456  32.7030945  20.5649495  33.3504415  32.6636958
  20.2427673  32.7270699  31.8427157  19.7282767  34.0659285  33.4215212
  18.7577283  33.8122654  33.5389614  20.3463578  35.0086474  34.1273475
  20.0111008  35.5519366  34.9984622  23.6402750  37.5715232  35.8826089
  24.6384215  37.9373860  35.3127861  23.4149575  37.8157854  37.1736050
  22.7006173  37.3058295  37.6733661  24.3623734  38.6147332  38.0626369
  24.9737000  39.2738080  37.4461961  23.4651494  39.4824958  39.0681028
  22.8286433  38.7537313  39.5699620  24.4546223  40.1719141  40.0382376
  25.0736356  39.4450140  40.5641079  25.0190210  40.9078074  39.4655037
  23.9494300  40.7849216  40.7846308  22.5125647  40.5230856  38.3939886
  23.0140877  41.0625315  37.5905156  21.5888262  40.0491190  38.0620694
  22.0410728  41.5931559  39.3691087  21.2950993  42.1496582  38.8017225
  21.4814019  41.0142517  40.1037788  22.8060603  42.3010111  39.6882248
  25.3268385  37.6704979  38.7411666  26.4736176  38.0491614  38.9325881
  24.9290681  36.5060782  39.2151570  23.9888811  36.2213039  38.9805102
  25.8804607  35.6155753  39.8406577  26.7149663  35.5178452  39.1462851
  26.1821699  36.1778069  40.7243824  25.3839254  34.1951942  40.1879597
  24.6491265  33.5560703  39.3918443  25.7381606  33.7478542  41.3722658
  26.3439465  34.3857384  41.8684769  25.5788708  32.4043536  41.8671465
  24.7150636  31.9782209  41.3568974  26.7235637  31.5044641  41.3950825
  27.5888443  31.8331885  41.9707012  26.5837860  30.4371691  41.5666723
  27.1834087  31.5964055  39.9685955  26.6989326  30.8044195  39.0072441
  26.0298443  29.9969840  39.2656398  27.3788857  30.9658456  37.8537250
  27.0488977  30.4055452  37.0808911  28.4007502  31.9059443  38.0338073
  29.3281603  32.5631118  37.2059345  29.3232799  32.3169398  36.1543751
  30.2649498  33.4776711  37.6835465  30.9984660  33.9281297  37.0312858
  30.0465918  33.9500999  38.9968371  30.7299328  34.7061300  39.3544173
  29.0986180  33.3422422  39.8868394  29.0099096  33.6244869  40.9255266
  28.2239509  32.4067211  39.3680263  25.5301142  32.2204733  43.3633232
  26.2646937  32.8998590  44.1137648  24.5773244  31.3749838  43.8611650
  24.2164803  30.6608534  43.2447958  24.4123721  31.0915041  45.2252340
  24.9864841  31.8123627  45.8073473  22.9987788  31.3736343  45.5783129
  22.8007340  32.3477149  45.1310492  22.4213862  30.5677462  45.1252460
  22.9128122  31.4433908  47.1243429  23.4280944  30.6056690  47.5942469
  23.4320545  32.3505354  47.4335051  21.4301753  31.4820004  47.5573444
  20.8380008  32.1725583  46.9568729  20.9435964  30.5634522  47.2293091
  21.3456297  31.8147635  49.0174484  22.0346117  31.2367797  49.6333504
  21.8264008  32.7925873  49.0460873  19.9551308  31.9296193  49.5008516
  19.3876088  32.5840282  48.9814568  19.3594611  31.1139750  49.5000744
  20.0697064  32.2126985  50.4635763  24.7925282  29.6448112  45.6378412
  24.2951226  28.6848378  45.1229811  25.8836007  29.5859575  46.3809109
  26.2425876  30.4267693  46.8101692  26.4529157  28.3800602  46.9559288
  26.2231851  27.6285577  46.2005711  27.9803157  28.4247565  47.0479202
  28.1855106  29.2659020  47.7100945  28.4173608  27.5128078  47.4546719
  28.7158847  28.6223650  45.7699680  29.0100932  29.8555064  45.1308727
  28.6216283  30.7265687  45.6375694  29.8091912  30.0020838  43.9770460
  29.9456692  30.9682369  43.5140944  30.3378534  28.8712120  43.3772039
  30.7653594  29.0333176  42.3987532  29.9852371  27.6105857  43.9497089
  30.3027201  26.7371488  43.3995056  29.2141056  27.4976444  45.1338291
  28.8760376  26.5419436  45.5063152  25.7736850  27.8282905  48.2917595
  25.6174278  28.5458398  49.2863703  25.3223467  26.5420580  48.2678699
  25.5161691  25.9373832  47.4824381  24.6889591  25.9464908  49.4364548
  24.8031759  26.6042686  50.2980757  23.2343841  25.6837153  49.1914558
  22.9116321  25.0835919  50.0422144  22.3938560  26.9207764  48.9929771
  22.3391318  27.2272253  47.9483747  21.4053464  26.8737006  49.4498587
  22.8106713  27.7351284  49.5856047  22.9468107  24.8872972  48.1390429
  23.6972737  24.2916942  48.0784798  25.3990626  24.6393895  49.8423338
  25.3818917  23.7267089  48.9887714  25.9927988  24.5347881  51.0592699
  25.8541560  25.2534914  51.7552185  26.6678429  23.3024740  51.5416956
  27.5368047  23.2029557  50.8912325  27.1593285  23.5113788  52.9324007
  27.9092622  24.3023515  52.9238462  26.2958574  23.8531947  53.5030842
  27.5636005  22.6005578  53.3740616  25.7380462  22.0359325  51.4967346
  24.4985604  22.1837044  51.6023874  26.3336778  20.8206010  51.4727926
  27.3140550  20.7170582  51.2531376  25.5855775  19.5959687  51.6205883
  24.5074630  19.7510242  51.5790367  25.8469915  18.6403632  50.4417419
  25.1236534  17.8253853  50.4154158  25.5845475  19.3378067  49.0718412
  26.3998532  20.0390196  48.8938713  25.4956055  18.4467041  48.4504509
  24.5933628  19.7910547  49.0569210  27.0889425  17.9843092  50.6001759
  26.9883180  17.1381938  50.1579475  25.6497574  18.8458002  52.9397440
  25.1007628  17.7721620  53.1000185  26.3087058  19.4928074  53.8766432
  26.6884518  20.4183531  53.7378550  26.5344095  18.9931023  55.2504778
  25.7808971  18.2761681  55.5765533  27.8875184  18.1335115  55.2402735
  27.8254795  17.4367213  54.4043684  28.7097383  18.8395762  55.1239634
  28.2083607  17.2600079  56.5050840  29.2896700  17.1704602  56.4009142
  28.0866742  17.7912080  57.4490833  27.3895764  15.9335029  56.5653610
  26.3409376  16.0561407  56.8363190  27.4980187  15.3808773  55.6321144
  27.8740525  14.9937642  57.6893568  27.6833296  15.5395293  58.6134052
  27.2138500  14.1290152  57.7559805  29.3686962  14.6759355  57.5796127
  29.6322036  13.8779247  58.1398344  29.6317101  14.2984223  56.6804934
  29.9611449  15.4756486  57.7515459  26.5154958  20.1706171  56.2851954
  27.1496105  21.2257361  56.0063601  25.8102226  19.9919283  57.4223566
  25.5147791  19.0544355  57.6545858  25.5875444  21.1008501  58.3418703
  25.5386829  22.0180941  57.7550364  24.3167162  20.8071780  59.1619587
  23.5315418  20.4414582  58.5002565  24.4303513  19.9467576  59.8214054
  23.8636875  22.0203757  59.9716091  24.6225667  22.0915914  60.7507944
  23.7733126  22.9018092  59.3367815  22.5094962  21.8039799  60.6461287
  21.6560507  21.5812111  60.0057364  22.5734854  20.9963918  61.3753796
  22.1294236  23.0192876  61.4118338  23.0241871  23.3017516  61.9665575
  21.8909478  23.8453031  60.7418156  21.0372329  22.8437757  62.3914671
  20.3111577  22.3346734  61.9080114  21.4130163  22.2679305  63.1312561
  20.7806730  23.7189150  62.8255320  26.8017268  21.3400865  59.2003822
  27.0018816  22.4145865  59.7541142  27.7770543  20.3975296  59.2136145
  27.4674368  19.4849789  58.9111423  29.2785978  20.6213641  59.3400192
  29.4232345  20.6573319  60.4197788  30.1287818  19.3988824  58.8576460
  30.0168443  19.3622768  57.7740288  31.1803722  19.5614064  59.0939617
  29.6946263  18.0603075  59.3894720  28.9160585  18.0281889  60.3999710
  30.2842808  17.1039438  58.8531065  29.7709465  21.9206977  58.7926149
  30.6342816  22.5788021  59.4116640  29.4997096  22.2411156  57.5121069
  28.8971901  21.6482472  56.9593191  30.2969599  23.1992531  56.7173529
  31.3711882  23.0960298  56.8705797  30.1083350  22.9792547  55.2309179
  29.0437961  23.0747485  55.0170565  30.5430961  23.7217689  54.5617771
  30.6183910  21.5370131  54.7942019  31.7019892  21.6437554  54.8443842
  30.3566957  20.8638644  55.6105900  30.1370859  20.7748508  53.1927872
  30.6790352  22.0155525  52.0258856  30.8609891  21.6137719  51.0291052
  29.8542833  22.7219296  51.9314575  31.6162157  22.4385810  52.3876047
  29.9279690  24.6744561  57.0975256  28.7860727  24.9952769  57.4369764
  30.9521151  25.5403376  57.0986176  31.8286705  25.3825831  56.6223145
  30.8381343  26.9470811  57.4572468  29.7720027  27.1556807  57.5464201
  31.3184190  27.1461177  58.8616419  30.8703256  26.3844728  59.4997740
  32.3961353  26.9830060  58.8667154  31.0868049  28.4668779  59.2825413
  31.3765597  28.6036873  60.1874876  31.6900873  27.9131079  56.5998125
  32.8291774  27.6930332  56.2123346  31.0361862  28.9814854  56.0798502
  31.7252755  29.9595594  55.3009176  31.6790056  29.7956944  54.2242956
  32.7967787  30.0446987  55.4818439  30.9642172  31.2032342  55.5868340
  31.1206889  31.9313955  54.7909689  31.2745643  31.6250706  56.5427828
  29.5212340  30.7518268  55.6579351  29.0920496  30.7212567  54.6564531
  29.0339518  31.4722323  56.3149548  29.6373248  29.3860173  56.2328625
  29.2653394  29.3631697  57.2571659  28.7109780  28.3992147  55.4656029
  29.0781736  27.9203200  54.3435287  27.5276423  28.1203270  55.9492970
  27.1878719  28.6106896  56.7642832  26.6622663  27.0692086  55.4035568
  27.3049712  26.1910534  55.3413105  25.4517150  26.9610500  56.4156246
  25.8210230  26.8591619  57.4360847  24.9106812  27.9035139  56.5001583
  24.5760870  25.7665682  56.0865164  23.8357520  25.7777309  56.8864441
  24.0514898  25.8507752  55.1347780  25.1457477  24.3246937  56.0674191
  24.5036674  23.4457898  55.4916716  26.3831091  23.9965177  56.3805628
  26.7221045  23.0629921  56.1969519  26.8832898  24.6332574  56.9842863
  26.1739469  27.4472404  54.0507078  25.7040477  26.6043258  53.2656574
  26.1224580  28.7737393  53.7098598  26.4211464  29.5097017  54.3337536
  25.6744695  29.3249798  52.4361563  26.1533856  28.7060905  51.6773939
  24.1904736  29.2045259  52.2576618  23.8771892  29.7006464  51.3390684
  23.8704896  28.2009602  51.9773674  23.3544397  29.7999692  53.4054184
  23.5265350  29.1275167  54.2458296  23.6162114  30.8456540  53.5670328
  21.8382478  29.5969868  53.1296873  21.5878439  30.0553703  52.1729851
  21.7019939  28.5328507  52.9369307  20.7690334  29.9327588  54.1239357
  20.8023381  31.0075259  54.3024397  19.7662830  29.6864390  53.7747526
  20.9850931  29.3595648  55.4798460  20.1836967  29.6027327  56.0444164
  20.9225607  28.3551884  55.3937149  21.8889046  29.6883535  55.7882690
  26.1372209  30.7896662  52.2253466  26.2173581  31.5622616  53.1685352
  26.4971399  31.1048341  50.9865379  26.4767170  30.3625536  50.3019190
  27.0240402  32.4120069  50.5891609  26.4756846  33.2477331  51.0238695
  28.4674644  32.5360465  51.0776520  28.7871742  33.5773468  51.0378981
  28.5025024  32.3293829  52.1473122  29.4828987  31.7082810  50.3742361
  29.6454358  30.4237700  50.8728838  29.0989375  29.9823260  51.6931725
  30.5490398  29.5562029  50.2908039  30.6563878  28.5263538  50.5978727
  31.4093757  30.0025320  49.2448997  32.0474648  29.2772937  48.7619162
  31.1581469  31.3187528  48.7118244  31.7055893  31.6400361  47.8380489
  30.2497482  32.1829700  49.2389297  30.1339531  33.1582737  48.7897348
  26.9195747  32.5619316  49.0682745  26.4307451  31.8041754  48.2660818
  27.4164438  33.7708998  48.6525011  27.6932120  34.4696712  49.3271971
  27.2400284  34.3352747  47.3552799  26.7074323  33.5464835  46.8240070
  26.4000773  35.6088352  47.3995352  27.0541263  36.3583732  47.8450823
  26.2075949  36.0152221  46.4066124  25.0697303  35.5926824  48.0300760
  24.8659062  35.7237768  49.3815231  25.6383491  35.8675694  50.1225090
  23.5361028  35.4420066  49.6252775  23.0655932  35.6914902  50.4834604
  22.8222466  35.3201938  48.4426022  21.4765978  35.1562333  48.1392431
  20.8093381  35.2798557  48.9794159  20.9902930  35.0017333  46.8159819
  19.9586940  34.7699475  46.5958071  21.9931650  34.9773312  45.8308887
  21.6386223  34.7820139  44.8296165  23.3411860  35.2437305  46.1268091
  24.0144014  35.3666186  45.2912998  23.8066769  35.3719854  47.4433231
  28.5628057  34.5809889  46.5800762  29.6885800  34.8643589  47.0940638
  28.4112620  34.5413256  45.2162695  27.5466990  34.2398000  44.7899914
  29.4689274  34.9945235  44.3149757  30.1941967  35.5875826  44.8720789
  30.0683761  34.1952991  43.8790798  28.7833333  35.8345842  43.2458544
  27.9481578  35.2763605  42.5369501  29.1875672  37.0908523  42.9926872
  29.8524046  37.5002122  43.6334038  28.5650587  37.9890466  41.9597387
  27.9489350  37.3722219  41.3055038  27.6068473  39.0249109  42.6083612
  28.2601094  39.7757244  43.0529165  27.0339155  39.5532060  41.8462896
  26.7167068  38.5844374  43.7757015  27.3252511  38.0556822  44.5093250
  26.3589001  39.8298645  44.4954491  26.1748767  40.5322790  43.6825228
  25.4562378  39.6055412  45.0637674  27.1936989  40.2266502  45.0731802
  25.4410148  37.8123617  43.4779978  24.6163630  38.4586740  43.1774521
  25.5898714  36.9972157  42.7698469  25.1162362  37.4069762  44.4362688
  29.7406912  38.6622953  41.2055492  30.5552936  39.3327284  41.8112135
  29.7697282  38.4145832  39.8675060  28.9544725  37.9993010  39.4397283
  30.5902791  39.2437601  38.9338636  31.6404510  38.9582348  38.9949083
  30.2039862  38.9067340  37.4822712  30.3896475  39.7716999  36.8455124
  30.9846354  37.7377868  36.8534517  30.6234169  37.6313353  35.8305693
  32.0455408  37.9870367  36.8749595  30.7778049  36.8414712  37.4382091
  28.8789678  38.4426665  37.4272585  28.3712840  39.1348267  37.8571081
  30.3067493  40.7621861  39.0620017  29.1183853  41.1827517  39.1358232
  31.4116454  41.5328789  39.1297078  32.3216081  41.0962248  39.0922332
  31.4320803  43.0200481  39.1654849  30.6564093  43.4424782  39.8042274
  32.7881742  43.3057833  39.7373438  33.1301332  42.6064348  40.5002832
  33.5072684  43.1631088  38.9307165  32.9756212  44.7677088  40.3365850
  32.3264551  44.9689484  41.1887550  34.0254641  44.8096895  40.6267023
  32.9543805  45.9278488  39.3397260  31.9509125  46.2361479  39.0462971
  33.2674813  46.8528605  39.8238897  33.8660407  45.7644224  38.2071638
  34.7879362  45.4000711  38.4006882  33.5671854  46.1909342  36.9888568
  32.4328589  46.5816736  36.5426064  31.6351557  46.5079451  37.1576905
  32.4135733  46.9039011  35.5855846  34.5852113  46.2399101  36.1507225
  35.4832053  45.8624983  36.4176869  34.4535232  46.4899015  35.1810503
  31.0859609  43.6257315  37.8450537  30.5443048  44.7144985  37.8401065
  31.2505484  42.9286766  36.7246747  31.6336870  41.9993544  36.8229604
  30.7415891  43.2988167  35.3758311  31.1558628  44.2881918  35.1818895
  31.0933685  42.3515224  34.2593718  30.6711054  42.7838373  33.3522320
  32.1654272  42.3056269  34.0678358  30.5666828  41.0010481  34.4826055
  30.9569216  40.4295254  33.8172650  29.2699838  43.5209942  35.4074287
  28.7662768  44.5278788  34.9176455  28.4640574  42.8210878  36.2334514
  28.9478946  42.1532965  36.8165970  27.0222831  42.9734850  36.4143443
  26.5945888  43.2863331  35.4618120  26.3846517  41.6078377  36.6422772
  25.3541040  41.7191029  36.3051105  27.0312548  40.9696007  36.0400653
  26.4648318  41.2101793  37.6539731  26.5775347  43.8315392  37.5300193
  25.3767252  43.8557100  37.8281951  27.5220895  44.4902611  38.1981254
  28.4711885  44.5701027  37.8620601  27.2179127  45.4284191  39.2258549
  26.1537910  45.4978657  39.4515371  27.7778602  44.8253345  40.4901695
  28.8505602  44.6573162  40.3943300  27.5605559  45.4769850  41.3364792
  27.2209644  43.4310246  40.9220695  27.1759486  42.7358913  40.0836992
  28.1520987  42.8864861  41.9500685  28.1766415  43.5692978  42.7993393
  27.7852702  41.9332218  42.3306322  29.1411901  42.7868271  41.5030050
  25.8153749  43.5205650  41.5592289  25.7406068  44.3189144  42.2975779
  25.0042963  43.7282276  40.8612871  25.5438232  42.6240730  42.1166039
  27.7414036  46.8282700  38.9332628  28.4192681  47.0364046  37.9110217
  27.4714494  47.8024960  39.8087430  26.9544101  47.5547504  40.6402445
  28.0036449  49.1711426  39.7204900  29.0049124  49.1670942  39.2897391
  27.1034765  50.0798655  38.8212538  26.9434190  49.5823097  37.8647399
  25.7109427  50.3596830  39.3670225  25.3487659  49.4166899  39.7765207
  25.6429124  51.0617161  40.1980591  25.0568247  50.6383419  38.5408425
  27.6863742  51.4590359  38.5017586  26.8724155  52.1726894  38.3741951
  28.2692313  51.7802525  39.3650055  28.7006259  51.6000509  37.4186468
  28.1330466  51.3286924  36.5285206  28.9892197  52.6511431  37.4144435
  29.4842601  50.8657074  37.6050758  28.2058048  49.8793745  41.0820961
  27.3106194  49.7655630  41.9624996  29.3068433  50.5889893  41.3574505
  30.5154586  50.6602573  40.6170034  30.3449488  50.8324623  39.5542836
  31.0377860  49.7319031  40.8481741  31.4449954  51.7018747  41.2160826
  31.2990141  52.6991224  40.8010054  32.4650788  51.4036465  40.9740257
  31.0145617  51.6983032  42.6531076  31.1469793  52.6677465  43.1334686
  31.7068410  51.0861969  43.2311869  29.5314693  51.2618065  42.6811218
  29.3817520  50.5699921  43.5100269  28.6520791  52.4618721  42.9615307
  28.4041476  53.3313227  42.0913792  28.1019258  52.5240993  44.1932249
  28.4227705  51.7977190  44.8173475  26.9623876  53.3132553  44.5962286
  26.7894578  54.1219568  43.8861609  25.7245731  52.4336958  44.7745275
  25.9898925  51.6802979  45.5162191  24.5215917  53.2100391  45.3181124
  23.6353278  52.5761890  45.2885723  24.7477770  53.6269665  46.2994909
  24.3426037  54.0395212  44.6339893  25.5821013  51.7133188  43.5473156
  26.4785504  51.4135504  43.3796453  27.3344016  54.0059471  45.8550119
  27.4640727  53.2327652  46.8425512  27.5613618  55.2767038  45.7794333
  18.7060642  44.5627117  37.0970941  72.9723597  49.9342680  26.3087749
  41.1383247  52.9250956  16.8788290  57.6336479  23.9001441  43.0500412
  77.1375227  52.3506069  35.2955055  56.6730976  59.4184256  59.2595434
  65.9441710  37.3759508  17.4992216  45.5545712  13.0302191  32.4090648
  33.9222765  41.7310858  55.0819778  18.3386052   8.7471503  20.7874298
  18.4300804   8.0944777  21.4816070  17.4096966   8.7237906  20.5576110
  11.2874246  24.4975543  30.5741143  10.5271828  24.4615269  29.9936247
  11.6148984  23.5983801  30.5959868  23.1889009   3.8341981   2.8059739
  23.3276701   4.7662523   2.9740515  22.4176002   3.8051462   2.2398627
  74.1016674  58.9281845  15.2073753  73.3886671  59.4376421  14.8222542
  73.7180042  58.5330296  15.9902453  27.5972843  13.5434878   7.5190657
  28.1419373  13.8615298   8.2390893  27.0185065  14.2778182   7.3141068
  12.8107965  21.9019580  30.3965211  11.9184351  21.5747714  30.5099821
  13.3467257  21.1129761  30.3157830  55.5482340  64.7580671  21.7593193
  55.6741714  65.6893349  21.9412804  54.5990467  64.6529436  21.6943479
  35.4488873  38.4062243  55.5053568  35.4577374  37.5701737  55.9713745
  35.2296996  39.0523386  56.1767197  67.0040703   0.2636884  44.3508673
  67.4790525  -0.3441440  43.7841558  67.3250771   1.1288459  44.0965319
  36.4157486  61.9595671  16.1064339  35.7641459  61.6299009  15.4875934
  37.1474576  62.2403336  15.5568850  55.4036379   7.7530915  28.5663486
  54.9086857   8.0604136  29.3258262  54.7631216   7.2733098  28.0412006
  23.7887883  50.0256348  60.5512476  22.9011726  50.0770903  60.9058189
  24.1557097  50.8976793  60.6966305   6.7693704  61.7712641  50.5351448
   6.2448794  62.4710035  50.1459074   7.4466097  62.2285366  51.0336208
  54.5322418  61.8628883  39.4821858  55.1820993  61.6591024  40.1547813
  55.0447369  62.2057199  38.7500310  47.4584866  56.6500378   2.6211694
  46.8513632  56.0588551   2.1760462  46.9876432  56.9304848   3.4059560
  43.6362839  58.3461523   8.2250571  44.4857216  57.9642105   8.4459907
  43.2176208  57.6917934   7.6657951  38.9712882  10.9861720   7.1241963
  38.7004805  10.1092124   7.3959243  38.3242607  11.2439513   6.4675868
  22.9627347  33.8088560   8.6662799  23.8627100  33.4870076   8.6144274
  22.4915290  33.3112216   7.9980320  31.6305447  41.6896629   3.0937868
  31.6339302  40.7687330   2.8328037  31.7911792  41.6718292   4.0372437
  18.3306348  16.8406606  10.5394781  18.3519304  17.5963128   9.9523085
  18.9759922  16.2353420  10.1743245   8.0026907  65.9296322  26.3919473
   8.3979368  65.0614834  26.4715075   8.6721700  66.4587688  25.9583044
  33.7697697  19.9803925   5.1924825  33.7596774  20.4472876   4.3569356
  34.0919757  20.6245589   5.8229291  25.4749870  54.9110174  62.0279789
  24.9992132  54.0960598  61.8675947  26.3981986  54.6631956  61.9780064
  37.7038407  66.6119003  20.9875202  38.1639719  65.7881165  20.8266282
  36.7836094  66.4090252  20.8194590   7.4947727  54.5216179  27.1100354
   7.0281565  53.7506008  26.7874932   6.9978172  55.2637434  26.7657685
  37.7585173   1.9698259   9.6861202  38.2253432   2.8041244   9.7335660
  36.8435383   2.1976316   9.8508894  15.7619083  41.6144609   6.2258261
  16.5082896  41.5648413   6.8230569  16.1193550  41.3626671   5.3743190
  72.7798796  15.0091529  19.0380573  73.0353546  14.7193098  19.9138165
  73.2489204  15.8340502  18.9124537  42.6111031  48.4035635  57.7978086
  42.2913027  47.8208494  57.1090364  42.0574236  49.1813993  57.7296782
  22.2506404  63.9059877  17.8116882  21.7718053  63.1715345  17.4275935
  22.4247384  64.4904661  17.0739162   8.3383584  26.6418552  14.7896373
   8.7456763  25.9069109  15.2480912   8.1737906  26.3116360  13.9064026
  70.1955032  62.1615171  15.5671370  70.2814245  61.8291903  16.4606726
  70.3467703  63.1033707  15.6463122  50.5575705  10.4655433  33.0397153
  50.6050587  11.4198971  32.9832864  49.7388935  10.2935612  33.5049248
  37.1248436  13.7814069  45.9622765  36.5924859  13.0658412  46.3098335
  37.3051953  13.5279429  45.0570393  31.1701226  55.3915024  29.0861225
  31.3816357  54.6745682  29.6840334  30.2275229  55.3114176  28.9401054
  73.0908775  19.6798563  62.6685810  73.4838438  20.1571679  63.3993244
  73.5860157  18.8619483  62.6228237  72.5753355  32.7865100   5.5972189
  72.1121979  33.4213758   5.0507033  72.0622158  31.9824076   5.5174601
  11.8679607  25.8602047  13.3916855  11.3154864  25.3803682  12.7746260
  12.7618957  25.6128359  13.1552136  58.1265211  26.4725399  54.6942902
  57.6048803  27.0493150  54.1362095  59.0338945  26.7054033  54.4976234
  64.0209382   0.3681967  51.7656994  63.8692301   0.0304338  52.6483870
  64.9322694   0.6608173  51.7745733  64.0111446  18.3567381  46.6619682
  64.6042252  17.7735770  46.1882496  63.3207607  18.5603261  46.0309696
   6.7605060  68.2217073  41.6031027   7.6051819  68.4751844  41.9752645
   6.9847983  67.7271509  40.8148575  36.6931129  63.6166954  52.6413488
  36.0406542  64.2601299  52.3647213  37.5307345  64.0712070  52.5516891
  50.9510231  28.9380383  57.6885986  51.5950108  29.0772891  58.3829498
  50.7548857  29.8169255  57.3640728  48.8544846  13.9222968  52.3718882
  49.5516062  14.0368927  51.7260408  48.0928564  14.3502235  51.9807053
  37.3646402  11.8232965  55.9907341  36.8942165  11.7218566  55.1633024
  37.2344708  12.7411067  56.2292957  76.3514709  59.4151163  11.7613769
  76.1961651  58.8472271  12.5161028  76.4165449  58.8143969  11.0189927
   9.7441679  20.7502890   1.0135850  10.3181469  21.5047431   1.1461677
   9.3323928  20.6098533   1.8661991   6.9289446  56.0829878  38.6656404
   7.3311234  55.9303045  39.5207262   6.6715223  55.2121067  38.3630967
  56.2624693  35.2105331  49.6472597  56.7700291  36.0214114  49.6141911
  55.3500175  35.4974413  49.6105862  18.0722272  56.7833805  11.5946126
  18.2302046  57.3007774  12.3842788  17.7275395  57.4126005  10.9609711
  11.7598200  51.0375690  53.4164667  11.9582844  50.3690815  52.7607489
  11.1035693  50.6307602  53.9822149  69.1882229  46.5678310  42.7135181
  68.7349176  45.8566523  43.1662512  69.3582535  46.2236309  41.8366766
  64.6960354  23.9547920  47.7565956  64.6780396  24.9097419  47.8196573
  64.3319559  23.7649584  46.8919325  77.0453501  47.7977133   1.0713707
  77.2105885  47.6719618   2.0057769  76.5970993  46.9974947   0.7975911
  15.8532894  49.4209909  20.3212166  16.4294398  48.6623859  20.4150319
  16.3328326  50.0161505  19.7449732  49.9611378  42.3392439   3.0740625
  49.1798878  42.2353697   3.6172855  50.4179001  43.0904627   3.4525698
  21.3797402  16.7763090  39.2691612  22.1652722  16.5108049  39.7473645
  21.4119077  16.2714195  38.4565830  40.6079102  14.1384161   0.4901819
  40.1979494  13.9879763  -0.3616010  41.4137220  13.6225307   0.4626169
   1.1888002  61.7251778  29.8705125   1.6340798  62.2796869  29.2298269
   1.4432353  62.0878077  30.7190371  25.8298445  26.6604376   4.2723212
  25.1205397  26.0510874   4.4767973  26.5890241  26.0995793   4.1132215
   3.2016253  63.7490225  58.6988211   2.4353012  63.1767511  58.7373781
   2.9478502  64.4489336  58.0971956   2.1062344  60.1861143  11.1718082
   2.9683676  60.5426693  10.9577334   2.1372813  60.0352716  12.1165371
  67.6969862  66.6954088  18.7818766  67.4072790  66.0111237  19.3852472
  66.9047022  67.1974277  18.5908425   3.8001454  63.3776903   2.4115935
   2.9518944  63.7888384   2.2452854   3.5836720  62.4951506   2.7124202
  61.7584896  15.6197464  48.9205933  61.9326305  15.2984405  48.0359077
  62.6031446  15.9509444  49.2257118  29.7992284  73.0284172  38.3292198
  29.1462571  72.3581135  38.5305905  30.2265746  73.2058734  39.1671419
  78.3108649  64.9674988  57.2937584  78.0535439  64.8176813  56.3840485
  79.2354798  65.2101326  57.2442770  26.9163680  10.0945795  64.0169954
  27.7945638  10.1399088  63.6389065  26.3341212  10.0149846  63.2614279
  67.6918888  37.9584694  15.9017122  67.3752642  38.0643129  15.0046182
  68.6451244  37.9346132  15.8180177  27.9527164  64.9001026   6.4141601
  27.6544380  65.7855844   6.6219670  28.8083076  65.0257111   6.0037708
  55.6255054  73.5487032  63.7223721  55.1362753  73.0066872  64.3413258
  55.1119041  74.3532419  63.6505413  38.0056548  67.3500156   8.4683126
  38.6993599  67.8376436   8.9124113  37.7173185  66.7033863   9.1124868
  55.8655310   1.0622063  29.3855596  56.7079067   1.4128125  29.6748948
  55.7801056   0.2298769  29.8504925  56.7158413  25.4671526  46.8529892
  56.1804771  25.7678151  46.1186743  56.1767149  24.8064041  47.2877169
  74.0995693  23.2639694  45.2614880  74.3291092  22.7914929  44.4612932
  74.5022821  22.7542257  45.9644938  13.5530734  72.1441364  12.7816963
  13.3359420  71.2632608  12.4765003  14.4851840  72.1007204  12.9950476
  30.7449126  34.2427135   8.9204580  30.9269166  35.1640868   9.1053337
  31.2391424  33.7628984   9.5850980   8.0721474  17.3379898   9.7512901
   8.7308443  17.7498853   9.1921008   7.3101008  17.2279823   9.1825938
  46.8392515  70.8752060  60.7972574  46.8293619  70.6230116  59.8739338
  46.2967539  70.2167225  61.2312269  52.1296930  34.4219995  58.1470919
  51.2607479  34.8033929  58.2724333  52.1687031  34.2167592  57.2129679
  61.7086363  67.9442167  53.2244158  60.9742785  68.0530548  53.8286591
  62.3073673  67.3519278  53.6793375  20.5689597   2.8544682   3.9403436
  21.2417483   3.5353035   3.9331368  20.9534407   2.1432222   4.4527268
  24.3233585   8.9267939   4.8446634  23.7717199   9.1556257   5.5927026
  23.8810825   8.1803560   4.4403684  78.8319731  54.0935278  13.5876250
  79.1060114  54.7043276  14.2717707  77.9137659  53.9088583  13.7851858
  76.6469002  37.0360208  11.5339351  75.8342123  36.8010879  11.0860777
  77.3190737  36.9816780  10.8546209  58.2702637   2.4404380  56.8345022
  58.2438087   3.3830252  56.6699982  58.6427689   2.0681715  56.0351992
  71.3231277  70.3650570  12.0449257  70.3894711  70.1699877  12.1253121
  71.7560768  69.5211172  12.1735752  11.4274514  72.2039270   3.1269744
  12.2540069  71.8798399   2.7691987  11.5722919  72.2368336   4.0725803
  75.1802397  31.4534783  47.9203892  75.4051638  30.8050823  48.5876417
  74.5628548  32.0411348  48.3559704  62.7690792  53.3933449  22.3946714
  62.7409983  52.5264025  22.7994609  61.9730520  53.4361744  21.8648171
  12.6964319  31.5896869   3.6201641  11.9133925  32.0582414   3.3311355
  12.7878058  31.8229604   4.5439959   5.5993545   4.3525815  33.5536766
   6.4615661   4.4410670  33.1474829   5.5827641   3.4556240  33.8874793
  68.5548306  15.9065986  49.2278290  69.0359783  16.7245424  49.3531179
  68.1616592  15.9906447  48.3591604  25.8521509  12.9806924  16.3061929
  25.8019638  12.3176157  16.9947004  26.4215565  12.5931561  15.6414950
  28.9524102  52.0530748  16.7055738  28.8343811  51.2289047  16.2332988
  28.5161614  51.9122124  17.5458574   7.6900226  40.3647232   3.6277652
   7.6759452  39.9236441   2.7783632   8.5567981  40.7682228   3.6737770
  43.6957932   9.7009844  33.0794048  42.8374577   9.9692124  32.7514529
  43.9709044  10.4208255  33.6471844  63.4590960  14.6660340  57.6875687
  62.9608440  14.0800536  58.2573128  63.5066271  15.4893374  58.1735182
  51.7438364  61.7895889   7.5455040  52.1579075  62.6181364   7.3040807
  50.9587908  62.0461941   8.0293304  27.9537320   5.9608066  44.9448872
  27.8427720   6.4942545  44.1578960  27.2616935   5.3020269  44.8872280
  37.5587416   4.3991831  31.7714262  38.1009412   4.2461801  30.9975767
  36.7382550   3.9436862  31.5828705   2.2658664   9.4270468  19.0789795
   1.6723487  10.1622844  19.2319322   1.9041443   8.9827478  18.3121765
  39.2325878  59.0902281  15.6803596  39.1941595  58.8035536  14.7679043
  38.3938980  58.8176632  16.0525703  20.7795477  68.1732082  63.5592985
  21.0009241  68.9595985  63.0604935  20.1205873  67.7288294  63.0258799
  31.7330790  61.0329390  35.5935383  31.3489008  61.0683107  36.4695454
  31.4099693  60.2115107  35.2232909  65.2466249  19.0609062  13.7132955
  65.2142334  18.8868105  14.6539724  65.8880854  18.4356439  13.3759427
  72.7518797  12.4182737  58.7139273  73.2925224  11.7863536  58.2399893
  73.1864548  13.2592583  58.5720825  76.9111204  72.1861982  12.6329339
  77.3782921  73.0120802  12.7590346  76.0802031  72.4399662  12.2311831
  61.7142391  68.9317465   1.4483435  60.8808136  68.5789299   1.7600463
  62.1533680  69.2433977   2.2397178  48.1648064   5.0916910  45.3303003
  49.0392113   5.2841294  44.9917555  47.6989079   4.7092062  44.5867395
  16.6583753  63.2429218  31.4415455  17.2643352  63.4128046  32.1627808
  17.1953261  62.8181553  30.7725978  45.2307415  26.1270952   2.8113490
  45.1900434  27.0097136   3.1795317  45.1740360  26.2594771   1.8650453
  71.8061924  68.9170647  23.6828065  71.3616467  69.4945765  24.3033695
  72.1741819  69.5086575  23.0264282   9.4692498  31.6585565  19.0528142
   9.0271318  30.9187245  19.4692433   9.1327161  32.4280310  19.5120370
  60.0313377  71.7064142  31.2893963  60.7457161  71.0803318  31.1714029
  60.0421047  71.9085598  32.2249460  49.2300749  32.7020431  61.7682934
  48.7649155  32.6903987  62.6047897  48.5609818  32.9371285  61.1254215
  63.0980730  29.1460800  50.2491856  63.3590269  29.4443107  49.3778658
  63.9148808  29.1184497  50.7474756   9.4871247  51.6456223  14.3341982
   9.2776918  52.5794411  14.3530536  10.3258371  51.5789986  14.7906578
   2.1664198  55.6440687  19.6133006   2.3039086  56.4081049  19.0533221
   1.6063650  55.0654936  19.0957880  21.4978647  55.1686621   4.8423025
  21.8712807  55.3472376   3.9792252  22.2446847  55.2100420   5.4396129
  70.1832008  51.0371208  44.6627665  70.1067591  50.1143456  44.4201231
  69.5735931  51.4894056  44.0796280  66.9029474  60.5949736  39.0016937
  67.1471262  59.6777916  39.1257477  67.1915817  60.8015394  38.1127310
  50.7794523  22.0401645  16.4940798  50.3882551  22.6316667  15.8511817
  50.1093292  21.3735747  16.6451526  57.8765059  52.8973913   3.6569431
  57.9593801  52.9348135   4.6098143  58.5966444  53.4380865   3.3324751
  16.2032902   5.8563226  26.6685915  16.0101354   5.0043535  27.0598340
  17.1567166   5.8708364  26.5849161  36.8571830  55.7963610  25.3185129
  36.0861945  56.3605070  25.2589321  36.7971230  55.2268887  24.5514894
  23.0074430  54.6907616  17.6435590  22.3807383  54.0002251  17.4276042
  23.7858772  54.4771671  17.1291173  25.7468152  11.3494241  12.8797340
  25.4183078  11.9471002  12.2080970  26.4767885  11.8196809  13.2825112
  22.0113349  58.5851240   9.2826849  22.5123596  57.9980803   9.8488885
  22.5845551  58.7409496   8.5321063   9.0990710   3.9527664  20.0910258
   8.2903379   4.4600639  20.1605368   9.0625215   3.3417392  20.8269215
  16.8522370  64.9625826  27.7401614  17.7381980  65.0550032  28.0905390
  16.9671106  64.4765949  26.9235516  62.2904253  64.2834854  35.7716537
  62.8911829  64.9709225  35.4839873  61.7856646  64.0634584  34.9886870
  41.3814592   1.2585044  14.8145497  42.0522499   0.5800024  14.7376895
  41.4842463   1.5972760  15.7038748  78.5545174  30.4019403  26.8618107
  79.0693161  30.0665069  27.5957704  78.5971447  31.3536859  26.9545150
   4.3705252  65.0777292  47.0093775   3.5679018  65.5640411  46.8208838
   4.7085434  64.8305607  46.1486292   5.4521924  48.2030201  56.5364647
   5.0395125  47.7609825  55.7944870   4.7661141  48.2438898  57.2026920
  74.7079992  37.0692515  47.4903107  74.5312214  36.7882490  46.5925264
  74.7370338  38.0247331  47.4408960   4.0651411  63.9441776  35.5438590
   4.6986502  63.7837744  36.2432647   3.6264476  64.7556067  35.7995176
  12.0537555  67.4429464  23.6830974  12.3313713  67.9017019  22.8901911
  12.7088237  67.6808500  24.3392372  78.7590456  68.0629683  50.0705481
  78.5609865  67.6732016  49.2190313  78.7001181  67.3334360  50.6874275
  47.2138357  65.8255911   0.6406170  48.0452394  65.5949354   1.0551058
  47.2955704  65.5020046  -0.2565128   0.5941324  38.3778214  59.4669819
   0.4000627  37.9532743  58.6313248   0.0218883  37.9396081  60.0968552
   4.6226439  73.1515360   2.6101542   4.9098501  73.4951878   3.4561133
   3.7743846  72.7468300   2.7915382  64.6076584  35.8280253  38.5487723
  64.7199202  36.6342568  38.0451655  63.6725616  35.8004522  38.7514186
   7.9207271  72.0633936   5.8712077   7.6351458  71.5636253   5.1064152
   8.5002762  71.4665270   6.3446015  42.8711557   3.6964417  52.0186806
  43.7141228   4.1124785  51.8382645  42.8579760   3.5842809  52.9691935
  58.9606619  46.6842699  18.3265936  58.6462069  47.1048927  19.1268587
  59.5205307  47.3421478  17.9143167  50.1597643  67.9922342  10.3399980
  50.1698637  68.6736441   9.6678293  49.3465090  68.1430721  10.8217657
  30.4851866   7.2889596  10.9492636  31.1541677   7.8904837  10.6223631
  30.7244611   7.1387368  11.8638194  65.5220652  15.4686022  10.5673504
  66.3334417  15.5707598  11.0648060  65.3195000  14.5350873  10.6285846
  62.6576757  41.6676807  58.8930988  62.3501015  41.5901136  57.9899883
  61.9956350  41.2105227  59.4116926  58.0951786  45.0717163  61.9037724
  58.0154371  45.9985733  62.1291828  58.4523535  44.6633101  62.6923561
  11.9293594  51.7886686  49.0228224  11.2206519  51.4643955  49.5785284
  12.7217078  51.4011478  49.3946362  32.5318789   8.4766763  22.8832269
  31.8845844   7.8141451  23.1246662  32.4678206   9.1368127  23.5734081
   1.0391967  20.6578469   3.4569764   0.5628855  21.1727810   2.8056681
   1.9301446  20.6002021   3.1118381  37.2529459   2.6211792  40.2682829
  36.6652679   3.0344391  39.6357632  37.7663231   2.0020743  39.7492623
  16.0638976  35.3087926  14.1368711  16.5087986  35.5625224  14.9455225
  16.4074838  35.9097338  13.4757721  53.1599617  37.9488873   4.2122805
  52.8490686  37.7001166   3.3418268  53.7114763  37.2167087   4.4879311
  67.9556894  57.6120663  60.1093864  68.4842777  57.2572088  60.8241606
  67.0773840  57.6969910  60.4803324  39.1973209  36.6739750  56.1134958
  38.4566116  36.5602541  55.5179691  38.8939428  37.3186493  56.7527008
  35.1754689  10.3277123  30.4086113  34.2839479  10.0708008  30.6440258
  35.2552819  10.0953901  29.4834685  41.0140181  51.9774866  21.3187385
  41.8228722  52.1496773  20.8367229  40.7205725  52.8406858  21.6103077
  34.5399141   7.2978562  35.1314068  34.6294641   7.7425236  34.2885065
  35.1467896   6.5595323  35.0783753  68.6275721   4.0250039  62.8366661
  69.0364599   4.8737207  62.6671839  68.5848665   3.9660415  63.7910891
  30.0844264  25.0447011  19.7119474  29.4619679  24.3355274  19.8727357
  29.8863411  25.6946969  20.3861117  18.6264384   0.4664390  33.9652038
  19.0591431  -0.2338365  33.4767246  17.7372372   0.4909593  33.6117172
  10.7224619  60.3667116  14.0243506  10.2452171  60.1894093  14.8349261
  10.7610834  59.5202494  13.5791016  13.0628407  68.8388777  16.3494468
  13.6662853  68.3074188  15.8301771  12.1955860  68.6161280  16.0110903
  65.9963703  71.5566301  12.9370403  65.4344416  72.3198414  13.0711281
  65.5597591  70.8509588  13.4141457  11.2949514  20.6398678  13.8862836
  11.0366118  20.3777480  14.7699034  12.2403181  20.7782578  13.9442706
  73.2521391  43.0444050  56.6779995  72.8495646  42.1762848  56.6550922
  73.5165310  43.1618118  57.5904369  30.3105927  12.1593046  42.7091885
  30.5702353  12.3749733  41.8134737  29.8669362  11.3145459  42.6331425
  62.4226761  20.0385737  42.1570635  61.5268946  19.9034917  42.4661922
  62.9463720  20.0923681  42.9564905  12.8899395  57.3450184  27.9907274
  13.3132958  57.9950619  27.4299741  12.2961938  56.8743896  27.4057436
  67.6315594  61.0330963  36.3870859  67.1035624  61.0688353  35.5894804
  68.5353613  60.9929514  36.0744286  35.6144357  62.6727581  56.8138170
  34.6849513  62.4954224  56.6694498  35.7813954  62.3651886  57.7047443
  46.5884113  17.1706247  17.2090709  45.6782055  17.2206032  17.5010562
  47.0876598  17.5933278  17.9078579  21.6856027  21.9254732   2.3449244
  20.7890677  21.7161512   2.6069123  21.9760656  21.1586428   1.8511295
   3.3039123  39.8670745  48.7145376   2.5024050  39.3438005  48.7132454
   3.0137599  40.7501984  48.4861994  17.5495124  44.3125343  27.2804236
  17.9770064  45.1681805  27.2436786  16.8032455  44.3919277  26.6862750
  18.6400628   2.9452759  34.5289063  19.3960750   3.3594826  34.1128397
  18.7826705   2.0069188  34.4048858  65.6947899  38.7131596  55.9037638
  65.6596994  39.2061400  55.0840235  64.7919655  38.7126565  56.2217855
  24.6883774  41.6280413   9.1178524  23.9697480  41.0076952   9.2402136
  24.4233584  42.4024916   9.6140659   9.2958474  40.3094101  16.4861858
   9.5651650  41.1698627  16.1647487   8.3391470  40.3385019  16.4757168
  60.3683710  54.8159313  11.4463830  60.8753347  54.1610718  11.9263625
  59.4905758  54.4396114  11.3824439   0.4733783  38.7397504  39.1166496
   0.2604432  38.9961958  38.2193613   0.6838753  37.8079605  39.0558934
  43.3781195  41.0670519  61.1257410  43.2119703  40.1977491  60.7611370
  44.0757370  40.9287453  61.7663956  17.5450230  11.0722709  11.1807954
  18.2362270  10.7843673  11.7771018  16.7849469  10.5426455  11.4216542
  59.1714811  51.4409018  60.8478594  58.6293650  51.7430639  61.5765858
  58.8880396  51.9706726  60.1027250  41.2532139   8.5379165   2.8761289
  40.5315733   8.7944585   2.3019746  41.3787365   7.6052922   2.7009511
  33.1965208  21.9802213   2.9988915  33.3047414  21.6146016   2.1209145
  32.6270247  22.7393222   2.8737038  36.4286852  71.3040161   4.4161296
  35.7340145  71.0454130   5.0217605  36.7351413  70.4801273   4.0372860
  43.7560987  60.7834005  25.6499863  43.3968592  60.2906513  24.9121690
  44.6588373  60.4746723  25.7273555   7.5386691  38.5526228  35.8155870
   7.7429813  37.7293730  35.3720236   6.8540710  38.9508414  35.2780199
  22.2451043  19.0901768  45.5007553  21.5721178  18.4185934  45.6116390
  22.0116043  19.7699165  46.1329460  61.6382408  41.2987566  13.0714083
  61.4994812  42.1883965  13.3962524  62.2973633  41.3948679  12.3839867
   2.7567190  73.0460548  26.7092514   3.6750096  72.9102850  26.9427896
   2.5137126  73.8575935  27.1548748  28.5610199   7.5101525  18.1585288
  29.0092254   7.8595901  17.3883104  29.0715790   7.8344399  18.9004159
  18.1054640  21.0196900  52.4899054  18.5926473  20.4768658  53.1097651
  18.1624448  20.5457568  51.6602230  54.9155998  70.5669355  21.8277884
  54.4777870  71.0181141  22.5495839  54.2472029  70.5013227  21.1457515
  59.9444532  61.0144424  31.4428115  59.4695950  60.2519083  31.7733884
  60.8679247  60.7859421  31.5487480  70.8963013  49.3553352  25.0414467
  70.3572321  48.6444664  24.6946025  70.2808285  50.0740242  25.1860380
  14.8846507  66.0255718  41.0452843  15.1868725  66.5812874  40.3269053
  14.2343605  66.5583515  41.5029907  69.4499302  39.8071551  36.6462827
  70.3245306  39.9586511  36.2880206  68.8806057  39.7637963  35.8780241
  23.3351111  28.8030362  58.9956617  23.2829857  29.1446924  59.8882866
  22.9543948  27.9266167  59.0520430  20.3175449   9.8980325  18.0801249
  21.0976768  10.2532029  18.5061288  19.5978642  10.1287448  18.6675441
  41.8388367  15.1920938  21.8710661  42.2865105  14.3566394  22.0046282
  40.9203148  15.0053561  22.0651579   4.9408758  70.5844593  42.4405193
   5.4490685  69.8758650  42.0457172   5.5461681  70.9998846  43.0547428
   1.0740475  55.7768631   6.1742127   2.0252804  55.6732130   6.1997831
   0.7587818  55.2820253   6.9305027  69.3636417  54.1669130  61.7404938
  69.6238613  54.7997952  61.0711813  70.1862860  53.9006615  62.1510983
  41.4352512  11.2797177  15.7068861  41.7831802  11.7162013  14.9292874
  42.2071314  10.9247732  16.1478484   2.8450298  58.3627462  63.8846207
   2.4278803  58.1702566  64.7243595   3.3576751  59.1544628  64.0477514
  78.7961341  16.0128152  25.0805187  78.7222002  16.5856493  24.3172193
  78.2310759  16.4170372  25.7389617   9.6769726  70.2860880  45.4300356
   9.3621325  70.0632381  46.3060760  10.1258254  71.1239719  45.5427933
  11.4136851  71.6387463   8.5234678  11.0170352  71.9091749   9.3515784
  12.0859540  71.0056353   8.7753755  78.1515386  43.2767153   3.1101903
  77.8692033  44.1200495   3.4641787  78.0677504  42.6685476   3.8445914
   9.3020660  50.3223610   7.0042098   8.7127507  49.7887182   7.5372815
   9.4016713  49.8287868   6.1901486  41.7772722  14.0637326  30.9423184
  41.0128307  13.5988891  31.2825918  42.4977541  13.4405124  31.0357857
  11.6742742  60.4192257  41.1881542  11.0474253  60.0538540  40.5638170
  12.2024143  59.6699333  41.4635897  61.7927217  53.8363791  46.1812782
  61.5253925  52.9539442  46.4383221  61.7976189  53.8159466  45.2243090
  36.6985488   5.7584059  59.3387461  37.4129772   5.1718062  59.5871973
  36.2445045   5.9443527  60.1606321  71.1657667  53.9756966  34.4398046
  70.3628349  53.9267635  33.9210248  70.9010506  54.4104767  35.2504349
  32.4207807   4.0226576   9.1134369  32.4361324   3.2613039   9.6933830
  33.1240726   4.5851037   9.4378853  36.7522287  67.3972368  25.5890965
  37.2665143  67.6927376  24.8378158  36.1392665  66.7592621  25.2237225
  56.7770433   4.4665146  35.6039095  57.3584557   4.1900298  34.8955703
  56.2392378   3.6961043  35.7868457  77.4880171   2.0639311  54.2452145
  76.7232561   1.6028491  54.5898533  77.3855305   2.0205370  53.2945061
  43.3909512  17.9080129  15.4680550  43.2045031  18.4330249  14.6897030
  42.9415274  18.3653629  16.1787462  36.1895728  71.6474819   7.8038257
  36.0213900  72.4388599   7.2922945  36.9902182  71.2836504   7.4259013
  17.7633619   6.2448704  12.8648937  17.0554936   6.8579781  13.0630195
  17.5544584   5.9117645  11.9921792  23.6496711  40.1152229  61.0769701
  24.5519662  39.7971916  61.1078119  23.3363152  40.0344229  61.9778109
  64.8997641  18.3912098  10.3063285  65.0083208  17.7683747   9.5876318
  64.0864897  18.1236327  10.7343709  59.4870377  11.4755011  28.8523889
  59.1506767  12.3060954  28.5159302  59.4104815  11.5536809  29.8033142
  40.6480742  19.0271771  19.4765759  41.2972307  18.5090685  19.9523830
  39.9393225  19.1597915  20.1061130  49.1103935   6.8698156  39.1655207
  49.1903925   7.8106374  39.3226361  48.1766319   6.7321295  39.0062618
  69.6644211   9.3026721   3.8867119  70.0107002   8.6196268   4.4609684
  69.1833925   8.8258213   3.2103556  62.3560953  19.5702791  21.4105940
  61.6520786  20.1918674  21.2256098  62.2976732  19.4158733  22.3534513
  69.6084929  47.5566530  58.9687824  68.9925146  48.0453300  59.5146704
  69.4818974  47.9110813  58.0886745  34.3024165  73.9268750   3.6409810
  34.1475493  74.7984324   4.0051731  35.2511174  73.8821988   3.5218114
  63.1045723  70.1235008  41.6454029  62.6987600  69.3304586  41.2952137
  62.8282452  70.1494694  42.5614834  29.1696286  66.8117714  54.8656034
  29.5805097  67.2750998  54.1357183  28.9397764  67.5015450  55.4881859
  50.2400684   3.2897392  14.4436634  49.8045635   2.5530261  14.8724079
  50.6386185   3.7827164  15.1608539  32.2627568  71.4139652  33.8863206
  31.8997455  71.6733932  34.7331691  32.8192306  72.1490383  33.6289525
  11.8654549  48.1394243  36.6810751  11.6981924  48.5101843  35.8145952
  12.5562823  47.4930048  36.5357113  24.8333788  52.4543047  24.1520166
  24.9724984  53.3294058  24.5140576  24.4399118  52.6100779  23.2934427
  72.1873426  65.6955528  12.4974167  71.5556049  65.8651400  11.7985749
  72.9825735  66.1482048  12.2164464  19.1314542  56.7325974  40.6719923
  18.7076139  56.2609005  39.9549890  18.4181166  56.9443607  41.2741041
  10.5990839  54.0551424  62.0852470   9.9142176  54.6902418  62.2946310
  10.2287018  53.5281992  61.3771677  63.2983494  44.5005894  62.0168304
  62.6787996  43.7886381  62.1765614  64.1528940  44.0708447  61.9806337
  15.2551663  36.1139536   9.9265826  15.9450746  35.6734395   9.4303918
  15.1298177  36.9479799   9.4738984  26.1446857  36.9256711   8.5092753
  25.3973532  36.6860271   9.0572715  26.4216590  36.1017919   8.1083512
  29.9754357  15.3341031  45.4097795  29.1645217  15.5235803  45.8817387
  29.8114467  15.6423104  44.5185184  31.2876368  70.5197239  51.8596506
  31.3417578  70.4301500  50.9081888  30.7695818  71.3129044  51.9964647
  64.6054459  25.0871229  19.0838289  64.6299505  24.9211884  20.0262165
  63.8387442  24.6041083  18.7754405  60.9268045  36.9743562  22.2558308
  60.7011414  36.9465446  21.3260269  60.1685762  36.5923262  22.6978469
  53.9622068  44.1804361   9.9061263  54.1189051  43.5762882   9.1803992
  53.0094099  44.2616129   9.9487263  34.4244218   1.5056978  37.9328704
  33.7706280   1.9155298  37.3664570  33.9985967   0.7108668  38.2540393
  53.4764576  67.6794720  55.7922506  54.2615938  68.0893421  55.4292107
  52.9629183  68.4097147  56.1375809  55.0012493  15.6805289  54.3259287
  54.9827480  15.7260656  53.3699942  55.0811958  16.5918422  54.6076202
   5.8172578   7.5007874  12.0959949   6.2761390   7.4953777  12.9360139
   6.4851898   7.2532475  11.4566028  17.4841309  45.7299089   5.4327941
  17.5422478  45.4124308   6.3339394  16.6900730  45.3229713   5.0862300
  76.0894966  22.5269961  57.3036385  76.6531849  21.7689085  57.4578857
  75.2254915  22.2487903  57.6074839  40.7455540  73.4368992  57.5356483
  40.7311296  74.1963339  56.9531631  41.4952135  73.5903311  58.1107140
  61.5739250   6.3917458  44.8866987  62.3482800   6.7978179  45.2762079
  61.0782146   7.1239936  44.5202112  42.2070312  39.5863199   7.4565476
  41.3064098  39.4167876   7.7329051  42.3740149  38.9373541   6.7730349
  63.4562254  21.3579488  55.5510044  63.6745834  22.0967412  54.9829054
  62.5782681  21.0948539  55.2749586  22.0125771  54.5334339  47.0883274
  21.3296509  54.1031504  46.5738392  22.3923874  55.1777220  46.4909410
  53.7584448  23.6781621  42.8930855  53.7607956  22.9082656  42.3243284
  54.5815897  24.1247559  42.6950455  55.4513454  39.0351677  55.6867456
  54.6260881  38.5821676  55.8598566  56.1199474  38.4725380  56.0774565
  65.0050449  23.8398194  44.6757269  64.1662025  23.4725571  44.9544573
  64.8971510  23.9988303  43.7380123  12.0283413  42.6333284  48.1680584
  11.9600511  42.1451187  48.9885569  11.3320923  43.2881117  48.2203007
   6.5326518  29.5237446   4.9908751   7.3184687  29.4646740   5.5342293
   6.8601501  29.4930840   4.0919667  20.8534336  63.6540747  52.9423285
  20.1672339  62.9895210  52.8812647  20.6304002  64.2916727  52.2641277
  42.2727346  64.6007204  50.8132219  41.9874048  64.7184229  49.9071550
  41.5210390  64.8748970  51.3385868  48.0169201  30.7853866  47.3276281
  48.1328773  31.5081716  46.7108870  48.8677740  30.3472757  47.3458910
  78.7996483  51.1097002  27.3401856  78.3280087  51.7557096  26.8143916
  78.2180834  50.9318495  28.0793619  62.5391102   1.3755871  42.8380156
  63.3241844   1.6067994  42.3415995  62.2613287   0.5368151  42.4698734
   3.4543270  57.8969002  24.4911742   3.9945266  57.9226208  23.7013912
   3.1349212  58.7935638  24.5921922  20.5025506   3.3658728  21.9927835
  20.6935263   3.4535500  22.9266310  21.3430500   3.1352416  21.5970516
   8.5782731  44.7860432  25.3892612   8.6991465  44.3959808  24.5235419
   8.5757667  44.0405369  25.9896326  75.7654953  35.2741313  62.8277683
  75.3026438  35.9303212  63.3487415  75.6236792  34.4520593  63.2971430
  44.6268463  21.2088537  15.1096344  44.1225433  20.7478929  15.7800281
  44.6992493  20.5812192  14.3905616  12.1237588  11.7050695  45.3255463
  12.1132469  10.7817149  45.0734806  11.3359010  11.8171191  45.8574820
   0.6464022  16.8870354  38.4775853   1.2506402  16.4154696  37.9042125
   0.6868824  16.4142787  39.3089056  63.8068342   4.3913013  17.2921467
  63.8306141   3.6771303  16.6552591  63.7702036   3.9529538  18.1422889
   7.0489991  19.5392156   7.1873122   6.7945933  18.6328864   7.0138872
   7.9276812  19.4739568   7.5613314   6.7011601  18.9994156  55.1178408
   7.2871232  19.6136057  55.5601645   6.5999556  18.2766521  55.7371998
  29.1322780  35.2879095  58.9840364  29.8086214  35.6940174  59.5261335
  29.6063042  34.9454904  58.2262230  43.7764311  16.4926994  61.8990231
  43.8956261  16.3729274  60.9568596  43.1975269  15.7765222  62.1601629
  12.0766187  17.4973691   9.9803311  12.4041831  17.7516615   9.1176206
  12.1377766  18.2958519  10.5046570  10.6883585  52.3229122   5.5587119
  10.1091099  52.8475714   5.0060481  10.1140511  51.9649935   6.2356865
  40.8389997  48.4146929   5.8115393  40.5961084  48.7022543   6.6916203
  41.0828066  49.2200089   5.3551936  22.9006219  71.1769390  46.7283440
  23.7157488  71.4277506  47.1629572  22.5465798  71.9994545  46.3901854
  37.0029902  27.2339106  61.3906145  36.5754533  26.4307833  61.0932446
  36.5081024  27.4952984  62.1671391  47.1706200  67.5710726  42.8448534
  47.2077703  67.2182798  41.9558144  47.8494740  68.2456446  42.8634167
  39.4536996  54.4043827  21.5383315  40.2366018  54.6987915  22.0037603
  38.7282085  54.8241997  22.0005536  36.0931253  55.4548264   4.2733628
  35.5902863  55.9205341   3.6051536  35.4997468  54.7725916   4.5875096
  71.1758757  29.8759961  54.2160082  70.3377247  29.6941996  54.6410799
  71.0897064  30.7717872  53.8898706  18.4877193  22.0520258   8.6397260
  18.9826810  22.5854874   9.2615467  19.1434026  21.7420578   8.0150408
   3.5219014  39.6091580  20.2724624   2.7889258  40.2161407  20.1697493
   4.2535937  40.1615810  20.5475783  42.4976349  46.1153555  14.2591369
  42.5233126  45.5128956  13.5157561  43.1952286  45.8100080  14.8390996
  26.9105673  59.9300957   6.8031609  25.9858155  59.7564983   6.9790351
  27.1430016  60.6303549   7.4129486  32.5610995   2.4443464   3.4360492
  32.3510408   1.7406791   4.0500197  33.3498430   2.1419162   2.9858840
  21.4508390  10.4654789   2.7663729  22.2982574  10.7544017   2.4277920
  21.4149213  10.8189225   3.6552036  21.6155338  61.5312862  23.6815810
  22.0175505  62.3662138  23.9213967  22.0098329  61.3091040  22.8381371
   3.7502193  10.7836103  40.0624323   4.2786002  11.5679252  39.9144626
   2.9597530  10.9255731  39.5416236  52.1008873  56.8525362  16.5632367
  52.8144026  57.4758434  16.4267957  51.4729452  57.0515203  15.8687413
  76.7367363  67.4326372  56.3781881  76.8574524  67.1363592  55.4760361
  77.0615292  66.7086601  56.9135380  40.8370161  66.7917156  14.1039777
  40.7446909  67.6583242  14.4998300  41.5778494  66.3962603  14.5633459
  74.1473389  30.7997036  26.2764764  74.9548149  30.2988291  26.1609817
  73.5630941  30.2066207  26.7488575   6.2617958   7.4815416  45.6269789
   6.0248262   8.3162028  45.2227306   5.5256128   6.9023913  45.4298735
  37.6960778  24.6585751  55.8016109  37.3733306  25.4234886  55.3251886
  37.6175046  24.9004602  56.7244053  28.4238625  72.6735783  61.8696642
  27.8692722  72.7204466  61.0909033  29.3179488  72.7027559  61.5290928
  14.7303915  62.7045107  21.4099860  15.3883350  62.0093393  21.4188457
  15.1778424  63.4527493  21.0148215  17.5218117  18.0120885  48.4171772
  16.7260408  18.0927634  47.8913689  18.2155812  17.8489470  47.7781916
  56.9732523  14.1470945  50.1690722  57.6969481  14.6522141  50.5396843
  57.3489094  13.7198079  49.3993044  62.1155024  26.8095708  51.4374018
  62.4089050  27.5971937  50.9793615  62.3402500  26.0910177  50.8463001
  63.1508160  68.1428671  34.0414572  63.3172369  67.2950554  33.6294484
  64.0104151  68.4342957  34.3454289  78.6810164   0.8493490  14.1288686
  77.7821117   0.9774405  14.4318449  78.8965228  -0.0459501  14.3900740
  39.5106196  54.0450859   7.5182062  39.2594981  53.3648491   6.8933499
  40.2750874  53.6860847   7.9686964  69.3214417  25.1717925  21.9320798
  70.1867914  25.5454540  22.0987344  69.1296577  25.4072499  21.0243297
  56.1254263  19.6572948  33.0915666  55.7371378  20.3406072  33.6379623
  57.0612288  19.6955335  33.2891726  10.9488058   7.5686228  30.6255889
  11.0066795   6.6508424  30.3599524  11.5628123   7.6457798  31.3558459
  75.1181889  38.4307408  54.2585611  75.0156546  37.5955367  54.7147989
  75.1990128  39.0779948  54.9591064   5.6435007  58.3160162   5.0556386
   5.5157727  58.8924551   5.8090538   4.9163088  58.5239553   4.4689658
  51.3044024  41.3270092  47.7958536  51.4666510  42.0993805  47.2542381
  50.3522253  41.2290955  47.7942801  15.7470716  67.3669993  62.9462438
  15.4562153  68.2452761  63.1917346  15.7264961  67.3666416  61.9892649
  69.1323996  48.3364201  56.0469532  69.2377424  48.3807802  55.0966024
  68.2377338  48.0208397  56.1742926  64.1218090  44.2936993  24.0479565
  64.9508333  44.2184448  23.5754204  63.6004448  43.5539389  23.7362456
  20.0759745  67.9637337  29.0911961  19.2391527  68.2974339  28.7677741
  20.7126379  68.6348295  28.8451910  11.0345721  62.3840904  17.3779345
  11.6495419  62.7874851  17.9905689  10.1760674  62.5114155  17.7816558
  76.5175200  16.3100922  59.0080404  76.0283470  15.7263112  59.5878172
  77.2320843  16.6431773  59.5508862  35.9854078  10.5101895  40.4460526
  36.5065336  10.2151895  39.6993041  35.2014804  10.8948946  40.0540161
  22.3828220  39.9311423   8.2428575  22.2459388  39.9745011   7.2964883
  22.3219132  38.9988804   8.4512067  12.0432091  20.0260949  11.1126876
  11.6221368  20.0002027  11.9719076  12.9310977  20.3364587  11.2903368
  67.5853920  54.4349480  45.8481169  67.8873301  54.5036697  46.7538452
  68.3658600  54.6080399  45.3216791  68.0237389  20.4703307  22.3799229
  67.3654032  20.3454947  21.6963720  67.5457954  20.3414059  23.1991792
  70.9100628  30.4440808  15.3057873  70.5818892  29.9205828  16.0368729
  70.2537680  30.3328443  14.6179426  18.9831161  27.4993706  31.9551635
  18.1018400  27.2779536  32.2560930  18.8661408  28.2951927  31.4363050
  21.6468644  52.4571466  16.9063234  21.7501974  52.0227575  16.0596466
  21.8548322  51.7798615  17.5499606  65.1831341  32.7847171   3.5921276
  65.2699757  31.8959451   3.9367700  65.1767015  33.3434200   4.3693286
  11.4301252  51.7079926  18.4777939  11.6117203  51.7771149  17.5405228
  10.7655168  52.3767614  18.6429513  14.3320131   7.4316227  45.4384422
  13.7432408   6.8116838  45.0080299  14.8026168   6.9055885  46.0850096
  38.7576938  14.0363812  58.6889744  37.9891324  14.0687418  58.1193256
  38.6338925  14.7629297  59.2997360  50.3738976  27.2053695  53.8264942
  49.7623968  27.7438068  53.3241129  49.8368073  26.4927649  54.1728449
   1.3062946  39.0692806  33.6696982   1.6955997  39.5901036  32.9672599
   1.8995674  39.1863608  34.4116902  38.5067802  51.4033834   0.0013157
  38.5292738  50.9226016   0.8287044  39.4194167  51.4279668  -0.2863030
  77.9675245  31.6095543  53.5498190  78.4206438  31.1142874  52.8674507
  77.1497679  31.1320210  53.6893654  21.9298315  54.1143370  42.6038027
  22.1606183  54.5183468  43.4403133  21.7010641  54.8510170  42.0370579
  43.4115505  36.4841700   9.3022889  43.9303398  37.2724056   9.4628370
  43.5828352  36.2672424   8.3858633  55.5280113  10.1860249  26.5682125
  56.0282564   9.5351458  27.0604920  55.5270338   9.8575181  25.6691504
  45.0731087  23.3768344  55.8981752  45.4276419  23.3844829  56.7872667
  45.3512955  22.5353312  55.5366278  57.9606485  57.3685217  34.4548631
  57.8068209  56.6920519  33.7953496  57.1012735  57.7660179  34.5952129
  35.0564218  28.1524587  57.9931211  34.2122769  28.5092306  57.7167702
  35.4359412  28.8357878  58.5456181   0.7732395  46.1008739  60.4086590
   1.5699295  46.1192751  59.8784018   0.1928953  46.7373657  59.9911547
  60.2070618  51.7881966  63.4258890  60.2383041  51.2034702  62.6686907
  60.0650740  51.2060642  64.1723442  13.6895657  25.4302216  19.3198121
  13.3209360  26.0315537  18.6727095  13.4968472  25.8388996  20.1636553
  75.4583597  19.3178666  21.5357757  75.1032639  19.6822023  20.7249761
  74.8514080  18.6152923  21.7686510  64.4844151  52.5859213   7.8991699
  64.1739988  51.9519472   8.5456628  65.3313923  52.8771830   8.2368469
  65.0155067  32.0908713  17.0351481  65.9114790  32.2030330  17.3527706
  64.8662233  31.1459589  17.0681238  32.9405761  48.1993580  14.6801257
  32.2691727  48.3982944  15.3327143  32.8714442  47.2541475  14.5458329
  66.6544962   3.4408700  10.8551323  65.8136368   3.4753251  10.3990698
  66.9206953   4.3567276  10.9362173  15.9184682  55.4842615  47.0889091
  16.6222823  55.3659916  46.4510298  15.3650498  54.7107363  46.9811153
  25.9552741  66.7233324  29.3681860  25.2883315  67.2505617  28.9283633
  25.5959892  66.5617418  30.2405596   5.2710336  42.4577045  60.3490686
   5.3555208  43.3759785  60.0924253   4.3296069  42.2868967  60.3212929
  59.4099951  11.2083912  31.6101646  60.2640009  11.5912807  31.4094234
  59.0635252  11.7529750  32.3170018  71.2735701  41.3534164  57.4625206
  71.8937778  40.7902670  57.9255915  70.4171228  40.9661913  57.6435900
  16.2287164  62.5905466  18.4311485  17.0774114  62.3968554  18.8291872
  16.3852167  62.5241375  17.4891675  75.5999660  51.0664129   6.2006289
  75.5212784  51.0557127   5.2467287  76.1904955  51.7970705   6.3840592
  68.5250330  17.4138486  35.9240031  68.1589031  17.1326268  36.7625117
  68.0056763  16.9490278  35.2679229  18.1905448  48.0126953  11.2245739
  18.3023119  48.2729387  10.3102350  17.2444963  47.9137707  11.3315141
   5.7400060  52.2570181  14.9353075   5.6686282  51.3123941  15.0725186
   4.9469578  52.6172924  15.3321826  47.2036457   6.8437159  16.6023695
  46.7601299   7.6560092  16.3580203  48.1227636   7.0926261  16.6997993
  31.5258527  11.1288941  11.5884745  30.6498170  10.7441127  11.6156352
  31.3981795  12.0351768  11.8688035  23.6503816  30.9851503  30.1213193
  23.4365249  31.2978673  31.0003567  23.4843111  30.0430775  30.1552486
  38.1878495   8.5770285  55.7763863  37.6963878   9.1338247  55.1725006
  38.1118774   7.6973450  55.4067659  48.5002565  53.8233805   4.8094818
  48.1924105  54.6677017   5.1389986  49.1261292  54.0486717   4.1211799
  66.0806942  21.6278148  56.9267178  66.0975504  22.5848627  56.9241810
  65.1612234  21.4040756  56.7827034  69.9292183  52.0487309   4.2703018
  69.8154831  51.7053080   5.1565057  70.5510283  52.7694988   4.3707165
  67.8489399  27.3013616  33.3501720  68.3719158  26.9218969  34.0563846
  68.0658054  26.7738104  32.5814772  52.8013277  72.2547722  22.6717281
  53.3715630  72.7609015  22.0930266  52.0610237  72.0040751  22.1191597
  50.4189301  20.6798720   5.4284477  51.3536930  20.8743596   5.3604054
  50.3112602  20.3276706   6.3119590  59.2344427  13.2597136  18.4820628
  58.4630680  13.6258280  18.9147019  59.0697098  13.3899951  17.5481892
  74.8671636  73.5481130  63.8739801  75.5719576  72.9321443  64.0741780
  75.2306804  74.4066750  64.0906696  63.0836821   9.1656166  45.8554745
  62.2623062   9.1894370  46.3464022  62.8638506   9.5402300  45.0024986
  58.3212566   3.0631539  10.1738548  57.5368595   2.5308576  10.0411522
  58.1379318   3.8797939   9.7093952  12.8001797  69.8980284  59.7330093
  12.9844403  68.9825821  59.9433231  11.9717813  70.0833464  60.1753283
  40.3688383  18.9467883  61.8479633  40.6368732  19.8449647  61.6538715
  39.4835591  19.0321875  62.2018194  51.2154722   1.4343847   3.9813673
  51.7590714   0.6571176   4.1101664  50.4498100   1.2858121   4.5362708
   6.4290822  10.2019811  48.2660913   6.6985029   9.3257183  47.9907608
   6.5207398  10.1924312  49.2188454  65.9801245  19.2431545  59.2059278
  65.1192951  19.3473303  58.8005209  65.9755230  18.3506644  59.5518637
  42.9771996  33.0978251  54.7039270  42.4517393  32.3156238  54.5357466
  42.4468613  33.8197279  54.3665409  35.7928753  31.0610700  59.4777584
  36.6833353  30.8184028  59.7315741  35.2793884  30.9598875  60.2792072
   6.4623612  42.8737402  27.6851630   6.7215663  43.6939335  28.1050801
   7.2059214  42.6446915  27.1275902  59.7864294  17.2529590  24.0475154
  59.2032576  16.8886423  23.3816195  60.3001785  17.9123354  23.5811281
  10.6113696  60.2246666   0.6113743  11.3315725  60.7170773   1.0051671
  10.8656347  59.3072796   0.7112923  76.3118982  36.3146138  43.0702877
  77.2640944  36.3116765  42.9725790  76.1009598  35.4364610  43.3874369
   3.3876404  60.6758595   2.9474688   3.9924935  59.9759102   2.7015901
   2.5224805  60.3361225   2.7187586  22.1529460  40.3310680  23.6153412
  22.6183963  39.5061445  23.4771824  22.3011208  40.5380487  24.5380735
  50.4813051  17.4571896  19.7756088  50.4277802  16.7009389  20.3599477
  49.5793962  17.6038921  19.4905198  56.8740129  57.4007750  52.7982521
  57.4830437  56.7106247  53.0609417  56.6410351  57.8389263  53.6167717
  65.0474119  42.4096012  50.8840084  65.3337240  42.1960449  51.7720699
  64.4039917  43.1085110  51.0013580  15.0329018  54.5681524  13.5020590
  14.7236514  55.4550457  13.6865020  15.8236623  54.6944380  12.9776716
  62.1055317   9.9985170  50.3613377  61.1865520   9.9654239  50.0956059
  62.4701929  10.7354224  49.8712063  58.6314917  34.1473651  56.4798498
  58.3187151  34.5318198  57.2987509  59.5762396  34.3010116  56.4885998
  64.8495054   7.5777066  35.7860065  64.6638966   7.9552460  34.9262142
  64.0202856   7.1854478  36.0594201  44.2649937   6.3424313   1.8752876
  43.8324451   6.8176138   1.1658262  44.1304588   5.4190469   1.6619939
   8.6953050   9.2862099  58.7998915   8.1510454   8.5908610  58.4304285
   9.4585907   8.8301492  59.1543388  64.6708250  17.1385193  52.8782749
  65.1132202  16.3736320  52.5102186  65.0526285  17.8828990  52.4131393
  47.1985292  37.5492430  54.5194054  46.8591309  37.6416087  53.6291790
  48.0660486  37.9525542  54.4880390   7.8428739  17.3330986  18.3813989
   7.4432021  16.9428825  19.1587186   7.5747430  16.7617261  17.6617670
  30.9826636  16.2092733   4.3561733  30.7152295  15.6813288   5.1084930
  31.7217326  16.7261469   4.6768773  35.0497699  53.6068916   8.6303401
  35.4532027  53.0242443   9.2737639  35.6100988  53.5350323   7.8576195
  43.3981037   6.8650705  41.6224909  44.3423986   6.7817295  41.7551231
  43.0272341   6.0925579  42.0489979   6.2353879  32.5536776  27.7222347
   6.5651280  31.6792512  27.5151515   7.0201647  33.0652165  27.9189157
  17.7998066  27.4683976  62.7431440  17.9424500  27.7111578  63.6579943
  17.2635186  26.6767097  62.7862406  33.1048179   7.3779291   5.5418897
  32.6056075   6.6511267   5.1693565  32.6780248   7.5570589   6.3797396
  17.9706645  36.2488627  64.1632700  18.0722713  36.7465782  64.9745560
  18.0151665  36.9080853  63.4706831  22.1905923  70.4972839  62.2923517
  23.0588198  70.2310514  61.9898081  22.3632026  71.1470842  62.9736710
  69.8020411  55.4450464  24.8923898  69.0037823  54.9493122  25.0747800
  69.5560169  56.3581610  25.0404716  16.1568618  53.6706972  28.5195708
  16.9765592  53.1995010  28.3702374  15.5201221  52.9853392  28.7222457
  20.7443810  28.3512425  17.8413498  20.1870584  28.5990381  18.5790634
  21.4906168  28.9484191  17.8937495  72.9834557  30.3213429  51.1847782
  73.7850046  30.2145123  50.6725883  72.9434586  29.5378590  51.7332125
  68.8065958  37.4515367  31.4459682  68.8565588  36.9568634  30.6280231
  67.8686619  37.5418949  31.6143179  74.3429089  62.4316120  51.4865112
  73.6568880  61.8096066  51.7288303  75.1290274  62.1031332  51.9228077
  75.9469795  59.8306274  36.9772601  75.0833225  60.1279259  37.2635269
  76.1678648  59.1206884  37.5801110   8.4499800  55.1002884  11.4934790
   9.0333831  55.0288200  10.7379889   7.9759586  54.2688608  11.5095448
  40.1720905  14.5978010  12.7297461  41.0435390  14.8924804  12.4652374
  40.1750565  14.6679115  13.6843705  12.7445424  22.1616840  63.6955214
  13.5397911  21.8420267  64.1216993  12.7061522  23.0900455  63.9255333
  78.4878826  51.9655943  16.9100153  78.7985086  51.4683390  16.1533904
  78.3132124  51.3020277  17.5774026  65.5824280   5.2598894   1.1426842
  65.2155161   6.1118817   1.3787305  66.1976004   5.0602257   1.8483257
  78.1549263  64.5214558   5.3293777  78.1505823  64.8720264   6.2200594
  79.0542793  64.6473551   5.0268131  47.9709625  73.2543850  38.5465121
  47.8486300  72.7575588  39.3554783  47.0872736  73.3593559  38.1939435
  60.2357769  51.5954590  53.2882595  60.8533573  51.8626738  53.9690161
  60.0496340  50.6765366  53.4810543  76.1215401  31.4531398  30.7130432
  75.6102753  30.6890631  30.4465365  75.6703758  32.1953678  30.3108263
  21.6175580  32.6240253  62.7147198  21.7398429  33.5667443  62.8267813
  21.1285186  32.5415921  61.8960142  77.3216200  72.2876692  53.9503288
  76.6200972  72.2710228  53.2993126  76.8668461  72.3326254  54.7913933
  56.5279961  64.6139193  53.4575701  55.9758139  64.0730095  54.0221405
  56.0959721  64.5876884  52.6038122  45.5729532  62.9369593  20.5708718
  45.0812435  63.4995079  19.9725437  44.9008608  62.4692011  21.0665798
  53.2013083  32.3478341  47.9463053  52.7658796  32.8644609  48.6243391
  53.5266781  32.9969192  47.3225594  28.3537054  17.7453959   6.7538649
  29.3093181  17.7162063   6.8005961  28.1438899  18.6787558   6.7214614
  41.4160872   3.2923654  16.8711746  41.0786676   4.1177922  16.5232491
  42.3229265   3.2570338  16.5668368  52.3792553  68.5612822  17.0924199
  52.8093386  68.2938814  17.9046726  52.3030472  69.5127726  17.1637595
  10.2501857  46.8542624  38.5262537   9.4715911  47.2745991  38.1610966
  10.8461082  46.7664289  37.7823496  40.9212065  61.7337942  23.7886167
  41.3263893  60.8886957  23.5940313  40.3430700  61.5570164  24.5307326
  10.6635451  71.4183617  19.7081709  10.7767653  71.2185431  20.6374097
  10.9456360  70.6231976  19.2560947  78.0459070  33.2344079  26.8838978
  78.1357956  33.8646197  27.5987291  77.4058628  33.6317277  26.2933779
  53.9142561  14.2039001  18.1235194  53.7144899  13.9303076  19.0187693
  53.3474970  14.9602699  17.9721165  42.6832724  22.1406531  11.9820404
  42.8331041  23.0685496  11.8009567  41.8633270  22.1222949  12.4755859
  44.6625757   4.3577027  41.0243225  45.3842354   4.8697206  40.6592560
  44.3227148   3.8591436  40.2812433  67.1830082  37.6812887  62.5286198
  67.0803881  38.2266951  61.7487288  67.8857851  37.0715714  62.3037148
  76.1027622  42.5728464  29.1323233  76.8996334  42.2136211  28.7422132
  76.4083195  43.3001852  29.6743989  76.9210339  61.8254232  55.7413387
  76.4976740  61.2985468  55.0635529  77.8403664  61.8616056  55.4772282
  59.2104292  16.5257180  60.7908630  59.0353346  15.8930326  61.4874887
  58.9571190  16.0726655  59.9866199  16.6959131  15.7509768   6.5647149
  15.7466340  15.6548941   6.6413307  17.0432639  15.3340495   7.3532265
  57.0018387  62.5255632  56.7083502  57.0905304  62.2075748  55.8098793
  56.0593462  62.5127125  56.8750238  77.8924958   2.8408977  57.3890924
  77.8244731   1.9152293  57.6230669  77.9426147   2.8432772  56.4332104
  61.8120861  63.3350515  48.9801216  61.9001484  63.9835024  48.2815552
  61.5097570  63.8375521  49.7366428  45.9240723  72.6018953  43.0940056
  45.9325981  71.8735456  42.4729824  46.3993692  73.3027315  42.6477337
  46.5959978   1.7313297   2.9394704  46.6982079   1.2354556   3.7518087
  46.0106182   1.1957754   2.4039842  73.9378262   6.4637446  49.8296022
  74.3666315   6.7984360  49.0419817  73.8804388   7.2216034  50.4114819
   6.5474814  17.9197121  60.4000854   7.4316376  18.1797612  60.1414871
   6.6751444  17.1368515  60.9358692  28.4358144   7.6511550  23.8202882
  27.6435399   8.1864613  23.7757778  28.1141257   6.7512357  23.8740802
  41.4154100  56.7821980  10.3927004  40.9798717  56.8508625   9.5430976
  42.0890045  56.1145496  10.2632785  24.1241684  14.5270122  -0.1613621
  24.7309962  15.2148355  -0.4350237  24.3663922  14.3409265   0.7457920
  75.1494265   7.9050958  56.9004869  76.0717058   7.8499788  57.1506834
  75.1424408   8.4825575  56.1371279  28.0351758  40.2749300  29.6636510
  28.9300966  39.9979663  29.8602271  27.4971509  39.8280621  30.3171563
  41.0695601  67.9538345  49.3610811  41.4833117  68.1809187  50.1938343
  40.1304531  67.9872561  49.5432615  30.5941105  46.8120050   3.6505261
  31.1737800  46.2580538   3.1276965  29.8146510  46.2751627   3.7936270
   2.7581942  14.0117419  49.6178961   2.0211881  14.0288424  50.2284384
   3.5252947  13.8691354  50.1723766  66.3769245  27.2600269  20.5495763
  66.2733984  26.4049721  20.9671807  67.2557688  27.5443554  20.8006239
  70.5278969  20.8234191  58.6609173  70.0583220  20.0306606  58.4015608
  69.8767376  21.5214372  58.5902309  42.1380377  13.7152600  46.3740158
  41.9223261  13.0030692  45.7719469  41.3053942  13.9369512  46.7908907
  68.0909967  63.1867123  51.7173719  68.2689190  64.1003609  51.4941549
  67.2205973  63.0172253  51.3569403  55.9755087  43.2673025  52.5747871
  55.9092569  43.1175756  53.5178804  55.6256104  42.4684477  52.1802855
  18.9772666  27.2603273  11.5808356  18.5413778  26.4215636  11.4301419
  19.8068523  27.0276260  11.9978106  58.3225593  66.9449960  62.4906855
  57.8947124  67.7368604  62.8164575  57.6005969  66.3631664  62.2530321
  72.3514509  52.6007509  51.2649345  71.5041399  52.1736813  51.3910389
  72.4138737  53.2267475  51.9863653  67.1671724  40.8100557  17.2169721
  67.4386597  40.5748653  16.3297224  67.9874659  40.9071684  17.7006245
  68.2216802  10.7042654  62.9314647  67.6524165   9.9704083  63.1630457
  67.7769294  11.4737948  63.2867798  62.4898434  20.7259989  61.8387127
  62.5318813  20.7990575  60.8852339  63.2113791  21.2709856  62.1527290
  56.2299871  11.1021221  50.2226496  56.4784145  10.9139121  51.1276865
  55.4563570  11.6607583  50.2978611  52.3565578  51.7320156  13.6288369
  52.9342890  51.8647099  12.8772700  51.4789629  51.9102097  13.2907343
  13.7646806  51.4284849  10.8139026  13.0379510  52.0499659  10.8570325
  14.1624820  51.5842056   9.9573189  28.6645508  10.3843927  22.4608898
  28.9414525   9.4925052  22.6708722  29.2080832  10.9413958  23.0181599
  30.8288121  54.9282360  57.4379015  31.7028236  54.8238802  57.8139877
  30.9632635  55.4835510  56.6699266  70.3888607  68.8616419  29.0608644
  71.0710001  69.4956827  29.2820144  70.8597279  68.1370687  28.6491561
   6.0593700  15.7330430  23.8284159   6.6524065  15.1180863  24.2601180
   5.8866990  15.3390515  22.9733205  70.0904131  70.5079222   5.0859118
  69.1452169  70.4775620   5.2339458  70.3870487  69.6123123   5.2475512
   3.9149725  70.8580303  32.0547509   4.4684204  70.3297329  31.4795685
   3.9280671  70.3942013  32.8919601  25.5250025   5.4564917  21.8108940
  24.7499299   5.3281325  22.3577166  25.3273416   6.2381303  21.2949443
  47.4550962  59.8591328  30.0192189  46.7930460  60.1057768  30.6650424
  47.8829765  60.6835651  29.7880030  15.7485578  -0.2229431  33.6458516
  14.8716733   0.0695536  33.8943505  15.9153793   0.2062818  32.8067040
  30.8177137  42.8075457  60.5741692  30.3591418  42.4667168  59.8061991
  31.1565208  43.6575317  60.2931595  27.2876310  14.3063462   0.7993363
  26.9283462  13.6288810   1.3722134  28.0404019  14.6514773   1.2793899
  31.8679500  14.0296352  23.7635803  32.4775434  14.2243671  23.0517459
  32.4280810  13.8898063  24.5270801  54.8037148  15.6924129  22.9345560
  54.5302105  15.3735662  23.7946510  55.7234335  15.9316194  23.0491400
  51.5718937   8.8561380  27.6006913  50.6958532   9.2384940  27.6515937
  52.1606159   9.5746243  27.8318119  42.9248428  53.2645559   5.9575075
  42.5654888  52.8492546   6.7414862  43.4404325  52.5764513   5.5368948
  57.5619316  39.3566227   7.8136271  58.0262947  40.1633692   8.0366904
  56.8222332  39.6459222   7.2794122  23.8619971  69.0787315   9.3610841
  23.7227726  68.7552118  10.2511299  23.7139893  68.3153677   8.8028741
  40.2347374  49.9160147  63.3207178  40.2091169  49.1848087  63.9378977
  39.3635249  49.9254990  62.9243231  52.7603817  11.6927207  22.4800158
  52.4809313  11.3139725  21.6465354  53.1233692  10.9542108  22.9689717
   9.1520041   2.0925684  29.0596771   9.1318756   1.1876841  29.3711448
   9.0589821   2.0210093  28.1097007  76.7597389  59.3315506  33.9123201
  76.6463661  58.5924864  33.3146930  76.5996933  58.9635849  34.7813535
  66.5060186  47.9504442  60.3718376  65.5702066  48.0230093  60.5595207
  66.8217421  48.8540649  60.3751612  15.8542931  36.2916827  55.9498167
  16.1123598  35.7479239  56.6941023  15.0614810  35.8749151  55.6122017
   4.0973198  53.4983778   1.7243597   4.7254413  54.1857672   1.5025745
   4.2822376  52.7950621   1.1019556  69.7875214  13.4456599  40.3019285
  69.7324419  13.3511102  39.3510032  68.8910913  13.3091295  40.6085205
  42.3456335  59.2864275  60.2650404  42.7128029  58.7105322  60.9356880
  43.1014776  59.5631361  59.7469997  29.8292518   7.1196204   8.0645961
  30.7789874   7.0334107   8.1470531  29.4912004   6.8801427   8.9275008
  31.9601011  49.7110796   7.9529452  31.1573982  49.6668577   8.4725082
  32.1500182  50.6467676   7.8847390  28.2084680  71.0423708  39.1810870
  28.1306505  70.1296759  39.4588828  27.4114060  71.2083101  38.6777115
  62.0888662  27.3722506  63.0627251  62.5985861  27.6909041  62.3178244
  61.1826944  27.5885606  62.8429604  54.5136213  48.6824560  13.5435271
  54.3726778  49.0222549  12.6598394  54.5740652  47.7340984  13.4286535
  61.4021397  14.1699171  22.9634333  61.1196232  13.6310554  22.2244859
  60.6063318  14.3083143  23.4770179  61.3220501  52.6572800  12.9562056
  61.4945650  53.2270670  13.7057483  60.9292936  51.8721008  13.3376122
  34.9830341   8.9889461  61.4560175  35.3331137   8.2174444  61.9015074
  34.5353460   9.4805622  62.1445847  77.8684425  62.0552778   1.0241835
  77.5327635  61.9573164   0.1331430  77.1406031  61.7873049   1.5851396
  43.0952120   8.2116365  51.9220018  42.3166180   8.2615638  52.4765539
  43.4124851   7.3156095  52.0347118  41.1499119  33.0286121  58.6192608
  40.9498835  33.7761354  59.1826677  40.8961010  33.3152246  57.7419519
  76.7876291   9.0132689  32.3872972  77.1471977   9.7946668  31.9673467
  76.9333363   8.3117187  31.7526078  11.7501354  13.2461536  58.1890631
  11.2504506  13.9830744  57.8376436  12.4376106  13.6527646  58.7165833
   6.7064571  21.6468024  62.7138996   7.1796948  22.4076033  62.3770618
   6.8155789  21.6980028  63.6634779  74.9692965  10.1630080  46.4270067
  75.7046700   9.8077613  45.9277534  75.3778887  10.6287956  47.1566153
  22.7192807  68.3328867  11.9015551  23.3373594  67.9737568  12.5381362
  22.7848840  69.2813349  12.0127857  14.7716415  64.7010803   4.9574646
  15.1146495  64.2823315   4.1680172  14.7911191  65.6374168   4.7596714
   3.4822628  14.5189190  45.9998608   4.2507201  15.0734842  46.1346292
   3.3713210  14.0572608  46.8310022  58.9897251  69.8848963  36.0317612
  58.5660744  70.6487560  35.6402636  58.4321451  69.6567535  36.7755938
  74.0590525  49.2018700   7.9261225  74.4729805  49.7352409   7.2475863
  73.3525324  48.7426662   7.4720395   5.3284830  52.1701288  54.1949320
   5.1291442  52.7732754  53.4788942   4.8513788  52.5236225  54.9456978
  66.3679266  35.1083875  16.8243146  67.0346785  34.6229601  17.3101509
  65.6192780  34.5132184  16.7851841  67.7442163  73.8611142   0.4376980
  68.4197038  74.5018355   0.2153822  67.9601377  73.0924551  -0.0902943
  75.8373737   8.7070853  26.0032010  76.2790203   8.0853420  25.4247403
  74.9943972   8.2969910  26.1967087  54.5659590  52.7229548  11.9496536
  54.9836636  53.5234118  11.6318154  55.0870991  52.4667311  12.7105713
  52.2524786  69.1125059  61.3071060  51.6109514  69.6076584  60.7976961
  52.1349525  69.4214201  62.2054338  15.4662502  42.3652363  56.6874743
  14.6011007  42.1618509  57.0429802  15.9884024  41.5830660  56.8658113
  45.6557894  70.8828449  58.0646276  44.7416687  71.0250330  57.8188705
  46.0810137  70.6030893  57.2539806  67.9567623  66.2400246   8.7738520
  67.2427988  65.8065653   9.2414021  67.6819134  67.1548223   8.7118953
  41.3299131  36.2586927  58.1909704  41.8253279  36.0029531  57.4129009
  41.2472630  37.2097039  58.1204176  52.7853155  63.1314182  10.4189312
  52.1977329  63.8744593  10.5563104  53.1275463  63.2571363   9.5338857
  32.7125669  26.1735153   8.2285094  32.7328944  26.5999246   9.0852439
  33.5399461  26.4232063   7.8170079  16.5523028  24.5852160  59.8964024
  16.2233818  25.4818678  59.9601316  17.5021160  24.6722150  59.9771357
  18.9146924  11.8413758  23.7079191  19.1321969  10.9265304  23.8867521
  17.9598153  11.8760765  23.7648106  61.5068054  66.8031740   4.9068817
  61.3390207  65.9928560   5.3879887  62.4531794  66.9300365   4.9740705
  12.7101743  56.0055542  40.3831196  12.6701987  55.0575590  40.5093765
  12.7537453  56.1191034  39.4336772  46.0654688  52.7144098  10.2126384
  45.6230974  52.0536184   9.6798199  46.8440151  52.2697973  10.5479324
  31.8488130  46.1620949  63.8355066  30.8926693  46.1252217  63.8097815
  32.1315661  45.4300885  63.2873744  74.9948072  41.3608217   2.3174526
  75.2310371  42.0184946   2.9715896  75.1312828  41.7988014   1.4773443
  11.7439997  12.4589717  15.9429288  11.2030089  11.7458153  15.6038582
  12.1102571  12.8739178  15.1619637   2.2704864  29.8482323   5.1795816
   2.7499735  29.0428519   4.9854451   1.6748691  29.6072602   5.8890927
  59.7700834  41.7117977  52.8046656  59.9464512  42.5121593  53.2991838
  59.1471910  41.2276793  53.3467531  29.7620368   0.7916569  23.5177517
  29.7523665   0.2385781  22.7365732  30.6891918   0.8753683  23.7404847
  41.3932323   9.9708557  31.1110854  40.8668423  10.7009184  31.4368987
  40.7627153   9.3955737  30.6778097  46.6312647  11.2431204  15.0641322
  46.8045425  11.9379532  15.6992805  47.2876978  11.3747978  14.3800390
  16.4545035  21.8857026  10.4988801  15.6712031  22.3448300  10.8019900
  16.7081749  22.3469400   9.6994150  54.3119860   6.8599480  62.1619654
  54.5304251   6.6700226  61.2495804  53.3614016   6.9723064  62.1622705
  50.4733324  38.7856483   8.0666691  50.9600210  38.9275026   7.2547328
  50.3381062  37.8387260   8.1025368   0.1032244  17.8735471  23.2595015
   0.9934508  17.8703487  22.9077673  -0.4231026  18.2873774  22.5754285
  49.8909903  73.4766006   9.8156327  50.7247543  73.3869410  10.2771866
  49.8447037  74.4038630   9.5826584  26.8889284   2.6956341  20.9246993
  26.4153242   3.5270315  20.8980703  26.2353587   2.0397979  20.6818891
  67.5714636  62.0513248  18.2823527  66.8163919  62.5775766  18.5453331
  68.3261585  62.6171350  18.4452152  59.6965885  63.7659359   4.3424308
  59.0735817  64.3801641   4.7307843  59.5394659  62.9418755   4.8033774
   6.0808700  45.3549719  63.2029629   5.2761108  44.9179792  62.9243422
   6.5413195  44.6984243  63.7256098  77.3260450  68.3842945  18.3786273
  76.9487143  68.6976099  19.2006278  76.5703440  68.2288551  17.8120720
  30.9727597  55.2216816  20.6223130  30.5852413  55.0987911  19.7557342
  30.3574252  54.7996569  21.2218881  55.7158184  62.2707129  14.7185779
  55.2358437  62.5757408  13.9486337  56.4654493  61.7951488  14.3606257
  40.2696705   6.8427432  49.9352646  40.1465654   6.2775117  49.1726446
  40.3999329   6.2363243  50.6643152  31.0851336  18.4094822  45.4759789
  30.9603977  19.0004683  44.7334099  31.6601777  17.7216339  45.1406908
  24.9057913  22.5018477  16.7062533  24.1272736  23.0448794  16.8297756
  24.7643852  21.7469764  17.2775722  75.0859880  73.7674475  44.0867949
  74.2872620  73.6829519  43.5660934  75.2758646  74.7056198  44.0835905
  67.1381521  68.7743711  14.4263196  67.6264572  68.3887386  15.1537001
  66.6166973  69.4686031  14.8292518   2.5827554  57.9029512   4.3873438
   2.3506722  57.0699406   4.7977871   2.2008026  57.8528309   3.5110834
  55.8847141  20.6954050  60.2437830  56.4017963  20.0121832  60.6704712
  55.4418564  21.1451912  60.9633636  77.9880163  61.6774511   6.1552680
  77.0350694  61.5929699   6.1238587  78.1810279  62.4245834   5.5888975
  38.7492990  27.4036980  51.2315798  38.6836290  27.1976352  52.1640253
  37.8926373  27.1704912  50.8738375  17.4225616  41.0503578  12.3540998
  17.0038891  40.6560802  13.1192732  16.9166124  41.8456411  12.1874380
  24.3213487   2.5547692  12.6589763  23.6726427   2.2391602  13.2881033
  24.1685438   2.0295011  11.8734980  49.2229176  69.2601204  46.6216087
  50.1378012  69.2188263  46.3431883  48.7214851  69.1398048  45.8151865
   1.6979480  24.7794247  28.3930635   1.8848830  23.8437343  28.4690309
   2.5320023  25.2068734  28.5876727  62.2374010  56.7752123  12.0821047
  61.7866325  57.3800039  12.6713991  61.6253710  56.0475731  11.9716763
  55.4160738  36.3468194  52.2835922  54.4685602  36.2476826  52.3764753
  55.5646706  37.2908044  52.3387337  24.3810773  59.3755579   7.3807251
  24.4346690  58.5143185   6.9664407  23.6214924  59.7909164   6.9723856
   2.3738237  63.2237720  31.8565297   1.7780432  63.9518213  32.0332336
   2.3134814  62.6704836  32.6352882   0.2763711  67.8840351  24.8390484
  -0.5454333  67.5447607  25.1936793   0.9568437  67.3942375  25.3008842
  56.2613678  72.0466375  37.4914861  56.0420752  72.7670765  36.9006276
  56.4148569  71.3001490  36.9123268  27.8022861  49.8605347  11.7770243
  27.9155183  50.8072948  11.8610072  27.5181270  49.5753336  12.6454389
  74.3140984  41.6158247  19.4322908  74.6261501  42.4471045  19.0747571
  75.0309229  41.3099718  19.9880338  14.7131431  53.7804508  54.5998955
  14.7076368  54.0243673  53.6743116  13.7897360  53.6599541  54.8213291
  26.3599873  71.8275547  36.7047358  25.9801960  72.3611450  37.4027848
  25.6068134  71.5274954  36.1958861  52.3260403  17.1969378  52.6841784
  52.5887489  18.0911791  52.9022360  52.7003145  16.6602457  53.3828259
   3.2940209  58.5207653  19.8495555   3.0442742  58.8160133  18.9739478
   2.5355691  58.7250423  20.3965974  60.9946888  59.0732305   0.5487057
  60.2662533  59.1205494  -0.0704626  61.5088957  59.8615186   0.3742691
  52.6956177  67.5649261  34.7537851  52.3160934  67.2094822  33.9501381
  52.2163343  68.3795547  34.9051070  66.4628553   1.1131958  22.1062422
  66.2450790   1.7928985  22.7440596  65.6388283   0.6483763  21.9607878
   5.5445421  38.0384970  29.7545385   5.3846484  37.3150349  29.1485119
   6.4981365  38.0903125  29.8193884  57.3615170  68.4663057  19.8212934
  57.1165419  69.3422556  19.5230842  57.4554157  67.9568195  19.0164077
  35.9662652  45.3403711  62.4576187  36.8723941  45.6388950  62.5354052
  36.0381818  44.4136000  62.2292471   9.1034353  42.3708105  50.4310989
   8.8666296  41.4837646  50.1603413  10.0498509  42.3343134  50.5696583
  43.4800100  58.8110447  21.3408351  42.5615168  58.7597179  21.0763121
  43.8265944  57.9344988  21.1741781   9.6386504   8.8356674  22.8004551
  10.0883341   8.6653250  23.6281013  10.3337359   9.1099524  22.2022438
  12.0613313  -0.2783818  12.5745344  11.9650459   0.4728457  11.9891989
  12.9401481  -0.1845273  12.9421008  63.9770365  69.0283442   3.4705052
  63.9543867  68.4683847   4.2464966  64.8158598  69.4856453   3.5295358
  33.0755949  16.0929430  47.8974533  33.0956006  16.3985860  46.9905806
  33.3928514  15.1909304  47.8532505  74.8448896  38.8285756   2.7388322
  74.7396564  39.7473025   2.4916500  75.7918358  38.7050891   2.8042090
  65.0717926  57.6496124  17.8360283  65.2498817  57.2628736  18.6933208
  65.9356260  57.7587509  17.4383938   9.0092885  26.5326333  30.8630037
   8.6877024  25.8081770  30.3263664   9.4459426  27.1154284  30.2417803
  72.8747845  58.4633923  21.5092850  72.9149771  59.3319607  21.1090255
  73.6506128  58.0109596  21.1781836  23.8412905  52.5694084  13.3087409
  23.3332992  52.7520132  12.5182760  23.2747626  52.0022678  13.8318372
   4.5285940  45.0093174   4.8578453   4.0708530  45.8384895   4.7193500
   5.4459804  45.2079344   4.6702638  32.7572727  44.4681025  57.8948736
  33.4335470  44.6191549  57.2345161  32.2017193  45.2463531  57.8511286
  17.4334562  27.8156781  47.2139263  16.5292072  27.6114011  46.9755220
  17.6383185  28.6088943  46.7188787  54.1054630  38.8310409  11.7979813
  55.0007772  38.7229800  12.1188676  54.0656137  38.2869411  11.0114706
  60.4345274  64.2994690  12.0590281  60.8021545  63.7494135  12.7507758
  60.9892511  64.1295576  11.2976873  13.3254063  62.5609732  45.7143068
  14.0629005  63.0031729  45.2938366  13.2356000  61.7370129  45.2354956
  20.0622582  46.4671946  54.4970131  19.4008064  46.1217499  53.8975286
  20.6364560  46.9947863  53.9418745  43.5529613  60.2772760   6.0961038
  43.6478090  61.1743212   6.4163226  43.4145641  59.7544193   6.8858510
  13.6953902  37.4270391   7.5461245  14.2025018  36.7970920   7.0340323
  12.8127933  37.0576286   7.5742304  22.1461964  41.8982029  17.0712662
  22.7703881  42.4350691  17.5595236  22.6875448  41.2452602  16.6276026
  12.0678020  49.7403908   4.9789205  11.9930530  50.0130796   4.0644342
  11.9459510  50.5467844   5.4800361  65.9869003  65.7663250  10.5785871
  66.1773586  64.8358965  10.6979978  66.3335752  66.1848211  11.3665664
  22.5733495  63.9829302  59.3588638  23.3222890  63.4712839  59.6647072
  22.9539251  64.6391439  58.7751007  38.2259250  68.2212210  23.1514573
  38.1420398  67.7284479  22.3351407  39.0986705  68.6118031  23.1068444
  71.8991947  61.4285564   2.1715555  71.3924885  60.6180906   2.1203808
  72.4311161  61.4291239   1.3757576  66.5782070  49.6314812  51.9794846
  66.5244865  50.5867863  51.9522238  66.5872908  49.4186354  52.9126740
  73.4458685   4.4594911  21.7451644  72.6784897   4.3882558  21.1774611
  73.6960030   5.3820741  21.6951227  65.2810574  49.9385357   6.7951059
  66.0608292  49.9016333   7.3490274  65.1105213  50.8737993   6.6836047
  51.6737127  70.7706928  44.6946716  52.1625185  69.9627686  44.8513746
  51.9303894  71.3490534  45.4128981  71.1968279  61.6040468  56.8207455
  70.6320190  62.3523760  57.0137072  70.9319258  60.9349823  57.4519444
  50.6876516  20.7288885  62.0545244  50.0979233  20.2607727  62.6455593
  51.1600447  20.0376773  61.5905190  68.0300570  29.7916842  44.0768623
  67.7428150  29.1351604  43.4422779  68.2488298  30.5578613  43.5464478
  50.1066589  52.5065804  12.1200192  49.7221804  52.7080107  11.2668872
  49.3541622  52.3679829  12.6951468  75.0589371  19.3817461  43.3960485
  74.8224688  18.7969077  42.6761341  75.8484840  18.9921641  43.7716484
  23.3172035   9.4179934  12.3911619  23.4491849  10.1520300  12.9911649
  24.0891171   9.4294435  11.8252575  67.9898453  55.8556175  48.4398794
  67.5188589  56.4909124  48.9791441  68.8789558  56.2050343  48.3796453
  42.4974298   7.1360016  22.8370070  41.5907192   7.4121141  22.7033091
  42.4274540   6.2908399  23.2808971  71.0798264  52.5426722  13.0655181
  70.1576853  52.2886419  13.1023431  71.4847374  51.8921518  12.4918437
   4.0768757  17.5050449   9.7490919   3.9001450  17.7004683   8.8288707
   4.2567670  16.5650201   9.7640514   2.6454738  27.1357775  47.5925732
   1.9386373  27.7309465  47.3428011   2.7132684  26.5235949  46.8598604
  30.6571937  48.7417698  59.8564482  30.8749366  48.7535477  58.9244175
  31.0463357  49.5444965  60.2034807  60.9376097  52.1916866  10.0298738
  61.5148926  51.4286184  10.0565219  61.4712048  52.9078388  10.3742993
   6.6901517  52.8834200  12.4051964   6.5819842  52.4372625  13.2451212
   5.8546430  53.3275318  12.2605491  70.4257011  60.5485249  27.8665400
  71.0030222  61.2855625  27.6672769  70.0496149  60.7628632  28.7202668
  73.3023787  65.5266142   2.4089336  73.4691334  64.6665764   2.7946264
  72.9562759  65.3351688   1.5372722  62.5990391  35.6954217  18.5821021
  62.8217649  36.0288334  17.7129292  61.8728256  36.2477064  18.8716304
  15.0348079  22.2210455  46.5729332  14.1476870  21.8978167  46.4155483
  15.5602598  21.4299560  46.6925526  71.0136700  46.3330936  56.1931515
  70.2924490  46.9619560  56.2178421  71.6745901  46.7035437  56.7781162
  59.4111061  59.1853237  21.4850950  60.1772547  58.7871885  21.8982983
  58.6658812  58.8291264  21.9688225  63.5431194  73.2970572   8.7640667
  63.9759111  74.0574217   8.3757764  62.9809570  73.6639643   9.4464046
  12.9476893   4.1333759  11.9085073  13.5450566   4.1169566  11.1607683
  13.1098390   4.9792916  12.3260796  60.9773397  51.7981005  35.7056355
  60.4467869  52.1816015  35.0073004  60.5276871  52.0480680  36.5128255
  63.7439680  48.8590479  51.9349384  63.5497475  49.3002224  51.1079693
  64.6667671  48.6145449  51.8650007  61.3382810  51.1189000   1.1388870
  60.4234617  50.8581356   1.0323997  61.6842931  51.1484591   0.2469011
  11.9984698  22.2313213  58.1027317  12.5296605  22.9012871  58.5330963
  12.1981871  22.3288393  57.1716928  62.9505062  15.6010377  16.7952728
  62.2214079  16.1304319  17.1183693  63.7291527  16.0094404  17.1736217
  21.0774994  60.3754139  61.1834574  20.6917572  60.9765244  60.5461931
  20.4163647  59.6930647  61.2997675  48.9488459  16.5774119  58.0043125
  49.3473434  15.8898365  58.5378551  48.1759024  16.8475902  58.5000896
  52.4544144  25.1056314   0.9748256  53.2933092  25.3686881   0.5962984
  52.4569225  25.4884887   1.8521202  18.2330310  35.7117367  26.6018271
  18.5573566  36.5820503  26.3703132  17.6471400  35.4753637  25.8827353
  23.7541342  47.6402235  62.2023630  24.0625739  48.3672142  61.6614532
  22.8970766  47.9246807  62.5198030  64.0646601   5.3974527   5.2256590
  64.2322445   6.1941159   5.7291210  64.8733854   4.8911622   5.3022313
  17.2281766  71.1233091  58.4947443  16.9669724  70.7503271  59.3367004
  16.4943898  70.9327507  57.9103851  13.5546041  39.3895364   4.4397590
  13.3278906  39.8891068   5.2241457  13.0198324  38.5977340   4.4972056
  69.2825603  15.2820444   7.5066376  70.0768614  15.5858755   7.9459649
  69.5024252  14.4043648   7.1942735  55.1052618  66.7743111   4.9958116
  54.4962263  66.8904114   5.7250774  55.0837088  67.6104259   4.5303261
  27.4911458  20.7940825  64.5196686  28.2441956  21.0686215  63.9964357
  26.7798430  21.3679989  64.2352322  77.4509287   5.3369802  45.2351332
  77.4948025   6.2872261  45.3416204  76.5162563   5.1482415  45.1514959
   2.8440210  17.0731318  32.7770329   2.3207143  17.6650012  32.2365952
   3.7453431  17.3714900  32.6552463  48.7106371  27.8207946   3.7009469
  48.8034296  27.5174689   2.7978328  49.0491009  27.0997429   4.2317563
  54.6258497  51.2236643  62.5997066  54.6506166  50.2727032  62.4934626
  54.2293596  51.3582516  63.4604692  64.6237612   1.3710734   7.8021461
  64.9983692   0.5920666   8.2132989  63.8763523   1.5979797   8.3554351
  53.0468988  18.3802927  11.8382430  53.5100126  19.0652835  12.3204732
  53.1471539  18.6253858  10.9184015  43.0124092  20.4998803  55.4407835
  42.5287342  20.6080747  54.6218920  43.5587215  19.7273433  55.2960014
  75.2214146  70.3329754  52.6162767  74.6297598  71.0698271  52.4638700
  75.5265999  70.0863075  51.7432070  27.8568292  51.7102051  60.8093882
  28.6964846  51.2912893  60.6203938  27.5207663  51.9707727  59.9518347
  73.4565115  17.1915448  26.6816378  72.6094818  16.7492664  26.6254282
  73.3243608  17.8801966  27.3331952  23.3151808  23.6349214   1.0839792
  22.6500454  23.1084265   1.5273996  22.8185597  24.3168987   0.6317564
  13.2620561   6.9589603  -0.2105737  12.4800885   6.9455135   0.3413124
  13.9554465   7.2828138   0.3643695  21.3884044  52.5252056   4.2222223
  21.2076998  53.4635782   4.2773032  22.0393491  52.4471807   3.5247874
  19.5054281  15.4097331  20.7646656  19.4027591  14.7567201  20.0723767
  19.2743301  14.9446940  21.5687585  49.7970867  25.8273935   5.2243328
  49.1140890  25.1621890   5.1391965  50.1202869  25.7256198   6.1195517
   8.0789649  20.8807516  41.1692142   7.7418566  20.0424862  40.8531475
   7.3680979  21.5010595  41.0075951  16.0247207  16.5220106  26.7174459
  16.7569458  16.9038033  27.2015047  16.3990700  16.2761211  25.8714938
  14.2514431  60.6158018  43.9749050  15.1412272  60.5596447  44.3232775
  13.8770783  59.7492027  44.1332960  73.2617262  14.4337948  64.4138753
  73.0719879  15.3096827  64.7501115  72.6605966  14.3246992  63.6770067
  74.9781847  17.4313402  62.3055410  75.7609034  16.9479668  62.5699902
  75.2564573  17.9392982  61.5434551  76.1115503  51.5079927  64.2358160
  75.8716869  51.4344120  63.3120823  75.3432894  51.1883831  64.7089529
  15.2712018   4.0533932  62.9552131  14.5262820   4.6418293  63.0779617
  15.7072408   4.0380533  63.8071913   6.2827265   3.9133289  27.8457785
   5.7790267   4.3631470  28.5241461   6.1539888   2.9827470  28.0292892
   9.9807578  66.6118765   4.3663666   9.9471599  66.7548227   3.4204975
  10.0082076  67.4923563   4.7408405  22.2595859  26.9336009   4.2459401
  22.7429843  27.4640608   3.6125600  22.6394129  26.0587168   4.1650671
  52.8398228   7.0300239   6.4156204  52.9437160   7.9582459   6.6250044
  52.8785992   6.9942880   5.4598737   8.2974404   7.7438229  53.9415503
   8.5012668   6.8088919  53.9172649   7.9145426   7.9278457  53.0837917
  56.4118671  21.0638165  51.6737556  57.2529078  21.5008402  51.5399933
  56.0331297  21.5014458  52.4361658  69.4710779  26.5176916  35.4425740
  70.0994253  25.8231163  35.2451515  70.0091314  27.2999692  35.5641150
  55.3791857  46.9230604   3.0688408  55.4509926  46.3928175   2.2751668
  56.2542343  47.2913647   3.1908137  38.6125994  44.1198111  12.5413191
  39.2802978  43.6319923  12.0591950  38.4895325  44.9223614  12.0343733
  54.1434002  55.8427334   5.6972158  54.2771530  55.5546665   4.7942436
  54.8005104  55.3630066   6.2014914  26.0105443   7.8849596  41.1210012
  26.8258762   7.3841834  41.1472654  26.2674499   8.7433904  40.7843590
  69.3849468  64.0450048  57.0674706  69.3879128  64.9788952  56.8575287
  68.5533810  63.9038992  57.5200415  19.6566939  23.1869149  10.6098676
  19.4935656  22.7423954  11.4417470  20.3997278  23.7634420  10.7880509
  55.7607174  74.3989420   6.3670695  55.7998896  73.4789658   6.6284865
  56.2613344  74.8606014   7.0397371  17.2703791  24.6658850  51.3954639
  17.4120164  23.8774443  50.8715057  17.5401604  25.3848624  50.8240461
  34.7087581  24.6183355  64.1251612  33.7758595  24.4410999  64.0046714
  34.7351653  25.4431780  64.6101054  67.4426460  63.4262323   1.6639110
  67.0377874  64.0777922   1.0913821  68.3794022  63.6181355   1.6203173
  48.9193916   4.5752129  52.2560787  48.8493872   3.7125069  52.6648188
  48.7086058   5.1907158  52.9581881  15.9895790  73.3503294  45.7309341
  15.1235652  73.2698345  46.1306477  16.4850783  72.6103735  46.0818911
  34.2131305  28.4263253  23.9376378  33.6494946  29.1986418  23.8920689
  33.8037443  27.8697968  24.6001410  48.1019354  30.4675555  12.5002491
  48.1177998  30.3472757  13.4497297  48.7545347  29.8502445  12.1696866
  16.6658890  59.1672087  59.2233276  16.5809989  59.7710657  59.9611473
  17.5785649  59.2526150  58.9477110  62.6712370  65.6989336  56.8730116
  62.2803783  65.3286982  56.0815668  62.1262074  66.4591122  57.0762444
  63.0377817  71.7654753  15.8907402  62.7196693  71.8812227  14.9953973
  62.3428535  71.2755489  16.3303709  27.8433752  16.6322494  12.5918257
  28.7019157  17.0511293  12.6524663  27.5970984  16.4581883  13.5002768
  72.7841759  64.7362995  23.3525538  72.8659391  65.5979395  23.7613583
  72.0123148  64.3480158  23.7645054  65.2146721  61.2750244  57.9873848
  65.1083231  61.6472101  58.8628244  64.3387175  61.3122559  57.6032591
  23.6430979  72.8399181  52.3405647  23.3990574  72.4100161  51.5208960
  23.6347628  72.1377373  52.9910278  37.8444028  39.6454668  17.0768261
  38.6242557  39.6402907  17.6318347  37.1127915  39.5861387  17.6911998
  16.1045933  15.2855623   9.9469370  16.6258752  14.5528769   9.6188056
  16.7480314  15.9628606  10.1554704  51.6612005  70.7016134   0.9232632
  51.7823267  71.5767908   1.2915370  50.7708359  70.4568052   1.1753576
  16.4774692   3.3407030  23.6874461  16.8162763   3.1086379  24.5520759
  16.4928305   2.5195169  23.1958675  26.3615513  14.0663826  30.0970101
  26.4204717  13.5611248  29.2861629  27.1759462  13.8711762  30.5605698
  57.6381111  70.6928587   6.0517913  56.6928339  70.5422688   6.0544658
  57.8674221  70.7593775   5.1248485  64.5708323  53.2030058  32.5910306
  64.7292948  52.3885012  33.0682158  65.3697300  53.7146091  32.7185369
  62.9707518  73.9523480  19.6519709  63.5828283  74.3887266  19.0593767
  62.1925351  73.7932009  19.1178524  54.8603106  47.6484346  62.4662685
  54.2447376  48.2073069  62.9405689  54.4386339  47.4906206  61.6215706
  11.7987347   5.0801289  31.0425162  12.1805692   5.0512320  31.9197845
  11.6253757   4.1638881  30.8264565  10.7099676  49.0118694  19.5488894
  10.6771553  49.9634123  19.4503284  11.6412747  48.8130808  19.6457589
  18.1157327   2.6267692   2.6372436  18.9743578   2.7570856   3.0397514
  18.0359650   1.6773494   2.5452086  58.1456661  32.0522141  50.3124619
  57.2856855  32.3792171  50.0483894  58.3915949  31.4387345  49.6200800
  21.0379863  26.7910528  54.5981550  20.0880909  26.8807578  54.6748543
  21.1681414  25.9070706  54.2548418  50.7485771   2.5909409  62.7071142
  51.6148901   2.7261740  63.0910969  50.9254217   2.3243143  61.8049669
   9.8855436  10.4952216  41.8624210   9.6705264  10.6321752  42.7850533
   9.1013771  10.7743311  41.3897562  70.3761244   8.0487746  16.6165924
  70.3282118   8.8681686  17.1090651  70.1728487   8.2988125  15.7152641
  19.4456971  30.4219413  31.4214563  19.7404623  31.0470796  30.7592249
  18.5273600  30.6466866  31.5710449   8.8376552  30.6554794   0.7645955
   8.1805056  31.3027358   1.0204228   9.6660680  31.0185099   1.0779208
  14.7115755   4.5129508  10.1001191  14.8684263   4.0186501   9.2955714
  15.5728447   4.8511603  10.3451931  50.4528666   7.8919011  31.2264156
  50.6055069   7.3481059  31.9992161  50.5027103   8.7905514  31.5522623
  49.2517298   0.2102587  60.3006124  48.5022491  -0.0472477  60.8374548
  49.0183061  -0.0670031  59.4146824   0.7815833  71.0927105  34.1981459
   1.6067226  70.6076288  34.1897082   1.0163181  71.9698906  33.8953424
  43.1846380  24.0269065  50.4020023  42.4475384  24.6344829  50.4634237
  43.2326508  23.8017488  49.4728994  76.1057615  54.1430998  62.9960871
  76.0374451  53.2540894  63.3442593  76.6850758  54.5963573  63.6086130
  16.6395319  26.9889688  33.0805039  17.3391151  26.6810417  33.6566949
  15.8518219  26.5535474  33.4063148  27.8876162   4.7013569  23.3803225
  27.0422745   4.7458658  22.9335046  28.3389401   3.9657575  22.9662776
  29.0535331  24.2061257  12.2822571  28.5672808  23.3941650  12.1390367
  29.9704146  23.9333725  12.3163903  26.7733741  15.6327796  24.2341495
  27.6068664  15.2913415  24.5580912  26.3476038  15.9998930  25.0088596
  18.0281067  62.2000027  13.3973312  17.1809864  62.0962191  12.9639173
  18.5573089  61.4746332  13.0656469  65.0471258  39.3770623  41.4245939
  64.8007822  40.2698374  41.1827230  65.2507544  39.4294477  42.3584175
  42.6237392  12.2941327  13.5826540  42.5071430  13.1948054  13.2802856
  43.0949402  11.8615329  12.8705740  64.1258240  67.4011612   5.6477213
  65.0284052  67.5401545   5.3609204  64.2085123  66.9977522   6.5118146
  29.0446043  28.7086630  24.5038128  29.5495415  29.5201302  24.5566297
  29.7009897  28.0141282  24.5587182  26.7757082  20.1061893  13.7127841
  26.0234427  19.5180809  13.7795401  27.1465063  20.1218700  14.5951068
  21.8673682   2.9339600  16.7797911  22.3350239   3.7571999  16.9205284
  21.0364342   3.0486709  17.2408998  31.0055757  43.1977797   8.3272159
  30.5184960  42.4058628   8.0994928  30.5299211  43.9050865   7.8916723
  51.5109396  30.8885264   1.6149445  50.5878878  30.6355667   1.6296771
  51.5434742  31.7051506   2.1132410  55.5285692  68.7314224  16.7576599
  56.1422682  68.1481123  16.3111651  55.9982347  69.5622206  16.8313038
  63.6474037  22.1607018  30.8227038  63.2320642  23.0158520  30.7111597
  63.9958239  21.9488716  29.9566984  43.8265848  12.2635603  34.0129423
  43.0029917  12.7458441  34.0859246  44.0103674  11.9671535  34.9043441
  54.8822021  22.9771328  56.2964869  54.3943977  23.7935686  56.4047050
  55.4862690  22.9588485  57.0387793  48.3685875  20.1323962  16.6184747
  47.5575686  19.9719012  17.1008861  48.0951977  20.1906490  15.7029986
  76.5563202  69.8960876   8.1945491  77.3998260  69.8664856   8.6460471
  76.5288973  69.0863037   7.6849079  11.0205638   8.4368753  14.7452426
  10.4519677   7.7666432  15.1243460  11.4562452   7.9965562  14.0154946
   3.5315683  66.6544914   9.6321303   2.8148368  67.1203899   9.2014718
   3.6943758  65.8953571   9.0722716  75.6258965  59.5579958  29.0617776
  74.6983719  59.4850826  28.8368011  75.6316471  59.9833250  29.9192715
  62.8840780  14.3669963  55.1178312  63.1770039  14.3550479  56.0290289
  63.5662937  13.8945889  54.6407127  42.5819492  10.1395762  58.0593348
  41.6311646  10.2369082  58.1119537  42.9256058  10.8441436  58.6086226
  37.4663281  68.6502600  44.3226910  37.0869422  68.4731531  43.4619188
  37.9824901  69.4466162  44.1976833  22.0792270  56.9891977  57.1866846
  21.2044644  56.6210890  57.0621109  22.3335958  56.7098951  58.0661821
  75.1310682  56.6777706  45.6918335  76.0374641  56.8966389  45.9081030
  74.9036360  55.9729385  46.2982321  59.2726946  62.5120735  39.2423606
  59.7579622  63.3148575  39.4328547  59.1185427  62.5437212  38.2981849
  37.0497584  12.2490287   5.1897430  36.1942267  11.9437277   5.4915500
  36.9616747  12.3062694   4.2383251  48.1016779  69.1808414  11.3635814
  48.0159044  70.0113916  10.8955455  47.2565031  68.7485027  11.2411058
  -0.0495513  65.4261732  12.5184584   0.0917511  64.5051479  12.7374876
   0.3060007  65.9073305  13.2656538  33.4164610  26.1418785   0.9442135
  32.6504603  26.6228927   1.2574097  33.1757870  25.2202906   1.0389849
  68.9053440  40.1008511   6.9591659  69.7510099  40.0553131   6.5130645
  68.2910728  39.6904039   6.3505280  36.4719629  71.1012602  37.1148610
  36.1208153  71.9884157  37.0382047  36.7651248  70.8824444  36.2303233
  13.6368573  16.7489076  22.9424214  14.2577720  17.3496020  23.3545661
  14.1867328  16.1104608  22.4882698  14.0904975  15.8505917  18.5934889
  14.2603064  15.1401639  17.9748702  13.9090788  16.6109598  18.0410767
  77.6060486  47.1349764  37.9424167  77.7315950  47.9855251  37.5216603
  78.3509827  46.6103458  37.6490355   5.3257674   8.0543119  15.8930838
   4.8473945   7.2252357  15.8882093   6.0408747   7.9218841  15.2707374
  26.8866897   5.4753911   0.1300848  26.3941026   4.7007897  -0.1411739
  27.3838997   5.1871216   0.8955359   9.6135515  61.8222427   6.2712175
   9.2189127  62.5539589   6.7456478   8.9246339  61.5216446   5.6785393
  60.4319572  20.1140881   1.7886651  60.5105591  20.8548927   2.3897137
  61.3350201  19.8440456   1.6219641   9.2254144  62.1025276   2.9568774
  10.0578427  62.2707129   3.3984756   9.0750921  62.8831863   2.4237642
  13.4333467   6.8241864  32.8203726  13.9483583   7.0710111  32.0522118
  14.0336204   6.9366831  33.5574245  55.6077242  48.3789539  38.6571240
  55.6272554  48.6507368  37.7395272  55.9157181  47.4727392  38.6451173
  48.3806372  11.8131912  13.1648660  49.1846752  11.5275264  13.5986340
  48.2543039  12.7137649  13.4635949  15.4246020  30.8362722   3.0483586
  14.6028638  31.2712598   2.8208363  15.3659022  30.6923532   3.9928550
  61.4104557  12.1167803  36.4592361  60.7205248  12.1141160  37.1227241
  61.9252920  12.9003251  36.6521978  51.6818333  65.8913231   0.4159955
  52.2561359  66.5786171   0.7536753  51.9623756  65.7689285  -0.4909483
  10.8542800  14.9057519   9.9521953  11.1585808  15.8091319   9.8653686
  10.0432611  14.9735880  10.4560578   5.8503985  14.4329584  15.2007413
   5.6372517  13.6187553  14.7448099   6.8049043  14.4247365  15.2720368
  70.9490108  59.7925520  34.0860009  71.6848803  60.0037909  34.6605468
  70.3534269  60.5364323  34.1762924  57.5953674  36.2252355  59.0038967
  57.5770664  35.4549265  59.5718050  56.7420006  36.6389012  59.1337919
  51.0282421  65.0278854  28.3283806  51.4623308  64.4328976  28.9397621
  51.7213964  65.3017044  27.7277207  46.3303232  10.4616058  64.2615128
  46.4514017  10.9481966  63.4461641  45.3808641  10.3857350  64.3564224
  73.2910967  70.5920076  35.5707240  73.6903811  69.9600410  36.1685753
  72.4598551  70.8222342  35.9857702  71.4993048  58.8805866  26.0354495
  71.1034870  59.3232775  26.7861748  70.7631397  58.4634590  25.5878973
  46.6956902  21.1511731  43.0783701  47.0688534  21.9506335  42.7070999
  47.4500227  20.5805516  43.2253361  15.0635862   3.8345701   2.0566790
  15.8984149   4.2637193   1.8692678  14.6115983   3.8112718   1.2132363
  50.0694561  53.5028219  59.2263889  50.9860134  53.4810209  58.9512920
  50.1067877  53.6352682  60.1736498  27.3259687  18.2234561  31.2919021
  27.8472805  18.9714921  31.0005116  26.6573954  18.1191766  30.6148720
  53.5492992  18.6003411   4.9183911  53.7172985  19.5190275   5.1282090
  54.3475008  18.3048403   4.4804612  26.6194844  72.4984217  59.3257236
  26.0519648  72.9321146  59.9629593  26.4784789  72.9815865  58.5115337
  66.5839958  19.9901044  38.8048148  67.3675823  19.5713603  39.1610098
  66.0948563  20.2779412  39.5756102  43.9421463  55.1714182  62.3697853
  44.7761393  54.7703123  62.1252298  43.9029026  55.0808764  63.3218861
  59.5716286  59.3097687  35.4014540  60.1040173  58.8042164  36.0156274
  58.9261341  58.6840868  35.0726795  67.6533365  65.6032419  62.1224356
  67.1034193  65.4532385  62.8914070  68.3216286  64.9195242  62.1688414
  42.1451807  15.5304098  15.4645753  42.6411533  16.3185596  15.2430689
  42.8118515  14.8892343  15.7109094  50.4183769  14.5245361   4.9233606
  50.1912594  15.1207685   5.6369120  51.3747644  14.4875860   4.9373516
   0.2392485  10.6270206   2.0243979  -0.4956243  11.2402356   2.0370963
   0.3109007  10.3579867   1.1085822  16.3519943  10.3479505  46.8359613
  15.5097079  10.0978720  47.2157621  16.8716621  10.6473839  47.5819635
  69.6693420  34.3434882  16.7814136  70.5042601  33.8782549  16.7294157
  69.4372034  34.5215344  15.8700180   4.5172074  28.8886547   2.0464310
   4.2706001  29.3420029   1.2402720   5.4656929  29.0033579   2.1051759
  55.3852367  68.7528467  60.3421307  56.2342215  68.6053658  59.9253511
  55.2406406  67.9705763  60.8744669  21.1593962  13.4320533   0.9873863
  20.8139491  12.5801897   0.7205054  22.0357299  13.4659779   0.6038247
  52.8356695  11.8534195  17.4079823  52.2063017  11.9639587  16.6953039
  53.1499052  12.7391517  17.5895488  43.3746338  27.4949193  11.3553691
  43.4461689  27.9159212  12.2120321  43.1827736  28.2121944  10.7512689
  22.8971291  73.0280399  57.7649832  22.7142954  72.6386833  56.9098806
  22.4807048  72.4362659  58.3915806  53.4262991  32.3629999  62.4029207
  53.2646561  32.4806046  61.4668274  54.1572905  31.7464089  62.4441433
  62.2092581  62.6458931  52.4395752  61.6084576  63.3875990  52.5112629
  63.0779839  63.0450392  52.3923969  67.3675251  69.5765066  25.0299883
  67.8892374  69.7769451  24.2528963  67.9422617  69.7883987  25.7655239
  75.9511328  52.6523495  14.6778548  75.3234053  52.3257828  14.0332305
  75.9612322  51.9834900  15.3625143  73.3121490   6.6336304  53.0823469
  74.1469765   6.4764696  53.5234833  73.3268976   6.0473448  52.3258543
  50.0672626  72.4093437  47.1516562  50.8369493  71.8553400  47.2816324
  50.4223442  73.2461405  46.8517876  49.5264292  64.6581602  32.0049286
  48.8139009  64.4361448  31.4055586  49.6248198  63.8828754  32.5576377
  69.3529987  47.2625446   6.7328423  68.9935923  47.1238708   7.6091003
  69.2861223  46.4071989   6.3084114  61.4505911  28.1035709  35.0412846
  61.6178322  27.3437095  34.4837260  61.3153791  27.7349687  35.9142590
  71.5376616  69.9058294  57.2468424  72.3180246  69.4746733  56.8984652
  70.8889198  69.8286581  56.5472603  59.2671824  46.0289145   9.4248903
  58.4772396  46.0416651   8.8844645  58.9586878  46.2440157  10.3051150
  54.0990162   7.5585216  56.8205404  54.2279863   7.0643097  56.0110044
  54.2272997   8.4723747  56.5662813  53.7579727  25.7926059  55.1953602
  53.0231333  26.3595033  55.4295921  54.5126104  26.1849594  55.6344652
  47.2741175  69.2162418  48.4137440  47.7034712  68.9863729  49.2377853
  47.9948378  69.4016838  47.8117371  66.2548637  36.7584038   8.3877832
  66.4266443  37.2190976   9.2090529  67.1235800  36.5639186   8.0360210
  19.2856812  29.6853518  14.2393160  20.1434827  29.3106794  14.0392447
  19.2180920  29.6333981  15.1927125  24.3358350   3.2026875  53.5926771
  24.5106983   2.8088817  52.7379417  24.0386868   4.0900293  53.3912802
  37.7344441  64.1581726  41.3902760  37.8324437  64.4204569  42.3056078
  37.2248244  64.8638773  40.9921503  22.0900822  17.5526536  30.8379030
  22.1170783  18.3077955  30.2503133  22.9560995  17.5350654  31.2452579
  32.2320509  11.9945824  53.9627934  32.7658653  11.4187670  54.5102501
  32.3397827  11.6498268  53.0763531  28.8275194  71.8758726  50.8253288
  29.2681217  72.6966906  51.0452271  28.9909053  71.7596006  49.8893690
  75.2148342  45.6143045  10.8885062  74.3513584  45.3458023  11.2024367
  75.8046341  45.4244518  11.6181076  33.3659554  62.5217628  38.3519888
  34.2365980  62.6766157  38.7183690  33.0049467  63.3974648  38.2139921
  64.5986032  71.9592667  22.2805858  64.1005421  71.7263508  21.4970589
  64.9370718  71.1251354  22.6059961  42.1395302  69.7347307  44.4204760
  41.7740965  69.6563387  45.3016949  43.0874300  69.7092342  44.5511293
  50.3982639  33.9828682  12.8425324  50.5330896  33.1312013  12.4269402
  51.1081696  34.5291162  12.5050724  29.9559927  18.8144016  34.0164495
  29.4668341  18.5972703  34.8100543  29.6703506  18.1650293  33.3738327
  22.9984283   8.8850653  28.9252043  23.3984971   9.2854857  29.6971130
  22.5755763   9.6130508  28.4697223  54.7436905  35.7511711   4.8999342
  54.3913126  35.2671027   5.6467533  55.2911186  35.1153779   4.4391474
  77.1180630   7.4488759  22.0983577  77.4377155   6.7542809  21.5225172
  76.2942410   7.7299303  21.7001629  35.3806472   5.9581256  61.8051243
  35.9995151   5.2404648  61.9400215  35.0857830   6.1888957  62.6860476
   5.3167754  23.6518073  28.2442808   5.9330446  22.9309344  28.1147099
   4.6019650  23.4683228  27.6346827  37.3111868  25.6116986  35.7045627
  36.5022826  26.0485554  35.4379892  37.9000664  25.7217479  34.9580073
   6.3536114  33.0767441   5.6343263   5.9191567  33.2351708   4.7962439
   5.6821531  32.6647949   6.1780864   4.0925872  52.0561838  39.7278023
   3.3632264  52.4505281  39.2495155   3.6773872  51.4453363  40.3366566
  21.1344886  22.0839572  23.1338573  21.8718624  21.4785933  23.2116103
  21.3402081  22.6143837  22.3640800  28.5073590  62.8731012  62.9164457
  28.4498620  61.9995499  63.3035326  27.6276731  63.2372570  63.0153131
  55.1253557  42.9815960  13.2166791  55.1804590  43.7866926  12.7018785
  54.5295143  42.4203396  12.7204978  37.4005055  20.0687265  51.5781689
  37.5862432  20.7445598  50.9262609  36.4466023  20.0682449  51.6575670
  16.9387221  63.8603067  60.9156847  17.1816707  63.7314987  61.8325377
  17.6461911  64.3934298  60.5530643  75.2741861  13.1326544   3.3187029
  76.0848570  13.5214067   3.6472100  74.7548723  13.8788950   3.0192545
  29.7050524  47.2937441  15.2204776  30.1996326  47.8470755  15.8249962
  29.9530244  46.3998652  15.4565442  10.7775187   7.6692092  25.2847528
  10.5728757   7.5052190  26.2053299  11.7144787   7.4875689  25.2116418
  20.8448887  28.7323785  29.0546083  21.2232685  29.5676875  28.7801719
  21.5940094  28.2166052  29.3529820  39.0698814  15.9660900  60.6458759
  39.6104050  16.6304374  60.2184343  38.3467960  16.4589179  61.0338211
  14.5386219  60.2977037  19.3115997  14.9592400  61.1259842  19.5423913
  13.9156961  60.5292082  18.6226857  71.4532900  62.9667997  11.9336784
  72.2966862  62.5583601  12.1288550  71.5346766  63.8582087  12.2727966
  70.0625801  46.3567066  17.2387385  70.1419687  46.6423035  16.3285947
  69.7831488  45.4431152  17.1795774  71.4814997  44.4004393   9.0370941
  71.6265202  45.1776075   9.5767325  70.9690714  43.8143587   9.5940137
  54.3536520  62.7538872  57.1873522  53.8381767  63.3610392  57.7182817
  53.9359522  61.9033289  57.3226595  57.4954700  19.1508853  44.9802399
  56.7620707  19.2061222  45.5928612  57.0908594  19.2192948  44.1154623
  39.6253991   2.3970066  35.1323104  39.4834089   3.2109740  34.6490622
  40.1889515   2.6481378  35.8641410  74.7426224   5.4015023  45.0408936
  74.7137213   5.4923642  44.0884542  73.9892817   4.8499510  45.2518463
  49.8149729   9.8303819  38.7238646  49.2886877   9.5836639  37.9633498
  49.4484186  10.6679678  39.0072632  44.0840864  66.6046238   3.1193653
  43.3821487  67.1858883   3.4120223  44.8557281  67.1685600   3.0666900
  25.9399271  17.3173308   2.4849896  26.8664813  17.0777428   2.4669190
  25.4756260  16.4860237   2.3870856  23.6465836   7.9410243  34.7041631
  23.9548731   8.4396213  35.4608607  23.5723996   8.5895687  34.0040779
  33.8123512  16.2931275  63.8581753  34.2081308  15.7021034  63.2176447
  34.5327067  16.8560469  64.1417933  10.2238262  42.5918818  64.0014553
  10.8002818  43.2868814  63.6838007  10.8157349  41.8744469  64.2276525
   7.6614380  64.7946072  36.6280627   8.4460717  64.6896029  37.1661663
   6.9377005  64.5734262  37.2141623  46.6945601  67.1143627  59.0986061
  46.5024424  67.4679279  59.9671173  45.8601332  67.1592951  58.6317635
   6.5691537   9.4854337  28.2475781   7.3848403   9.4128013  28.7431693
   6.3564861   8.5847729  28.0030060  12.3556709  35.9452605  55.9720993
  12.1376431  36.8134737  55.6331253  11.5557396  35.4334617  55.8520842
  65.2883196  60.9201050  42.6920509  65.7098436  60.4135323  43.3862686
  64.5886612  60.3510141  42.3713684  28.6824155  43.5476923  17.2959971
  28.0855250  44.0799189  16.7699873  29.4378567  44.1152811  17.4489081
  60.2454042  59.7571468  54.4260550  59.6289921  59.9388266  53.7166452
  61.0719585  59.5670176  53.9823341  22.3184204  34.5838118   4.0216812
  22.5116086  33.7645364   3.5659426  23.1421900  35.0707436   3.9985779
  76.2978506  65.2309275   3.3044347  77.0655251  64.9893713   3.8226616
  75.6539488  64.5497417   3.4983665  72.0778561  72.3570728  58.1852961
  71.9260073  71.4143419  58.1186914  72.8126955  72.4389505  58.7931919
  64.3348837  62.7624464  12.6892328  64.1872215  63.7054014  12.6166856
  65.2070713  62.6273870  12.3187149  38.4116149  18.9430118  48.0966520
  38.1039190  19.6558845  48.6564445  37.6146698  18.5832882  47.7071524
  57.1373940   1.2597589  62.0422554  57.5121307   2.0599055  62.4104548
  57.8716040   0.8322918  61.6013002  55.9219170  59.2843676  61.5762091
  55.9414768  60.0876570  62.0963812  55.4844427  58.6453295  62.1387672
  78.3412218  24.3377519  39.2568779  77.8276396  23.7869430  38.6660528
  78.0045033  25.2221608  39.1130996  12.5289917  63.1047630  26.3023281
  12.9926217  62.6247358  26.9885159  12.5294042  64.0133333  26.6035390
  54.5541620  34.9826097  63.4610653  54.5111609  34.0486860  63.2557058
  55.4322767  35.2478051  63.1875467  71.2530041  65.8642387  60.9709167
  71.8455124  65.2184010  60.5861235  71.0051632  66.4283037  60.2383614
  63.2773018  38.7889886   4.1256216  63.9904594  39.1013551   3.5687888
  62.7793550  39.5773554   4.3418515  61.5962934  66.6820383  19.8306966
  61.0095882  66.6388845  20.5857778  62.4611712  66.8422651  20.2082491
  51.9277048  14.4936836  56.9275904  52.3137522  14.8162210  57.7419424
  52.0080566  15.2269244  56.3175631  42.1243477  65.1340485  30.3123188
  42.0644093  65.9993315  30.7171965  41.5383577  64.5848227  30.8330917
  46.0125399  14.5734942  30.5497408  45.4604530  14.2054582  29.8598266
  45.7773256  15.5009866  30.5754972  66.5352154  64.1410160   5.0011790
  67.1401644  64.5506144   4.3827146  65.8128595  64.7643232   5.0781131
  35.4489684   3.1191403  47.9931831  35.1297998   3.5546368  48.7835693
  35.0466824   2.2509637  48.0190325  22.9108262  10.4390180  39.6708202
  22.0525765  10.0937998  39.9167156  22.7573824  11.3700521  39.5100021
  24.0696597   5.5187970  60.1269245  23.5735774   5.7562101  59.3434906
  23.6853504   4.6896586  60.4116488  23.9676404   9.8479611  58.5076332
  24.1033053  10.7287693  58.1583405  23.0208468   9.7150826  58.4611797
  76.0911846  26.2159252  33.7254667  75.9664583  26.8721247  34.4110870
  76.1262417  26.7215943  32.9134917   5.5284977  21.6022539   1.2774996
   6.3377553  21.6436791   1.7870273   5.6442076  22.2585797   0.5904179
   8.5006261  66.6743422  49.7816753   8.9110398  66.6577721  48.9170837
   7.5741440  66.5055609  49.6102810  61.9526100  25.1238966  33.4690785
  61.1392117  24.8038888  33.8592172  61.9623709  24.7442937  32.5904226
  73.4460640  68.6232424  12.8668010  73.7026644  68.1649637  12.0665717
  74.2189884  69.1332817  13.1090462  68.2466984  34.2109346  62.2327995
  68.6223316  33.3478045  62.0591927  67.7969408  34.4441652  61.4206696
  20.3017259  52.2052288   7.5154752  20.5025482  52.7898169   6.7846131
  21.1413527  52.0761251   7.9566020  20.4552507   1.6119616   6.6010582
  19.6061504   1.3927150   6.9847143  20.8476758   0.7652628   6.3881350
  21.7276216  15.6874800  36.8690109  22.6634669  15.6135309  37.0559812
  21.6634250  15.5768585  35.9203959  34.9627662  67.7819347  10.3614736
  34.2140126  67.3291969  10.7495892  35.7046843  67.1987724  10.5218303
  21.8575144  10.4341233  55.5218935  21.6147852  10.4751754  54.5968914
  21.7239380  11.3254213  55.8443499  41.4653158  19.9449027  53.2742357
  40.5825186  19.6057260  53.4220839  41.9336796  19.2207587  52.8589201
  62.4114132  64.4788122   9.8348868  62.3031807  63.5308647   9.9118233
  62.3989439  64.6455908   8.8924116  25.6614304   3.0925691   8.8811129
  25.2375984   3.4816334   8.1161118  26.0837674   2.3021451   8.5448200
   0.3928220  29.8803377   1.9829459   1.0073115  29.1970301   2.2507662
  -0.4671979  29.4635725   2.0368429  26.4343596  65.4649115  59.6600485
  25.9106350  65.0262499  60.3305101  27.2638226  64.9872303  59.6534920
  76.6823626  61.3121796  52.5352049  77.4270821  60.7907677  52.8347874
  76.8621397  61.4768028  51.6095638  32.4717426  72.5223446  11.9185019
  32.6436257  72.9486084  11.0788667  33.0683494  72.9516888  12.5316525
  77.9141712  35.1336002   6.2671566  78.8694859  35.0764418   6.2487239
  77.6344347  34.3286180   6.7030245  71.7409229  51.2808514  27.7115130
  71.2583208  50.9527493  28.4702444  71.1576748  51.9306803  27.3193717
  39.6782327  65.5116987  32.7712274  39.9349236  66.1425400  33.4438181
  39.4942570  66.0465002  31.9989753  40.9397459  49.6907234   0.5661013
  40.3213882  49.0784168   0.9647784  41.7554808  49.5552778   1.0482439
   8.0270123  10.9490979  17.1114171   7.7407807  10.1680791  16.6377997
   8.8331723  10.6801093  17.5518525  19.5153677  18.8349485  62.5488472
  19.5803952  19.4086337  63.3123159  18.8517642  18.1888568  62.7905655
  70.4555559  42.9455948  26.7882299  71.0395527  43.2362700  27.4887180
  69.6483564  43.4405518  26.9285202  64.1985559  70.3788376  26.8712330
  63.7066650  69.5581818  26.8430233  64.9479961  70.1895905  27.4358177
  10.3683376  10.0939786  18.2978618  10.2649319   9.1425407  18.2803953
  10.7176590  10.2809799  19.1692042  60.2082920  37.0440483  19.5869339
  60.2047205  37.9976869  19.6693397  59.3820953  36.8383431  19.1495299
  62.7336836  60.1667023   9.6571743  62.6933670  59.3544674   9.1523206
  63.4762287  60.0444317  10.2487087  23.4960985   5.8838129  53.1992292
  23.5885191   6.2038577  52.3018646  23.0202246   6.5790021  53.6536407
  16.4767361  10.4019928  44.1996861  15.7166171  10.1143444  43.6940098
  16.1493528  10.4905629  45.0947905  77.5292683  70.4472685  29.8308802
  77.9673100  71.0136414  29.1956043  77.2654819  71.0378885  30.5364394
  75.7962370  16.3581944   7.2887611  75.0927496  16.7270935   7.8228480
  75.8744192  15.4523838   7.5881374  76.0968208  60.6668615  15.9228051
  76.9867468  60.6123638  15.5745387  75.5778790  60.1103020  15.3421402
  21.6228199  17.7713394  42.0424128  21.1356378  18.5945642  42.0768642
  21.4914179  17.4524510  41.1495113  15.1185691  20.2086377  48.3271742
  14.2001033  20.4776073  48.3096266  15.1655161  19.4764829  47.7123737
  14.7012055  65.5507517  60.7894850  14.2030573  64.8327017  61.1799717
  15.5470312  65.1620150  60.5665588  72.9962921  21.1337566  21.3152385
  72.1910000  20.8023620  21.7126226  73.1036758  22.0095539  21.6862917
  60.9346151  64.1862154   1.8422627  61.8154573  64.4628286   2.0949212
  60.4759359  64.0594149   2.6727843  15.8946884  58.9545918  51.0707092
  16.7746782  58.9584398  50.6940985  16.0047925  58.5530758  51.9326210
  55.4773617  65.5100632  44.0405798  54.6426201  65.9268808  44.2543697
  55.2717924  64.5768547  43.9849901  46.9674301  15.3429711  50.9375238
  47.0266390  16.2929273  51.0390615  46.3073111  15.2155995  50.2561665
  65.1771927  53.9345455  11.8497741  65.9696579  54.3147945  12.2287750
  64.8066330  54.6367550  11.3151574   6.6255850  67.9453564  27.8487349
   7.2084761  67.8800392  28.6051774   6.8218243  67.1670485  27.3272347
  26.4799118  31.6319990  29.3399215  25.5851722  31.3000417  29.4139457
  26.5485454  32.2915673  30.0302076  30.6254649  11.6469538  45.9867811
  29.8700619  12.0256126  46.4364672  31.0730076  12.3977315  45.5965614
  18.0228269  17.6273227  18.2054913  18.4187376  16.7944813  17.9488587
  17.5879657  17.4395680  19.0372813   8.4380597  17.0033050  53.1062937
   8.4613168  16.1855507  53.6032581   7.6910609  17.4813080  53.4664869
  50.9173584  18.1294632  34.4196486  50.1501560  18.0346417  33.8551664
  51.2479830  19.0072811  34.2289805  58.7980366  24.5998573  61.7152023
  59.6037340  24.7191954  62.2180414  58.7009144  23.6505556  61.6401911
  65.9702682  69.7821856  32.3518801  65.8833647  69.4446230  33.2433581
  66.9138527  69.7949553  32.1915269  55.4517365  58.5029936   9.5475978
  54.7557068  58.6053705   8.8985252  55.6939077  57.5784159   9.4952893
  66.9488096  57.6916790  33.9607930  66.3199091  58.2340384  33.4848142
  67.3522043  57.1449900  33.2865238  75.3811789  45.2726078   8.2452822
  75.7959986  45.0260592   9.0719438  74.4471502  45.1234579   8.3921623
  41.0216331   7.9733199  53.5713148  41.0418224   8.8019907  54.0499926
  41.2067223   7.3088115  54.2349434  65.8733988  29.4199586  34.3453789
  66.4498711  30.1368546  34.6098995  66.4679861  28.7009978  34.1313863
  44.9438572  26.0487223  40.1163626  44.0252209  26.1912656  39.8882866
  45.0841093  26.5887308  40.8941460  47.2806025  17.5472832  59.8013687
  47.7212000  17.5783515  60.6505680  47.7128506  18.2255042  59.2823172
  69.1810656  15.6831300   4.5382679  69.5479727  15.8667314   5.4030806
  68.2639790  15.4677773   4.7079757  73.8549662  52.1494818   8.3540857
  74.0599298  51.2145758   8.3407998  73.8570309  52.4082565   7.4325305
  47.5856161  65.2440739  57.3947906  47.0882416  65.8756828  56.8752432
  47.3981428  65.4806614  58.3031464  73.5974741  64.5777988  57.0357656
  72.7365112  64.2006540  57.2166681  73.4490252  65.5234146  57.0333624
  74.1552830   7.0634699  15.8221221  74.7315645   7.5061530  16.4451504
  73.4239340   6.7493576  16.3538074  36.9352388  18.7897813  31.6202569
  36.8401551  18.3654940  30.7675147  36.6669917  18.1219208  32.2513175
  17.0506489  49.1802883  26.2507868  16.2692714  49.0474081  26.7874670
  16.7560673  49.0182209  25.3545785  18.1300688  21.8965030  55.4083681
  18.2484210  22.8010106  55.1183844  18.9559245  21.4648390  55.1895952
  59.9829197  44.7703838  19.9725294  59.6204901  45.4039860  19.3533170
  60.5294609  45.2939129  20.5585718  60.5882692  55.3239155  14.9768901
  60.6760502  55.5391836  15.9054291  61.4881706  55.2924061  14.6522141
  65.5769777  11.9000649  22.4175692  66.2003565  12.1286404  23.1070495
  65.8791876  12.3864841  21.6505623  61.4552736  42.6531887  41.6545057
  60.8260870  42.3265171  42.2976589  61.0624599  42.4433994  40.8072090
  17.6311171  15.3299010  29.1141558  16.9906986  14.6187997  29.1348672
  18.1754076  15.1398611  28.3500457  78.7001133  42.2921753  22.9890251
  79.2649031  41.5480328  23.1975842  77.9347420  42.1772099  23.5522485
  73.4074354  60.1615572  10.8856356  74.1183186  59.5205736  10.8813906
  72.6255035  59.6534586  10.6696439  23.6385441   0.6564775  51.4412785
  24.2679715  -0.0263944  51.2094593  24.0282512   1.4646372  51.1077547
  55.5868864  53.7729549   1.2513867  56.4941263  54.0318727   1.0897997
  55.5524778  52.8503513   0.9987012  53.7544870  52.5051308   7.1014166
  54.1169786  51.8101931   7.6508671  54.4039631  53.2070208   7.1434271
  22.8501701  61.0188866  33.2046890  22.4804473  60.8646965  34.0740347
  22.4871469  60.3186321  32.6623869  19.3406105  64.7868443  36.8393087
  19.6168303  65.1258421  35.9878302  20.0611639  64.2213011  37.1171474
  41.1394691  17.5836074  41.0411024  40.8841228  18.2066047  41.7214775
  40.3822136  17.5431228  40.4570150  69.6913242   6.8353927  48.3546209
  70.2769852   7.0782554  47.6375055  70.0622559   7.2679383  49.1237402
  45.0516469  72.6062390   9.4948500  44.9067313  72.8734204  10.4025090
  44.3639285  73.0527842   9.0010184  65.6512499   3.8179612  52.1927166
  65.9015465   3.9060098  51.2730265  64.6973276   3.7408283  52.1750021
  51.3031578  44.5958233   4.0516767  51.5693903  45.3531361   3.5303110
  52.0603704  44.0107489   4.0282238  18.3773768  67.1889448   5.4755783
  18.4829950  67.1457815   4.5252025  18.1810498  66.2889767   5.7358634
   0.2687029  22.5026989  44.8545551  -0.6186178  22.8328967  44.7136211
   0.3721241  22.4924350  45.8060932  23.3263683  12.9302084  14.7501135
  24.0526795  12.8522682  15.3686821  23.6528611  13.5198200  14.0704131
  57.0573425  43.3324766  15.1413763  57.3940039  42.5305986  15.5412292
  56.4719391  43.0270433  14.4483769  25.2667308  10.5588675  54.6472073
  25.5187011  11.4820158  54.6704245  25.7819104  10.1523793  55.3440523
  24.8895741  61.8923092   3.5095859  25.5240369  62.4950504   3.8973892
  25.1516962  61.0294867   3.8306081  68.4663486  59.3587112  19.1660333
  68.0586767  60.1858330  18.9093173  69.3791389  59.4462061  18.8914561
  31.5380263  56.8724489   1.6814339  32.1759176  57.5827169   1.7510676
  31.9610190  56.2250853   1.1173160  33.0025077  39.5935392  58.1093502
  33.9332891  39.8114872  58.1580925  32.6007247  40.3521919  57.6859808
  58.3463907  28.1561112   5.3750122  58.8977098  28.9183807   5.5517203
  58.5612345  27.9084396   4.4757161  49.2868382  18.8629158  63.9814055
  49.9990756  18.3528765  64.3671625  48.4941489  18.3761080  64.2070096
  76.1489058  66.0086012  50.5209732  75.8503962  66.5270424  49.7737455
  75.3496122  65.8080435  51.0079432  69.0852547  13.0321705   5.7829368
  69.7876835  12.6236558   5.2770323  68.4817028  13.3730638   5.1228255
   6.9151700  24.4517064   3.5447565   6.5592289  25.2091360   3.0801761
   6.3688910  24.3719292   4.3267071   1.4877887  17.9389119  14.2307401
   1.4678600  18.5462034  13.4911239   2.3533618  17.5329161  14.1840303
  48.8491058  63.9776325  11.9794226  49.5203114  64.4719982  12.4498737
  48.3502054  64.6426821  11.5050423  43.5753012   2.8457382  58.4265423
  42.7977896   2.4686497  58.0148268  44.1115141   3.1483185  57.6936340
  36.6101551   2.2650328  18.3427739  37.3374510   2.3965044  17.7345073
  36.6006470   1.3216253  18.5044026  47.6683426  71.8620396  10.5945730
  48.3714628  72.4313402  10.2819204  46.8642569  72.2947025  10.3073871
  70.8788157  16.0778880  40.7085752  70.1357555  16.5162957  41.1231709
  70.5777407  15.1807392  40.5646706  17.8404558  38.3381820   2.0439994
  17.2498798  38.6462855   2.7314034  18.5229802  37.8574872   2.5123203
  53.4724092  27.9745412  43.0892324  53.3845472  28.5497189  43.8492870
  53.5776806  28.5712314  42.3482132  11.0771406  68.6038113  19.1222298
  11.5577853  67.7815342  19.2174745  10.7983696  68.6136150  18.2065749
  53.2594013  62.7587605  30.7307601  53.4504509  63.6965275  30.7487464
  53.4046936  62.4674177  31.6308951  35.4912424   3.0363116  10.3449941
  36.0815692   3.7630329  10.5440497  34.6531796   3.2969710  10.7270133
  35.0414801  38.3749866  63.4684563  35.3622317  39.0270758  64.0914536
  35.2796793  38.7260246  62.6103973  49.0112925  39.7676039  63.1880760
  49.5012665  40.5613899  63.4027004  49.4727135  39.0686536  63.6515284
  56.0676575   1.6966672  58.2500410  56.8767738   2.0363124  57.8676748
  55.3789616   2.2535245  57.8869438   2.7755010  48.6598825  13.9827681
   3.0849120  48.0863905  14.6839130   3.4906709  48.6677265  13.3466053
  27.2375059  49.2157602  14.3272233  26.2977314  49.3814135  14.2522955
  27.3139811  48.5923481  15.0495410  18.9681888  42.9153395   4.7173953
  19.5903218  42.4118280   5.2424312  19.0509856  43.8118601   5.0423932
  61.5277386  24.6149826  41.4350986  61.0791922  25.4589367  41.4878416
  60.8489180  23.9701176  41.6340542  46.1576748  14.8339450  61.3866043
  45.7997561  14.2483807  60.7193375  45.4601765  15.4697061  61.5464020
   0.9128383   1.2833185  38.2053852   0.6797338   2.2116643  38.2136416
   0.9780663   1.0445178  39.1300201  40.6770992  34.7150779  62.7866364
  40.2622461  34.9916816  61.9695568  41.4014435  34.1540384  62.5095272
   3.8291866  38.6233902   6.3704205   3.8031158  37.9220819   5.7194829
   4.4407171  39.2642403   6.0076898  14.4371152  17.8219771   7.8506476
  14.6655405  18.6200678   7.3740929  14.8006010  17.9535580   8.7263161
  63.6785841  61.5315390   1.3668120  62.9038286  61.4556265   0.8098393
  63.6773014  60.7296515   1.8895061  69.6187019  71.3148355  17.9957414
  70.2682686  70.6203222  18.1050539  68.8167095  70.8556080  17.7464318
  49.6560383  35.3417802  58.6352348  48.8604927  34.8113203  58.6794138
  49.3489456  36.2139010  58.3875847  40.6571388  41.8000317  61.4195633
  41.6074944  41.6863060  61.4304018  40.5178976  42.6047802  60.9203339
   4.3147621  56.1424923   7.5244039   3.8372916  56.0279846   8.3460742
   4.5368955  57.0733404   7.5041872  50.2349663  29.2143583  47.5623798
  51.1490011  29.0882063  47.8170538  49.7335052  28.7467456  48.2302904
  48.8464069  52.1455956   9.7621697  48.8281536  51.2696886   9.3765664
  48.8111830  52.7385187   9.0115488  45.6316328   7.1964741  57.9985476
  44.6999931   7.3308921  57.8247309  46.0420513   8.0278492  57.7606344
  57.1206713  42.4613428  41.5903139  56.9022083  41.6973305  41.0566521
  56.5839577  42.3653555  42.3770475  30.8354664   1.5126632   0.6650074
  31.4584351   1.1687355   1.3052079  30.0517654   1.7126223   1.1769265
  54.4421673  26.4253068  62.0425129  53.9654636  26.8709898  62.7427626
  55.2535248  26.1297870  62.4555492   7.3470271   0.8244430  41.9350100
   7.1484667   0.6354068  41.0179090   6.7540663   1.5394798  42.1659899
  52.1802282  11.6629016  35.6141734  51.8924475  12.3388076  36.2278223
  52.2298002  12.1112883  34.7699428  67.2172022  55.9814644  13.3529902
  66.9788504  56.8878937  13.5474253  67.9774189  56.0522795  12.7756774
  62.7612686  72.2637892  39.9003506  61.8956375  72.1567631  39.5060730
  62.7810764  71.6239738  40.6120205  32.9877043   7.7424878  58.1976843
  32.4892044   8.5592270  58.1718349  32.5529599   7.1762544  57.5600243
  51.7898989  31.4583588  64.4455147  52.5074196  31.8752384  63.9684391
  51.1299038  31.2782335  63.7760448  59.0719461  19.6149087  52.8994799
  59.1384840  18.9529550  52.2112751  59.3530083  20.4272699  52.4784040
  17.7249444   5.4193443  15.6365466  16.8184102   5.1669627  15.4612482
  18.0660009   5.6939071  14.7853553  47.2885609  17.1772778  45.7280159
  46.6917086  17.5582922  45.0839376  46.8143225  17.2348368  46.5574837
  21.0262203  38.2813263   3.1073314  21.9398570  37.9960585   3.0962291
  20.7663083  38.2168055   4.0263063  17.1691060  22.4593520  49.8029470
  17.9201531  21.8682170  49.7508049  16.4160144  21.8801022  49.9193573
   2.6036531  28.0443239  22.6088333   3.1536046  27.4081421  23.0660653
   1.9836926  28.3459806  23.2728243  77.7699566  25.1158810  11.9500923
  78.4099007  24.4250679  12.1217763  76.9383717  24.7532821  12.2554183
  75.0752354  18.1394947  52.8119946  75.2998257  17.4094605  52.2350693
  75.2223921  17.8008938  53.6951256  45.3174210  11.8691242  46.3404274
  45.5092716  11.2732077  47.0645189  44.4013596  11.6956091  46.1237192
   3.3389771  47.3880434   3.9281759   2.9856706  48.2291889   3.6385533
   4.1156995  47.2546768   3.3849019  72.8634834  58.3188725  29.6739435
  72.6906109  57.6999760  30.3833914  73.0165625  57.7672005  28.9068341
  63.1264067  41.5542793  43.7096643  62.8913212  42.4446297  43.4484291
  63.7834454  41.6715765  44.3957901   3.3011514  67.3620605   0.5824735
   2.6885360  66.8195486   0.0858699   2.7683589  67.7517796   1.2756425
  26.9119310   1.9543096  38.1585145  26.0057187   1.7469534  38.3865786
  27.1303940   2.7080312  38.7066102  46.6728735  38.8637519  52.1390867
  46.9742775  39.4715333  52.8143597  45.7408857  38.7451649  52.3222971
  25.9599328  48.1175089  59.9538469  26.5801549  47.5615406  59.4821930
  25.2065945  48.1869555  59.3674231   8.8714850  56.7670631  60.1144981
   9.8085463  56.6847658  60.2916241   8.5907418  57.5090265  60.6501341
  64.9796343  56.4006662  44.5906210  65.1204014  55.5331230  44.2114353
  64.6614933  56.9322443  43.8609314  68.7039042  35.6963325   7.7803254
  69.6599245  35.7198191   7.7389932  68.4814024  34.7736478   7.6563293
  74.8798609  17.6199853   4.1631120  75.1262665  18.4819281   3.8275969
  75.6149578  17.3599756   4.7183192  73.6127806  69.7977781   7.4879736
  74.2667055  69.1153955   7.6395065  73.7062788  70.0175095   6.5610379
  20.7197714   3.0075508  10.3819895  20.2679944   3.8505906  10.4196072
  21.4827156   3.1692234   9.8270041  57.2028351   9.6147305  55.8800268
  56.3294983   9.7215521  56.2569952  57.6477146  10.4410708  56.0683680
   0.6220588  52.3213577  35.8236837   1.2314141  52.8985834  35.3635430
   0.6816054  52.5917435  36.7399669  67.6919699  58.6341953   7.5591624
  68.1521988  58.1628752   8.2536238  68.2859612  59.3449116   7.3177415
  65.4319668  59.5216084  11.2162304  65.3195238  58.5783482  11.3339138
  66.2560701  59.7217941  11.6600895  63.6333466  11.5804172   8.7035328
  63.5183334  12.1579170   9.4581842  62.7794647  11.5786386   8.2709628
  27.4998808  43.9216805  32.0813417  27.5040388  43.0527067  32.4827099
  27.6041007  44.5256233  32.8166127  72.7268171   8.0135179  13.5428786
  73.4892178   7.9044187  12.9744864  73.0338335   7.7465034  14.4092929
  52.4501419  13.3898604  44.4633245  52.1065521  13.1372917  45.3202868
  53.2421398  12.8627205  44.3579769  24.8806763  11.1289442  36.5264606
  25.7442570  11.1047423  36.1142993  25.0309563  11.5499794  37.3728514
  74.6938229  59.5315313  53.5163546  75.1519728  60.0985622  52.8960276
  73.7962246  59.8638678  53.5267830   8.0151552   6.8259668  10.1196051
   7.7226031   6.4835292   9.2749858   8.8030076   6.3216752  10.3226089
  39.5357776  39.4300032  60.3525925  39.8268461  40.2350426  60.7808733
  40.0792456  38.7432241  60.7388639  39.8787832   6.1187088  15.2502656
  39.9528980   6.6450542  16.0463178  39.0829825   5.6023097  15.3778005
  49.3929434  18.6466777  46.2343311  50.1185942  18.0909061  45.9501171
  48.6192036  18.0884767  46.1570311  54.3532181  58.8905287  22.0734119
  54.0857506  59.7926903  22.2489023  55.0948763  58.9728975  21.4739227
  12.4646747  10.9624839  41.5536356  12.8927338  10.3657341  42.1675444
  11.5324557  10.7606339  41.6339874  67.2090721  41.3297510  49.9844980
  66.5563869  42.0099831  50.1503944  67.4009943  40.9660673  50.8488655
   0.3147818  70.3682566   9.4252646   0.6832139  71.0982656   8.9276934
   0.4424406  70.6142521  10.3414631  30.9479976  15.7144260  14.4516182
  30.3437996  16.1467934  15.0551379  31.5945268  15.2950931  15.0194144
  13.6935031  15.1456583  11.2430775  14.4836092  15.4670727  10.8087325
  13.1089115  15.9031928  11.2680662  23.7121916  -0.0468754  61.2214231
  23.2948995  -0.1669538  62.0744658  24.5309687   0.4086053  61.4173126
  54.8760033  28.7867379  49.7755575  54.8272562  28.2424021  48.9897108
  55.1357889  29.6498251  49.4533443  32.6725268  16.5745831  38.9463615
  33.5709310  16.8923879  38.8563395  32.2363567  16.8586648  38.1430650
  55.5122328  54.9146271  11.0226297  55.8375406  55.3858519  11.7896748
  56.0075188  55.2797222  10.2893984  69.8846722  66.0629606  43.6450291
  70.0056553  66.7207432  42.9602480  69.9676991  65.2251101  43.1896734
  28.4267761  41.8552916  62.9929757  28.2856098  41.8947901  62.0470668
  27.8524454  42.5330566  63.3493605  60.4324722  22.8284764  44.2947435
  60.1824522  22.5631642  43.4096813  60.0836992  23.7151384  44.3865108
   2.1680570  73.5810232  33.4521341   2.3378615  73.4650803  32.5172782
   2.9643351  73.2674360  33.8808966  48.0358315  47.3120642  62.5124359
  47.2423267  47.7582455  62.8082466  47.9232168  46.4064598  62.8012753
   5.5665106  50.2912951   4.1731855   4.7640455  50.7025528   4.4943529
   5.9922123  50.9717560   3.6516666  12.7578533  33.3075070  62.4797773
  12.5096560  32.9592156  63.3361197  12.7606034  34.2572331  62.5991249
  54.4210052  37.0123768  47.7783394  54.9310732  37.7663779  48.0742121
  54.0390635  37.2930264  46.9467211  54.8670292  21.1770415  49.2276907
  55.2158117  21.0678816  50.1123762  53.9227915  21.2722111  49.3525553
   7.5300390  62.0245457  38.9397454   7.3733687  61.8906736  38.0049896
   8.4439373  62.3043919  38.9917541  34.0829992  13.9057791   4.5833805
  34.7661161  14.5511651   4.4015577  34.1198635  13.3024335   3.8411906
  42.4187899   3.0194980  48.2192898  42.1629429   2.8126344  47.3204136
  43.2116365   3.5478216  48.1270838  62.9468012  64.6424770  16.3329530
  63.2376719  65.4597473  15.9283626  63.7569427  64.1856670  16.5592802
  16.5262592  55.7588959   3.4559053  16.3225424  56.6308498   3.7941727
  15.9002638  55.1806307   3.8917610  49.3387747  58.2689095  12.0058632
  49.0415955  59.1520071  11.7866492  49.9426031  58.0373287  11.3001740
  44.2505032  73.7777531  27.1657038  45.1012046  74.0776453  26.8453932
  43.7175567  73.6820181  26.3763809  59.0578938  50.3868675  12.9087007
  58.6577988  50.8698940  12.1856225  59.7804308  49.9061680  12.5048518
   6.2450993  60.7413816   7.0308602   6.9105244  60.1032257   7.2881496
   6.5564716  61.0882425   6.1948180  23.1454539  12.3416317  34.5345902
  23.2185817  11.9664502  35.4121566  22.2155857  12.5475895  34.4388843
  78.0376053   5.1930314  20.8836579  77.4771738   4.7208422  20.2678776
  78.5751724   4.5124066  21.2886333  57.1925020  48.9216852  16.8335915
  57.8531408  48.8308287  16.1469102  57.1348095  49.8647213  16.9871747
  67.8350344  18.4858282  62.9329924  68.1768086  18.9141281  63.7178376
  68.3078709  17.6547535  62.8885041  51.5405464  17.8289700  44.5798016
  51.4092588  17.0098472  44.1022778  52.4902010  17.9480028  44.5946264
  56.3651657  22.7370596  44.8391008  56.8591738  22.2593999  45.5054569
  55.6741238  23.1841087  45.3278112  72.9557180  72.2067595  50.7498217
  72.5057936  71.3722229  50.6181049  73.7415028  72.1435261  50.2068901
  68.1212282  72.8947592   3.2572627  68.9225912  72.4269915   3.0222249
  68.0504227  73.5914612   2.6047140  75.2132940  15.3583503  22.2048044
  74.6705341  14.5769119  22.0999432  76.0445356  15.0285769  22.5461555
  29.3777490  12.1290410  59.2695141  29.6275759  12.0368516  60.1889277
  28.8374233  11.3596296  59.0898323  67.7143717  36.5438008   0.3509289
  67.8000355  37.4018955   0.7663432  67.1705961  36.0383916   0.9551662
  52.6962185  33.6457372  41.7785740  52.3241663  34.4434333  42.1547270
  51.9513750  33.0503941  41.6948891  60.2547979  21.0121846  63.3930492
  60.9804726  20.7520437  62.8256369  60.5058670  20.6987143  64.2619133
   9.5104074  42.8262949  46.0997677  10.0064039  43.3545160  45.4743052
   9.0199995  42.2094202  45.5564547   8.9410269  43.7279129  23.0758762
   8.3329576  43.1623030  22.5998831   9.6221566  43.1345606  23.3924627
  51.6658020   3.9211905  35.2970862  50.9240198   4.4768855  35.5362463
  51.2672472   3.1510025  34.8918724  46.8020678  29.4033623  49.2409801
  47.0660782  30.1458025  48.6975527  47.5074625  28.7652683  49.1337776
  46.0375547  12.3270488   4.1853690  46.5627909  11.8321609   3.5565272
  46.6807365  12.7507639   4.7537079  21.4946914  38.5488605  18.2195151
  21.3566685  38.0902553  17.3907435  22.4100018  38.8273335  18.1896126
  44.0011120  38.4853363  53.4015989  43.1419086  38.0789757  53.2881498
  43.8246822  39.4260526  53.3890676  55.5283737  62.4130058   1.0629811
  56.0621929  61.9003439   1.6699752  54.6361351  62.0953608   1.2016800
  74.7294283  36.3263702   9.5512861  74.7767925  35.3870273   9.7291201
  74.9848747  36.4093804   8.6325431  36.4935231  12.5671840  41.9633818
  36.2799358  11.8373740  41.3820124  36.9729233  13.1827497  41.4088631
  40.5316782  19.1789520  43.0995703  41.2048483  19.8218882  42.8766251
  39.9175692  19.6582341  43.6558008  57.1256924   5.0147986  56.9507647
  57.2007132   5.8856505  57.3409176  56.3473797   4.6356580  57.3590755
   3.3995539  18.8758671  47.1601295   3.6289844  18.5679007  46.2833452
   3.6541864  18.1583476  47.7402639  26.5818858  11.8403792  38.6845851
  27.4286127  11.6286027  39.0775681  26.7033124  12.7126813  38.3096504
  50.8726406  71.2196493  38.7698460  50.6013155  72.0121813  38.3066964
  51.8049908  71.3505030  38.9425635  12.7960110  65.4440689  27.8839445
  12.4402797  66.3010263  28.1191278  13.2049429  65.1254606  28.6886144
  45.2399683  19.2029440  44.0374565  45.2202511  18.5910094  43.3016729
  45.7277203  19.9578476  43.7081337  78.4028816  27.9292440  60.9528065
  77.5117970  28.1667066  60.6962824  78.5004234  27.0209575  60.6669140
  40.5833197  17.6606238  59.5012426  40.5827093  18.1318474  60.3344154
  41.1899996  18.1528234  58.9481449  54.3566847  29.0117240  56.0263586
  54.9600983  28.5268569  56.5894127  54.6154022  29.9273992  56.1304426
  52.1638060  41.1204243  57.0416737  53.0488729  41.2739515  57.3723030
  51.5985441  41.6236353  57.6277542   4.9749878  31.1772323  62.1688795
   4.0694791  31.1753368  62.4791718   5.1125383  32.0644021  61.8368483
  23.6055350  55.3287077  10.7824183  24.2661858  55.6548882  10.1713705
  23.7846279  55.7939148  11.5995717  21.1437058  13.3923781  16.7920792
  21.6351581  13.1721687  16.0007429  20.7431579  14.2396331  16.5972650
  78.3903313  58.8770056   5.5226362  78.0475950  59.7686434   5.5838013
  77.6639366  58.3212900   5.8050644   0.1976637  57.1349287  32.8702664
  -0.7058044  57.2011614  33.1794453   0.7273583  57.1842623  33.6660218
  38.0200839   8.2855195   6.8632686  38.4964442   7.5690615   6.4437449
  37.1144843   7.9784322   6.9058979  48.1371689   7.3899269  60.8536625
  48.6200333   8.1415492  60.5099583  48.7976170   6.8700427  61.3116550
  77.0090342  47.2542572   7.0159364  76.6689491  46.4201450   7.3397052
  76.5551615  47.3914051   6.1844200  76.0532665  60.3157139  26.0019827
  76.5108776  61.1441183  25.8585501  76.3043785  60.0536060  26.8876886
  54.2704725  33.6503863  51.2864971  55.2033329  33.8622546  51.2530613
  53.8376617  34.4943452  51.4154863   7.3868459  50.1556826  49.2537212
   6.7530006  50.4855108  48.6167860   6.9019711  50.1211405  50.0783062
  31.0470366  52.3021603  27.4568987  30.5610275  52.7148294  28.1708527
  31.6903067  51.7453432  27.8955221  12.7872539  34.8612118  10.2722466
  13.6903644  35.1406980  10.1222110  12.5617313  35.2284765  11.1269331
  22.7600333  43.6795018   0.0356336  22.4110887  44.4238768   0.5259128
  22.4482105  42.9107849   0.5132004  56.5490627  10.6165361   9.1476226
  56.0202932  11.4100075   9.2315137  57.4522018  10.9324157   9.1196346
  36.2825751   4.1260162  25.1354337  36.0987735   4.1873902  24.1980529
  36.8392158   4.8824379  25.3203893  29.1632414  15.5241275  35.5434132
  29.2418408  16.1254811  34.8028541  29.0818405  16.0946822  36.3076591
  43.0375671   1.6232103  63.3415079  42.6990938   2.4688062  63.6358500
  43.6252689   1.3430804  64.0431976  41.7872143  21.2483358  62.2580671
  41.2885714  21.5650272  61.5048790  41.6473198  21.9115591  62.9339361
  40.2647972   1.5465349  57.5768948  40.5317926   0.9923899  56.8435001
  39.3271923   1.3800603  57.6739407   2.2382919  55.5210161   2.4713911
   2.8062123  54.8204422   2.1506147   2.2507690  56.1773539   1.7747572
  64.0815449  60.4357910  64.1686058  64.5501757  60.5601120  63.3432817
  64.4199896  59.6097755  64.5141363  48.5917091  23.9909387  61.4862490
  49.4445419  24.4225931  61.5370464  48.0750561  24.3988085  62.1811914
  30.6306243  23.9028239  61.6819334  30.5196142  23.6893201  60.7554770
  31.3465118  24.5380425  61.6972303  64.3897200  66.0627985   8.1022763
  64.4301414  65.1690102   8.4424841  64.9251413  66.5743732   8.7087816
   8.1074679   6.8415004   5.2254838   8.8962686   6.4429700   4.8577902
   7.3859447   6.4164281   4.7618568  71.8779325  17.9974532  38.4634662
  72.8155375  17.9100287  38.2917571  71.6871977  17.3134971  39.1053843
  30.2220416  20.9492683  16.1528730  29.4098806  21.4427066  16.2675202
  30.8893657  21.4827108  16.5845573  50.7556772  67.7542973  19.8362970
  50.6466103  67.8503609  18.8901949  51.5126324  67.1764040  19.9326801
  58.6033010  34.5379066  13.0366862  58.9021444  34.8491669  13.8911116
  57.8279972  34.0113640  13.2313466  24.0040112  52.9432726  53.1993628
  23.3890128  53.2990170  53.8408089  23.7822104  53.3892441  52.3819637
  68.6114883  46.6088581   3.3729011  68.6959887  47.2418022   4.0859771
  69.1825962  46.9472933   2.6833147  26.2937117  23.5151839  22.8363609
  25.3729415  23.4869814  22.5763249  26.3284302  24.1813612  23.5228252
  23.8643789  68.1707668  17.5874937  24.5098948  67.4717331  17.4831498
  24.0450668  68.7732840  16.8659961  36.1858487  13.9795303  49.3044853
  37.0485568  14.1330886  48.9192772  35.6492305  13.6704040  48.5746145
   3.2088572  67.2040081  22.8733277   2.2740807  67.2296906  22.6689625
   3.3405289  66.3502216  23.2855701  59.8123026  37.3256159  50.2875996
  58.9143705  37.6570606  50.2776003  59.8254156  36.6490126  49.6106434
  45.8721304  16.5536666  14.2812908  45.9400368  17.3449624  14.8155868
  45.4189491  15.9241343  14.8421359  35.3992391  72.8195667  18.7440383
  36.1821246  73.1691027  19.1696489  35.7019210  72.0283556  18.2983935
  34.3042016  31.8645287  57.2432852  34.7122502  31.5033531  58.0302286
  34.0163064  32.7397108  57.5029087  31.9626641  10.7365119  51.6112947
  32.4309421  11.1538470  50.8882618  32.3781466   9.8790252  51.7025232
   2.3268096  40.6237221  62.0305872   2.6407576  40.8680058  62.9012156
   2.5571859  39.6987295  61.9437218  62.7892351  62.7657557  57.9610920
  61.8696976  63.0003834  58.0861235  62.9134703  62.7812290  57.0121145
  19.6503675  54.3075657   0.0437305  19.4411111  54.9311352  -0.6516868
  19.2666817  54.6907949   0.8324958  50.4316664  32.1065831  46.6819572
  51.0089540  32.3305845  45.9520340  50.8567333  31.3593578  47.1029139
  27.4154782   2.0807919  53.0197525  27.5478482   2.9744020  52.7032518
  26.4822817   1.9150685  52.8859138  31.8430853  57.6000404  30.6046200
  32.7714276  57.3783398  30.6771612  31.4564776  56.8613958  30.1343346
  14.3694949  40.6506634  51.3720942  14.2309558  39.8545599  51.8851805
  14.4700396  41.3425159  52.0258999  71.2510347  69.0826178  16.1748374
  71.3939953  69.3277884  17.0889950  71.9985294  68.5260391  15.9564233
  10.2558696  12.2884679  49.2231417   9.5077014  12.4996948  49.7815847
  10.9633780  12.8439736  49.5503664  37.9028296  19.5374513  54.0333080
  37.6470304  20.2588201  54.6081305  37.8546405  19.9055851  53.1510448
   9.8108524  56.8517017  13.0860734   9.1258752  57.2115040  13.6496162
   9.3371546  56.3410091  12.4295425  48.8775539  60.8757639  23.3404279
  48.9849234  60.5555582  22.4447894  48.6417389  60.0980473  23.8461804
   5.7154417  73.5827255  13.1263971   6.5427506  73.5622311  13.6074078
   5.2057266  72.8616047  13.4957290  48.8651037  22.8006053  41.5864277
  49.3245220  22.8125262  40.7467699  49.5308447  23.0502915  42.2272730
  34.6609521   0.3796219   4.7629276  35.0982714  -0.3933828   5.1199263
  33.7424636   0.2703314   5.0092298  60.6330347  55.9249210  23.8017893
  60.0245380  55.2431822  23.5168386  61.4826488  55.4858971  23.8423967
  47.4018526  33.2265782  45.5316877  46.5559483  32.7867007  45.6164265
  47.2850418  34.0601897  45.9874058  16.3236298  40.1598148  62.7071271
  15.6437935  39.6088182  63.0950138  15.8502878  40.9165697  62.3614393
  62.5522804  10.6769526  53.2046509  61.7849636  11.2094522  53.4141684
  62.4138689  10.4038036  52.2977495  53.5096979  32.6883364  59.4665956
  54.3743420  33.0678940  59.3098927  52.9791641  32.9881454  58.7284327
  66.0939169  26.2354422  49.7474909  66.5031624  25.3715467  49.6981239
  65.7220840  26.2743235  50.6286573  73.3396244  57.2742224  27.3287368
  73.8703346  56.7066145  26.7698097  72.8360891  57.8104496  26.7162466
  33.2927418  30.7991266  27.1262598  33.1862092  30.0761390  27.7444601
  32.9091835  31.5541863  27.5723577  33.5962510  16.4421439  44.8642731
  33.6294699  17.1768761  44.2516613  33.2066846  15.7275951  44.3603992
  76.7270517  69.2485476  35.0958323  76.7083025  69.1809940  34.1412020
  76.9270039  68.3615017  35.3948307  40.5429935  36.5343428  10.1627064
  41.4435387  36.6721916   9.8690218  40.0964355  36.1651969   9.4007683
  53.4860373  39.7819114  60.8398533  52.9417944  40.5442953  61.0368395
  53.5608339  39.3189836  61.6743231   5.3431642  59.3327093  60.5615568
   4.4805011  58.9183235  60.5434322   5.1578915  60.2718019  60.5583858
   6.3318390  41.2201262  53.5424280   5.8546519  41.4163685  52.7361917
   6.7842615  42.0357656  53.7575436  24.2190433  13.0850065  10.9438241
  24.6067262  12.9845035  10.0744379  23.3829188  12.6223743  10.8881581
  46.6860342   1.8134840  48.2686806  47.5487614   2.1489939  48.5123396
  46.8184757   0.8723627  48.1547403  62.1034765  57.2443485  20.3569078
  62.3821926  57.9395676  19.7609055  62.6657724  57.3473406  21.1246634
  13.2725847   6.1923134  14.8812377  13.9094496   5.5206794  15.1252544
  12.5253856   6.0348409  15.4584098  18.1418431  68.5727358  20.9544158
  17.9167449  69.0945196  20.1841521  17.7922857  69.0720701  21.6924596
  54.4624186  58.5512829   5.1366740  54.2790508  57.6285267   5.3130990
  53.7272739  58.8427067   4.5973560   1.6587090  40.7917356  58.4151697
   2.4682935  40.4189920  58.0660725   1.3191557  40.1178074  59.0040255
  19.2750323  68.9694500   1.5358175  19.5473504  69.5598221   2.2383419
  19.7615206  68.1615734   1.6998050  22.5622511  11.3553500  18.4904838
  22.6571727  11.5604138  19.4206285  22.3886538  12.2002423  18.0754519
   3.8916662  54.7464895  23.4701586   4.2882323  54.7220659  22.5993156
   4.2783496  55.5160236  23.8879251  41.8379879  12.4171162   8.7253165
  41.6854763  11.8086529   8.0023056  42.0863914  11.8574238   9.4610298
  51.8652439  34.5526814  49.2811060  51.6942120  35.4849911  49.1477633
  52.4817228  34.5245218  50.0128078  60.3985262  30.1029468  50.6438255
  59.9247313  30.2860808  49.8325253  61.2449932  29.7618437  50.3550816
  50.2195549   8.4493524  54.5077038  49.4840050   8.4718817  53.8955879
  50.7167149   7.6710188  54.2561817  18.2114053  21.3432384  21.2820268
  17.9905939  20.4321957  21.0884404  18.8528597  21.5816283  20.6127453
  10.9598207  43.1317902  55.3937149  10.8990753  42.8423643  54.4833469
  11.2506437  44.0419626  55.3367805  62.2297049  48.5334206  59.1246080
  61.3292170  48.7182140  59.3914557  62.3908138  47.6399422  59.4278717
  13.5010648  48.0157089  13.2241118  13.7341297  47.2613239  12.6829886
  12.9552138  47.6512146  13.9208341  62.1975374   2.6311532   8.6241907
  61.3075829   2.2831354   8.5685587  62.1022558   3.5641640   8.4327632
   6.1297631  29.1107202  51.1672640   5.9236240  28.4804940  50.4769325
   6.5240270  28.5839963  51.8624973  78.3939203  60.2556801  19.1280389
  78.0384826  59.4823074  19.5659852  78.2696325  60.9658194  19.7577107
  73.2387686   0.2493111  41.3354492  73.6416340   0.9742425  40.8575296
  72.3220015   0.2612288  41.0604382   4.5608059  48.5873461  43.3050299
   4.0001857  48.3669710  42.5611401   4.9850440  49.4068480  43.0507231
  -0.0052239  54.3236065   1.0256854   0.4068029  54.8779106   1.6884184
   0.6905024  53.7295675   0.7440639  77.9028749  55.4801416  57.2000408
  78.1376886  55.4488420  56.2726164  77.5785303  54.6008825  57.3948002
  21.1246324  21.2405872  31.6521382  21.5477991  21.2769961  30.7943320
  21.7991662  20.8963013  32.2375464  66.6026592  73.7457848  37.7520752
  65.8881140  73.2518053  38.1541181  66.2327147  74.6137476  37.5907850
  43.8224030   0.8700918   1.8485439  43.7546873   0.3513185   1.0469698
  43.5875559   0.2609943   2.5486004  65.0718927  22.9179597  25.0020981
  65.7793808  22.7525163  25.6252480  64.4126940  22.2547126  25.2065206
  17.8597748  60.3336620   3.8520280  17.9106534  60.9048033   4.6184769
  18.7321842  60.3795052   3.4608349  32.1314526  66.6230059  16.2826490
  31.6039681  67.3675680  16.5718246  32.8523874  66.5818071  16.9109702
   7.5141662  60.7246399  19.5646405   8.3662349  60.4574633  19.9093544
   6.8917465  60.4823875  20.2503085  10.5812979  55.4690838   9.8041111
  11.4097893  55.4342222   9.3259698  10.2293944  56.3379383   9.6104968
  44.0711069   0.6555532  14.0054655  44.2244625   1.4156991  13.4443128
  44.4362974   0.9066050  14.8538995   8.3966720  15.0872922  11.3655198
   8.2471341  15.3652573  12.2691822   8.4202629  15.9027863  10.8648765
  28.7129664   8.2226813  27.2393966  28.9908838   8.2086158  26.3235378
  28.3468604   9.0981108  27.3651814  24.2474055  70.6038570  40.6603050
  23.8645720  70.6415987  41.5368032  23.7384605  71.2332392  40.1493406
  11.8228805  47.2657156  15.5588877  10.9786499  46.8530846  15.3765678
  12.1657467  46.7865229  16.3132405  77.5696898  33.2873511  37.4581003
  77.2703362  32.4542546  37.0939994  76.9947386  33.9422107  37.0620942
  32.4553657  24.7937059  11.0981119  32.1515870  24.7287250  10.1927233
  32.3515844  25.7190943  11.3197351  61.7805195  63.0651999  14.3331230
  62.2683907  63.4889793  15.0392580  62.4019909  62.4455786  13.9509332
  64.0003586  46.1220360  15.3899813  64.8547602  45.7859564  15.6606936
  63.7693596  46.7604542  16.0647368  54.8577833  57.7540255  63.4673595
  54.9544716  56.8097878  63.5910511  54.0940523  57.8439569  62.8973961
  23.7506270  47.4743652   8.4836787  23.8578439  46.5246487   8.4309280
  24.1812992  47.8080988   7.6966751  62.0672131  35.9145617  15.2774549
  61.9213820  35.9640932  14.3327260  61.7908478  35.0298262  15.5164027
  41.3944960  39.6379566  44.5236301  41.1131763  40.5133963  44.7895288
  42.0127201  39.3684292  45.2028847   9.1780013   0.1328212  13.3239341
   9.1770762   0.2197685  14.2771769  10.0693405   0.3646334  13.0631495
  16.3392115  58.0234671  14.6515119  15.9385109  58.6867237  15.2134395
  15.6007588  57.5126410  14.3198848  63.5699701   2.5703517  19.4383299
  62.6728582   2.6671526  19.7577929  63.7466288   1.6316980  19.5011985
  51.1550379  25.1395106  62.0261717  51.9831848  25.1980209  61.5497446
  50.8724642  26.0483837  62.1278143  54.1460323  55.6282568  60.9465408
  54.8096037  56.2990761  60.7855940  54.6348000  54.8053074  60.9561110
   2.3477975  52.3910952   8.4095949   2.5673267  53.2456875   8.7806886
   3.0686551  52.1979332   7.8101915  44.4462538  23.7179279  14.3892968
  44.3330479  22.8029084  14.6465087  43.5637569  24.0155125  14.1682017
  55.0895405  31.6810679  56.1274099  54.7833633  32.4893498  55.7161093
  55.9252214  31.4959455  55.6989241  16.5772152   2.9634345  60.7786274
  16.4074671   3.5039982  61.5501261  16.0082150   3.3280909  60.1007652
   0.9658055  47.9572439  11.6494036   1.0518889  48.7042427  11.0571122
   1.4165215  48.2316160  12.4480295  75.1893806  56.4526129  24.3742180
  75.3629637  55.6145477  23.9455533  74.2381763  56.5508318  24.3318367
  70.4750013  73.4679937  16.8381786  70.1588774  72.6859093  17.2905552
  70.9699297  73.1295013  16.0920548  22.0392108  11.0337830  27.1233964
  22.1789813  10.6795311  26.2452149  21.0877252  11.0496533  27.2266197
  69.1718292  48.3915806  40.1391983  69.6191168  48.5866547  39.3157244
  69.1141844  47.4363422  40.1600027  26.5515590   2.5715813  15.9937918
  25.7918048   2.2265443  16.4627850  27.0558357   3.0347934  16.6626501
  61.7838526  67.8682613   8.3547634  61.4139128  67.1406031   7.8548729
  62.6414919  67.5521088   8.6389023   0.9977934  73.7589455   3.2012564
   1.5156621  72.9553509   3.2489979   0.1570613  73.4808493   2.8378513
  73.0159521  59.5299053  42.8007746  73.5898542  59.8373508  42.0991039
  73.4918356  58.7999296  43.1968880  55.9761906  72.0541573  52.5628567
  55.7796240  72.4050665  51.6942644  56.3811636  71.2039089  52.3916578
  33.8323402  18.7605214  60.1903820  33.9892006  19.5848036  59.7297430
  34.5400500  18.1852841  59.8997307  50.3379774  42.7719879  45.6614876
  49.7250414  42.2914886  45.1050138  50.1447678  43.6937428  45.4903793
  63.5967970  70.9995317  19.9397349  62.7558470  71.3191223  19.6127844
  64.0457010  70.6678534  19.1621065   6.2542272  35.7512951  53.2176542
   6.2108606  34.8714352  52.8432274   5.4446328  35.8375692  53.7209892
  15.5788839  20.7056260  34.8148656  16.3787198  21.2291932  34.8635960
  15.1318204  21.0237122  34.0305257  25.1688051  49.3160057  26.3661194
  25.4780650  48.6832142  27.0143199  24.5249796  48.8329697  25.8480525
  54.6165943  41.2515306  51.3149834  53.6760044  41.0790873  51.3572454
  54.7735119  41.5019894  50.4045534  70.7848397  74.2213159   2.2226077
  70.6545069  73.2765542   2.3042803  70.6068101  74.4088702   1.3010001
   0.0048568  39.6845460  48.8127136   0.1425583  40.4500818  48.2548428
   0.0428156  38.9403844  48.2118654  59.4761086   9.6929699  49.8929691
  59.4003487   9.9690181  50.8063650  59.1144180   8.8068318  49.8797798
   7.3501509  36.5013504  48.5275078   6.8446797  36.7931581  49.2861795
   7.1658087  37.1535993  47.8516245  59.1287374  72.3865986   0.8221334
  58.6490631  73.2061815   0.9422607  59.5317793  72.4694347  -0.0421146
  57.0689535  31.1347914  46.2883711  56.5548182  30.6140113  45.6713724
  57.1846390  31.9785285  45.8513880   1.3305229  37.2362232  47.6255655
   2.0191088  36.7754626  48.1049204   0.5435745  36.7118096  47.7736616
  53.5512733  44.6376514  42.1601295  52.7097893  45.0713110  42.3018074
  53.9456415  44.5897150  43.0309963  55.0878477  36.7533255  43.4004211
  55.4139090  35.8619285  43.5242176  54.2940474  36.7942238  43.9337540
  53.5859060  20.7869148  57.9414892  53.0806351  21.5804410  57.7647114
  54.4956398  21.0833430  57.9687834  15.5729771  18.4072471  10.2737045
  15.7242525  19.3492043  10.1958275  15.9204161  18.1793535  11.1360168
  41.2388372  20.6485200   2.7524662  41.9202375  20.8075285   3.4056443
  40.6218433  21.3709521   2.8692591  51.6573334  46.5960932  55.3956270
  51.7413092  46.9617081  56.2762547  52.2248507  45.8252954  55.4011869
  69.0705776  37.1041298  49.5281935  68.7146664  37.9544449  49.2702675
  69.9908829  37.2792983  49.7246265  16.7883027  58.7299871  22.1856737
  16.2201738  58.3828783  22.8734064  17.5917351  58.9797878  22.6421046
  28.8983178  60.1260233  22.2056103  28.8981962  61.0191727  22.5498700
  28.6610556  59.5803118  22.9553676  63.5703087  57.0397472  40.9849310
  64.3646622  57.1741486  40.4680443  63.4516382  56.0900402  40.9991598
  53.0839252  71.8449736  53.4404802  52.3951292  71.3852167  52.9604626
  53.8282299  71.8568039  52.8387260  50.5833006  13.0938947  31.4961195
  49.9486923  12.9489994  30.7943320  51.4227104  12.8321946  31.1177754
  46.2498236  22.4950743  17.2005248  45.9689665  21.8550587  16.5465105
  46.2190342  22.0188737  18.0302942  54.1032267  60.9400892  47.0583248
  54.8536825  60.8669996  46.4686632  53.3428955  60.7800150  46.4993000
  76.9835567  25.1819611  19.2313540  77.9037714  25.1435852  18.9706516
  76.8431234  24.3790817  19.7332454  55.1932573  37.3291564  59.4989014
  54.5703173  36.8001938  59.9972773  54.9056053  38.2315826  59.6371460
  51.4141989  40.3213549  54.4727278  50.6714487  40.9134579  54.3545389
  51.7301035  40.5069542  55.3570318  15.2190626  69.0624523  30.2293777
  15.2454388  69.6854544  30.9556031  14.3201900  68.7334251  30.2285981
  61.8296146  17.3827410   6.6076684  61.8950653  17.9849541   7.3488081
  61.1424780  17.7560639   6.0556686  44.3948984  25.2449942  63.4962368
  44.7949123  25.1373482  62.6333141  43.4877729  24.9639034  63.3764791
  56.3328981  43.6769867  60.1183605  56.7482662  44.2664337  60.7478476
  55.5437183  44.1415930  59.8398447  25.6498575  50.3898525  56.6665077
  25.1890683  49.9440670  57.3772669  25.5374908  49.8141956  55.9100533
  68.6007166  65.6024981   3.4034863  68.8154221  66.4750433   3.0736446
  69.0829372  65.0050163   2.8319007  56.1410522  41.0724401  61.1452532
  56.2677288  41.8631697  60.6209087  55.2193737  41.1004543  61.4020681
  38.2566214  31.9957185  56.3684845  38.8181829  32.7504015  56.1914682
  37.5927877  32.3276758  56.9729376  37.5318623  15.7582879   4.1184831
  38.2362556  15.6811595   3.4749666  37.9577875  15.5966866   4.9603298
  76.6070080  22.7423835  37.5414300  76.2904215  21.9586992  37.0921636
  75.8164692  23.2513428  37.7209902  32.0482874  68.8889360  30.1365614
  32.6398897  68.7734461  29.3929863  32.1055794  69.8212576  30.3456616
  55.8443117  31.4563560  48.9791632  56.3670254  31.4293504  48.1777382
  54.9579573  31.6595149  48.6802769  54.9955130  53.1037283  59.9719858
  55.8971834  52.8940535  59.7285604  54.7140169  52.3630857  60.5090523
  57.3335505  54.8851538  62.2659063  58.0097628  54.7947836  61.5944910
  57.3129272  55.8221436  62.4604797  27.6166344  64.2436552  47.6967239
  26.6628480  64.1631889  47.7035952  27.8994012  63.8098574  48.5017681
  12.3340429  67.0620190  63.5132521  11.4411510  66.8299590  63.7684499
  12.5541605  67.8114663  64.0665240  43.8022232  61.0429859  63.1196833
  43.0090809  60.5347109  62.9499388  43.4945583  61.9452620  63.2061434
  66.6117191  50.2008009  19.1595459  66.8064022  51.0696030  18.8081014
  66.7087460  49.6123266  18.4108698  59.0957880  17.3292243  64.0420723
  59.8163557  17.7956986  63.6184978  58.7739229  17.9383504  64.7066021
  50.4634857  34.8926497  43.3783007  49.6118689  34.5293975  43.6212635
  50.4094934  35.8157730  43.6256027  67.1589375  19.4629478  25.0078440
  67.1557760  18.8776505  25.7652402  67.5220156  20.2836204  25.3408599
  28.8740993  14.4538009   9.8723751  29.4682074  15.0560164  10.3202641
  28.0119634  14.8610878   9.9564695  60.4275990  21.2306190  54.9953985
  59.6214390  21.3372278  55.5003548  60.3202915  21.8167734  54.2463064
   5.4203922  23.1241632  17.2281170   6.1501402  22.5229526  17.3772621
   5.6723768  23.9252877  17.6873946  76.3888502  30.5960822  36.6749334
  76.3320255  29.6464181  36.5693855  75.7426405  30.8010578  37.3506808
  53.3262777  36.0800624  60.9764290  52.6460361  35.4140902  60.8765078
  53.7451935  35.8711553  61.8113518  75.5275440  52.6735449  51.1981487
  75.7439947  52.5955439  50.2690125  74.9690962  51.9172955  51.3782883
  23.9580655   2.7303478  21.2097216  24.1307044   3.1348956  22.0598793
  23.7982225   3.4682688  20.6213737  65.3614569   8.7747216  38.4597254
  64.8369884   8.4765172  37.7165985  65.6914854   9.6321756  38.1912327
  61.4351845  24.5904231  62.7198601  62.1107864  25.2514791  62.8708363
  61.5700197  23.9469290  63.4155369  67.7911901  14.0428615  46.8436623
  67.8669548  13.5223258  47.6433706  68.3394766  13.5846221  46.2067652
  74.9789095  46.0120440  56.6529369  74.3061447  45.3982973  56.3580847
  74.4900513  46.7824459  56.9422913  77.8757858  33.1701064  50.5721188
  77.8895903  32.5042820  49.8845720  78.7313700  33.5949683  50.5113077
  52.3853350  50.6778765  52.5761175  52.7399349  51.5526104  52.7352619
  53.0845356  50.2166176  52.1128845  35.1647449   2.2143832  58.1221247
  34.8116565   2.6074740  58.9202738  34.6348715   1.4286846  57.9874372
  37.4605012  56.1726141  29.4230032  36.6918850  56.6927862  29.1887331
  37.3712254  56.0239124  30.3643584  74.3382025  69.6473598  47.7471590
  74.0693235  68.7287188  47.7529860  74.4586802  69.8557854  46.8207264
  20.1747561  60.6183195  31.3421559  20.3339720  59.7336292  31.6711068
  20.8980870  60.7826900  30.7371688   8.0766308  45.3368378  40.0544453
   8.9968574  45.3033829  40.3157806   7.8351080  44.4218636  39.9105000
  16.8250453   9.8866040   1.3900639  16.5938663  10.6547976   0.8678882
  17.7388608   9.7107786   1.1658823  39.1769099  24.5661449   9.3724930
  39.7606659  24.9392772   8.7120134  38.9174795  25.3129077   9.9121881
  32.0333552  67.4782753  60.5783796  31.9391632  66.6811991  60.0568199
  32.3219728  68.1418133  59.9517679  65.5966282  57.4576855  38.9396811
  65.5854654  57.5892115  37.9916263  66.3777351  57.9242563  39.2370367
  61.8136024  29.1360784  56.5070295  62.5743008  28.8151836  56.9913816
  61.8617105  28.6890817  55.6619787  19.0065360  21.2187958  61.2467718
  18.1096482  21.4520836  61.4863634  19.0855300  20.2950883  61.4849997
  78.8459301  34.5311379  29.6386981  77.9398060  34.7363806  29.8690128
  79.0058899  33.6749220  30.0356126  73.2276869   2.9087293  15.6196070
  72.4203968   2.4114674  15.4882956  73.9100552   2.3664483  15.2239585
  62.8066015  23.5548830   4.7380748  62.9893351  24.1891098   5.4313254
  63.5200167  22.9197550   4.8003721  61.6846228  73.9739513  21.8992734
  62.1588469  73.5632801  22.6222467  62.2525835  73.8494778  21.1389089
  67.8187227  64.2091894  32.6597810  68.3708143  64.9417686  32.9331994
  68.2631874  63.8474226  31.8930960  56.2637758  33.3059072  44.8299408
  55.8100080  32.9601383  44.0613270  55.5788565  33.7430716  45.3359127
  16.8140793  51.7853069  18.9865482  17.7630138  51.8517303  18.8800442
  16.4784551  51.6980600  18.0943727   7.0895666  26.8780971  44.4267130
   6.2563288  26.4922595  44.1563892   7.1827126  27.6562142  43.8770866
  63.0975199  17.2972524  58.5231972  63.1325626  18.2537615  58.5328531
  62.5153637  17.0862675  57.7932596  25.6523252   0.3404722  13.4092891
  25.3270197   0.4187978  14.3061018  25.4552412   1.1869596  13.0082297
  23.2089162   0.7787468   3.2071355  23.1240606   1.7134485   3.3951893
  22.3071003   0.4623955   3.1534714  69.6009779  28.2885098  59.8503494
  69.1291332  27.4881196  59.6202087  70.1370335  28.0421877  60.6041431
  10.0579202  22.8153300  15.4128408   9.1824722  23.1900024  15.3156745
  10.2108300  22.3477697  14.5917201   1.0755718  72.5710440   7.7181131
   0.3336173  72.4316931   7.1296263   1.1908689  73.5210800   7.7373606
  20.8593941   4.6373233  46.5869141  20.3041816   3.9190003  46.8902016
  20.2456045   5.2832788  46.2372875  70.4030371  50.1405764  29.5291471
  70.3433180  50.4451132  30.4346442  69.4958305  50.1142359  29.2249846
  68.7501860  69.3144608   1.9108956  68.7672949  69.6535921   2.8058428
  68.0806017  69.8370171   1.4695078  63.7376213  20.7844448  51.5045834
  64.0844202  20.2602959  50.7826233  64.5060301  21.0053277  52.0308828
  68.9258575  67.4327803  16.4237523  68.7714529  66.9996691  17.2632790
  69.6225548  68.0638313  16.6043639  50.2801847   2.2594370  10.4332447
  50.0037527   2.6068678   9.5852411  49.7495985   2.7358916  11.0717618
  40.1488256  63.9276981   4.8750490  40.0490856  62.9961634   5.0713336
  41.0646343  64.0204334   4.6125042  17.6452661  69.2977047  28.6265755
  17.9031742  70.2145910  28.7216020  16.7962480  69.2410421  29.0649700
  40.3744698  15.4647672  17.4009180  40.2444029  16.3958228  17.5810528
  40.8192682  15.4446054  16.5535808   3.1450778  25.9254003  61.6684866
   3.9858872  26.0841203  62.0975304   3.2350564  25.0553727  61.2796593
  22.3310637  57.1739006  16.5821970  22.6338291  56.4764738  17.1637142
  22.0846605  56.7225075  15.7748771  61.5016365  37.1918464  58.9417553
  60.6166506  37.2051620  59.3062449  61.9587326  37.8991461  59.3967533
  56.0629368  12.1580029  47.4229288  56.5968561  11.6901708  46.7808247
  56.1288214  11.6306138  48.2190132  46.0910082  53.7394333  61.8801832
  46.6015673  54.2759466  61.2737894  46.5638399  52.9081678  61.9208956
  55.6615114  14.2406201  34.0337896  55.0693321  14.8925340  33.6588717
  55.3770494  13.4105635  33.6512685  72.9157209  42.8773451  52.5128174
  72.9572296  43.5410500  53.2012987  73.6203146  43.1136513  51.9095421
  42.2892194   0.4824993  22.5127220  42.1296769  -0.4613045  22.5163770
  43.0783337   0.5940697  23.0428958  40.9565878  41.4139175  20.6779718
  41.8016195  41.8015909  20.4502439  40.6997871  40.9235716  19.8970473
  47.0429850  30.7221603  59.7692156  46.2248278  30.5551624  59.3012762
  47.6498318  30.0623727  59.4335890  30.8615470  30.9056568  24.7589564
  30.3889775  31.6487646  25.1340556  31.7812252  31.1699653  24.7827911
  52.6292038  53.6603355  58.6289692  53.0726290  53.3850336  57.8265858
  53.3219242  53.6848688  59.2890978  15.4513192  67.4650097  56.3245296
  16.4076018  67.4417925  56.2896585  15.2116072  66.6939974  56.8386412
  44.2818022  21.9620061  61.0937023  43.3890486  21.8651962  61.4251328
  44.4583130  21.1394262  60.6371546   5.2854979  66.4314318  31.1361790
   5.5470055  67.2371197  30.6904006   5.7637560  66.4502907  31.9651222
  23.5110617  59.2637539  27.5358796  23.9584064  58.5087061  27.9180074
  22.6772428  59.3101263  28.0036712  47.4132013   6.6810912  51.0574770
  48.1504393   6.0787272  50.9581375  47.3017883   7.0685095  50.1893044
   2.3414442  66.5712929  26.0129452   3.1357241  66.2097454  25.6197119
   2.6574862  67.1141624  26.7351937  30.7263851  19.8763704   1.1021893
  30.1141000  20.3187394   1.6901070  30.1750803  19.3036294   0.5690281
  71.3062763  46.3327217  45.6232214  70.7093143  47.0490122  45.4068899
  71.8742657  46.6918802  46.3048553   1.1736934  32.8939319  20.9310889
   1.0557707  33.7607765  21.3195515   0.2865045  32.5426173  20.8555436
  58.8176107  55.1157808  53.4351110  59.5321703  55.2682877  52.8167486
  58.5060263  54.2346144  53.2284880  76.6540432  45.4864311  50.8017015
  77.1740818  46.2664652  50.9949350  76.7917156  45.3322601  49.8670864
  75.1364279  71.3363457  49.8401690  75.7967138  71.9078922  49.4482756
  75.0009584  70.6463861  49.1906786  13.2080054  58.2759428  41.7449093
  13.1149769  57.7021027  40.9844589  14.1536176  58.3594847  41.8676710
  37.6242590  21.3841105  16.9210422  38.0678368  20.5815864  17.1956789
  37.3941565  21.2290931  16.0049343  15.4552102  54.5534563  60.4668713
  14.6072733  54.1093493  60.4645348  15.3154957  55.3392267  59.9384069
  30.8575487  69.9595404   7.0048600  31.6887808  69.7314930   7.4211258
  30.9539175  70.8816481   6.7668337  15.9169424  69.6334314  52.8841591
  15.1290250  69.3270159  53.3330774  15.5898046  70.2042627  52.1889162
  34.6910000   7.1653515   9.3040448  35.1677370   7.8673816   9.7468853
  35.3727698   6.5610516   9.0103751  40.3636074   4.8133141  51.9883060
  41.2370157   4.6676174  52.3518372  40.2078056   4.0534526  51.4274406
  75.5091763  25.5596662  60.5546045  74.5858002  25.3574777  60.7053614
  75.8826351  25.6422710  61.4320660  29.4569516  14.0096605  16.7949569
  30.2795362  13.5299253  16.8921208  29.1636825  13.8048708  15.9071016
  28.0497336   4.7203764   2.3689577  28.9985776   4.5942125   2.3659572
  27.8763390   5.2144372   3.1702507  44.8959112   1.2040898   7.9989845
  44.6492958   0.2860001   7.8870738  44.9540758   1.3226186   8.9470351
  69.6001577   3.4332126  55.8993006  68.8738394   4.0530711  55.9661531
  70.1985359   3.8325983  55.2679014  69.4463873  44.5080519  31.5946579
  69.2461586  44.8836231  30.7372856  70.3515863  44.7686148  31.7648005
  65.3926897  47.7437973  41.0950899  65.8034420  47.3049068  40.3501797
  64.6195793  48.1701851  40.7253313  71.2952232  55.2444553  60.0800323
  71.6208649  55.2001953  60.9790468  71.7063332  56.0278654  59.7146749
  10.4304934  15.2958465  44.2583418  10.8625245  14.5438457  44.6634054
  10.7753491  16.0534215  44.7309828  51.6724873  73.4769869  29.8079824
  52.3736811  72.8545618  29.6152544  51.7519331  74.1455173  29.1275525
  76.3082218  18.9579213  49.7793150  75.3574944  18.8940811  49.8703003
  76.4841366  18.6581874  48.8874340   9.6914005  50.0097609  47.3733425
   9.7784990  50.9027195  47.0397711   8.7749815  49.9425697  47.6414728
  20.7683897  73.3131313   3.2829815  20.1182938  73.1788826   3.9726081
  21.5436959  73.6337090   3.7438101   5.0278252  58.0535603  21.9194722
   4.4392109  58.2101583  21.1810684   5.2781343  57.1335125  21.8353033
  23.9896035  64.7026873  28.3923602  24.9354839  64.8310232  28.3211279
  23.8777614  63.7522745  28.4133816  63.8317060  48.8846016  24.9504471
  63.7400579  48.0644941  25.4354763  64.5379734  49.3501616  25.3984094
  69.2550421  72.7769756  57.5435686  69.9239349  72.1541071  57.2592354
  68.7969494  72.3285961  58.2544422  72.8446388  24.2593527  21.7892170
  72.5664997  24.4953632  20.9042454  73.7798500  24.0736532  21.7048264
  10.7193995  51.8105793  43.4287930  10.9816086  51.4856434  42.5674582
  10.0856709  51.1666393  43.7449598   5.0936234  72.3432064  40.0287342
   4.8894060  72.1168613  40.9360886   4.7009957  71.6394901  39.5121503
  28.3857489  30.0267696  27.3749018  28.3576441  29.0964746  27.1513104
  27.7194762  30.1300359  28.0543470  28.9229155  25.6169868   1.8044798
  29.7002292  25.1012588   2.0190458  28.1876326  25.0473523   2.0305553
   2.9303098  49.6451664  16.5414941   2.4333218  50.1765060  15.9194720
   3.8373145  49.7128153  16.2431705  50.2830553  26.0352397  13.9036417
  50.1932001  26.3166952  12.9931796  51.1592150  26.3245082  14.1584003
  45.9213305  27.4000001   7.5900406  46.8295383  27.2159433   7.3502219
  45.9755230  27.7590227   8.4757024  59.7040415  72.0976257  49.6554518
  60.0687456  71.3745689  50.1657534  60.4237461  72.3790646  49.0906048
  53.8142776  71.3644075  42.5610065  54.0048027  70.6584358  43.1786966
  54.6349525  71.4949846  42.0859528  34.9401093  29.2908192   4.5748365
  35.6105971  28.6086202   4.6105793  34.2066312  28.8819265   4.1154358
   1.5243486  26.3870645  50.4186630   2.3004745  26.2246585  49.8824883
   1.6166158  25.7895851  51.1607790  67.8739643  55.4330063  58.2551527
  67.8410864  56.0903883  58.9501381  67.2272348  54.7769976  58.5152006
  62.2305346  24.7933984  30.4588819  61.4800453  24.6899414  29.8738265
  62.6466560  25.6066775  30.1731396  72.8964520  15.0269520  29.0806222
  72.6368189  15.3286862  29.9511266  73.8475895  14.9332583  29.1334152
  50.3768110  70.9679413  14.1037107  51.1961603  71.2965345  14.4737411
  50.6509066  70.3534555  13.4228921  58.5538435  43.6657476  44.8214388
  58.5268879  43.7944317  45.7695627  58.4906721  44.5489979  44.4579649
  19.0325999  27.7968931  51.7721272  18.3128619  27.5185847  51.2057734
  19.6354795  27.0534182  51.7761183   2.4136402  42.7132702  60.1108980
   1.9425963  42.2352886  59.4283438   2.2735293  42.1972561  60.9048319
  10.4425466  65.3195763  33.1745481  11.1539423  65.0198746  33.7405229
  10.6421566  64.9412489  32.3182440  33.6930943  17.5611556  31.4817047
  34.2413092  16.9323075  31.9510031  33.4544492  18.2110071  32.1427441
  34.2318702  38.6499429   9.8847467  34.7790670  38.1734180  10.5090320
  33.7324476  37.9683685   9.4350094  56.8328857  20.7049441  18.8557959
  57.2508764  21.5163922  19.1440153  55.9090805  20.9342289  18.7545812
  61.2000561  52.8202868  58.6592579  61.1781359  51.9373274  58.2902956
  61.8241596  53.2941484  58.1095457  60.5520344  67.3518515  23.7284756
  60.4349518  66.6226816  24.3374348  59.8072147  67.2867107  23.1307912
  19.0968728  22.3779488  13.1463265  18.1721723  22.1312571  13.1288636
  19.2064703  22.8375435  13.9787889   7.3677695  29.4468904  43.4189606
   7.1741700  30.2630067  42.9577637   8.3200264  29.4467711  43.5161161
  11.9601953   6.1610878   8.9432728  12.7541149   5.8971953   9.4083375
  12.1813798   6.0631400   8.0171430  32.4781036   1.9015995  16.3511217
  32.9852819   1.7425542  17.1471775  33.1236482   1.8681496  15.6451571
   4.0448895   8.5325325  47.6465559   3.8977653   8.1188047  48.4970951
   4.8772985   8.9945799  47.7457476  47.5335979  13.6777818   6.1180413
  48.4096384  13.7766016   5.7451856  47.4420738  14.4206071   6.7147529
  35.3852248  23.1230044   4.1140386  36.0798001  22.4919367   3.9254934
  34.6269989  22.7965140   3.6295509  21.7671657  19.8848367  19.7478867
  21.7374706  19.0793264  20.2641249  20.8574104  20.0403643  19.4941342
  57.0713139  31.7006183   3.4616303  57.9916716  31.7734766   3.2089031
  56.7768335  30.8828807   3.0606103  25.0480580  27.5943995  11.3567472
  25.9351897  27.6765776  11.7067122  24.4961858  27.4723506  12.1292591
  35.8230710  41.7447948  21.9343233  36.7638755  41.6130686  22.0516706
  35.4250073  41.3181782  22.6931214  37.1695423  41.9295883   9.4775701
  36.5178776  42.5549984   9.1606748  37.9730463  42.1652555   9.0138066
  74.0107918  26.1540174   8.6286366  73.2637787  26.0479593   9.2176616
  74.6317005  26.6889286   9.1231823   2.1130075  28.9800787  28.2952499
   2.5483006  29.6804643  28.7812686   2.6304653  28.8861322  27.4954724
  70.1410484  62.2586870  49.6915865  69.4770336  62.2453499  49.0022802
  69.6483326  62.1257210  50.5013895  69.4274473  66.4164877  55.6431723
  68.6268997  66.0515499  55.2661133  70.0859880  66.3092041  54.9568415
  52.5833702  72.4815035  60.6020212  51.7729902  72.0633936  60.3109980
  52.3134327  73.0522346  61.3214874  58.3049202  65.9465885  58.2393503
  58.9679718  66.5629959  58.5502195  57.6238060  66.5000248  57.8572226
  11.5755773  12.4399936  34.7261310  10.6811857  12.0991802  34.7142601
  12.0470464  11.8974292  34.0940118  71.5204239  64.4727802   5.1544660
  70.8069181  64.3592596   4.5265692  71.1431694  64.2136049   5.9951425
  20.0428343  39.8355913  60.7308722  19.2491984  40.1167345  60.2755356
  19.9769104  40.2371931  61.5972424  43.2449484  19.3696618  50.1725817
  43.3701897  18.8437855  50.9625149  42.3289871  19.2281508  49.9333668
  73.7131882  18.2405794   7.8230262  73.7030077  19.1794753   7.6370090
  73.4390688  17.8308642   7.0025235  78.0772257  51.2961435  39.9865413
  77.5514841  50.5187178  40.1747847  78.8810825  50.9529448  39.5963407
  27.7556521   7.3998316  63.0577012  26.9066197   7.2551687  63.4753739
  28.3531196   6.8116959  63.5196112  43.8480043  25.6207633   8.4874040
  44.2531729  26.3874745   8.0821592  43.7488127  24.9949479   7.7699429
  67.5875998  61.1496019  56.7764950  68.1471968  61.3174438  57.5347233
  66.7004442  61.1224174  57.1348953  66.4301062  65.6623936  -0.1178321
  67.2381067  66.0313320   0.2388953  65.7316875  66.1642265   0.3024093
  29.3734050  32.8893423  17.8638065  29.1151381  33.3393002  17.0594001
  29.8388863  32.1089697  17.5628471  12.1791422  43.9060545  44.5554113
  11.7485070  44.5543003  43.9981365  12.6066613  44.4232273  45.2380466
  13.7996185  30.8986139  62.2938299  13.4870195  31.8022370  62.3383284
  14.2726696  30.7680774  63.1156635  27.7949610  35.3492464   1.3264271
  26.8396941  35.3310551   1.3844820  28.0923930  34.9646868   2.1509787
   2.4441249  73.8605805  38.0598569   1.8395168  73.1191204  38.0295396
   1.8769462  74.6307947  38.0960608  73.9337254  48.5348463  13.7614894
  74.7291899  48.0026245  13.7758756  73.5355425  48.3475018  12.9114389
  54.2393589   9.4600803  23.7781882  55.1183939   9.7211969  23.5037041
  54.3858433   8.7792444  24.4348741  42.9930067  48.6844540  17.6026297
  43.3342791  49.5783377  17.5753665  42.2707462  48.7228489  18.2296038
  18.4893930  27.4573874  55.0324583  18.2421339  28.2603407  54.5738077
  17.6593554  27.0893478  55.3354692   8.3823210  70.8056736  38.4165049
   8.0844945  71.6996193  38.5850024   9.0395206  70.8981752  37.7267504
  36.8119407  21.0154867   3.3308986  36.7195749  20.2389884   3.8829401
  37.4868011  20.7782865   2.6948714  35.4277802   2.9556042  31.1050081
  35.2760077   2.7428612  32.0258427  35.4836750   2.1053973  30.6688237
  66.4177036  49.7365999  55.1544952  66.2203741  50.5641747  55.5931473
  65.9947872  49.0710974  55.6971550  65.4540777  36.1637545  58.9347839
  65.1837158  35.9018302  59.8148584  65.6046915  37.1066952  59.0011883
   5.9890300  64.5191860   8.8515508   6.0633993  64.4203806   7.9023731
   5.2944690  63.9100456   9.1020769  76.0331964  27.3187399   4.5622301
  76.7812634  27.0379853   5.0892961  75.9974861  28.2675743   4.6833578
  35.9824061  65.3714180   9.4982582  35.4591560  65.6650257   8.7524456
  35.3390312  65.1702070  10.1778269  70.1716852  71.2660694  49.6842623
  70.8402824  70.6172657  49.9039316  69.6911097  71.4007425  50.5010509
  31.1554718   3.9883602  34.3923926  30.5040884   4.5787415  34.7710514
  30.6676388   3.1890634  34.1939640  42.9392195  71.1927986  57.0059633
  42.3110437  71.8446779  57.3168945  42.8736734  71.2330341  56.0518599
  35.9215665  43.7989902   7.7965343  35.1114821  43.6395931   8.2808757
  35.8086109  43.3187962   6.9762361  53.3320522  42.8797579   3.3044279
  53.5433960  41.9492340   3.3799034  53.9502144  43.3141994   3.8921085
  21.0238338  34.7826624  58.4119844  21.2978649  35.5518842  57.9125452
  20.7966495  35.1264906  59.2759275   4.3884000  47.0181656  16.6454029
   4.5100597  46.8925381  17.5864923   4.9238345  47.7831078  16.4346862
  76.2883806  38.9259815  57.7695799  76.7666531  39.6645284  58.1464529
  76.9430923  38.2322788  57.6898193  26.1157584  32.7582264  20.3955746
  25.5461621  32.8808045  19.6361232  25.6589556  33.2000470  21.1113667
  53.7048197  23.4008169   3.7884486  54.6462107  23.5620093   3.8519683
  53.3177137  24.2722440   3.7048170  36.5890718  40.7794762   1.3894434
  37.1235895  40.3590345   0.7158320  37.2116566  41.0132647   2.0778954
  75.5971956  47.8796196  47.4341011  75.5904961  48.3056688  46.5769768
  75.9613848  48.5378981  48.0259371   5.4814130  50.7015610  46.8663025
   6.0679436  51.3132191  46.4212275   4.6163517  51.1052847  46.7962313
  63.0485725  20.7661366  13.4538352  63.9637995  20.5411196  13.6210537
  62.5518465  20.0298238  13.8106787   5.6231880   1.6101620   1.1559299
   5.0824416   1.7244275   1.9374466   6.5160072   1.5311709   1.4918843
  42.3389626  25.1724553  10.9731126  42.4565172  26.0386062  11.3632333
  42.3988438  25.3244424  10.0299561  27.7326298  17.1669877  20.1450801
  27.0568752  17.1279204  19.4682789  28.5455132  16.9595873  19.6841681
  54.4427538  40.4940891   4.0287119  54.0573311  39.6184707   4.0599042
  54.8155594  40.6228876   4.9008697  74.5314264  24.2647076  34.7840619
  73.6923885  24.6889043  34.9638033  75.1233149  24.9857903  34.5697236
  50.0962162  37.9639888  54.7946978  50.1268244  38.0120921  55.7501984
  50.8375502  38.4953117  54.5042658   6.6468388  63.9153099  53.1586742
   7.0468855  64.5291901  53.7745857   7.2770458  63.8511372  52.4410725
   0.5541401  61.1759663  54.3464899   1.3300927  61.4136553  54.8540640
   0.8378980  60.4383755  53.8064194  19.3569756  21.4981055   4.2217773
  19.8086381  20.8009195   4.6973416  19.6931684  22.3073912   4.6068290
   2.3768593  65.7478094  16.4173985   1.5835738  65.2676630  16.6548610
   3.0918765  65.2191973  16.7717350  61.3331556  38.7765002  52.0491600
  60.7063389  39.4730544  52.2444630  60.8473778  38.1655812  51.4950562
  52.6071358  15.7770753  26.0566592  53.0417681  15.0070488  25.6900740
  53.2750082  16.4624047  26.0343480  56.5728378  15.2094698  41.7071199
  57.0606709  14.6547198  42.3158121  56.3970327  14.6434379  40.9555006
  38.6557388  22.1808243  10.9146607  37.9010248  22.4431562  11.4417493
  39.0063858  23.0031466  10.5725110  37.8584909  20.8658981  22.4969959
  38.6316490  21.0722089  23.0222535  37.1325207  21.2740588  22.9688025
  63.9890575  29.7169948  62.9006290  64.5646477  29.2506909  62.2944212
  63.6568451  30.4577756  62.3935652  54.4233084   7.1579558  41.2689066
  53.7089968   6.7775780  40.7577229  54.9864244   6.4143592  41.4838362
  23.4899688  15.0386357  13.1287134  23.2434559  15.9474111  12.9566967
  23.2826066  14.5763886  12.3165798   2.3540020   2.8460884  17.0029616
   2.6314718   3.2728130  17.8136086   2.0802061   1.9701415  17.2749639
   5.1019430  32.4998498  45.2443600   6.0503459  32.5368118  45.3684473
   4.9122146  31.5693903  45.1240349  66.2116766  45.4379463  42.5237751
  66.2166119  46.2999249  42.1076012  66.9404316  45.4671049  43.1436920
  53.7580252  45.3989458   5.4994172  54.3339300  45.8141327   4.8573998
  52.9225922  45.8560371   5.4027110  75.6875086  34.9302363  39.5488954
  75.5591249  34.8178267  38.6070299  74.8052025  35.0582266  39.8972988
  40.3445482  47.0678854  16.9097042  41.0254908  47.7375221  16.8453562
  39.6002889  47.5204802  17.3065364  65.3841686  57.6009607   6.6468412
  65.3219604  56.6503906   6.7405111  66.2714100  57.8126717   6.9370264
  66.4704609  37.1367955  29.1580749  65.9201527  36.6453409  29.7678828
  65.9282303  37.8789949  28.8909459  31.6116309   5.9417415  56.4636135
  30.7622695   5.7584530  56.0620880  31.9419169   5.0830770  56.7278814
  30.4801774   2.5926375  28.4851241  30.1845455   1.7602366  28.8538265
  30.3857780   2.4825005  27.5389791  63.0840111  35.4979944  46.7274189
  62.5971174  36.3143444  46.8403006  63.2476759  35.4449797  45.7858086
  24.9135876  18.7310219   7.3044837  24.4333577  17.9039133   7.3432612
  25.2842855  18.7516117   6.4222193  28.6980939  57.8253841  57.3880816
  28.0474281  57.6847935  56.7002583  28.4032559  58.6168337  57.8385305
  62.8332424  37.2617483   1.9003753  63.4765720  37.2192049   1.1928805
  63.2809877  37.7326274   2.6032463  60.2037144  74.3556786  18.3567619
  60.1833868  74.8022413  19.2031646  59.8818684  73.4737539  18.5434711
  29.6346879  71.5413570  41.7270851  30.3351593  71.9930458  41.2563896
  28.9481378  71.4158440  41.0720062  28.5688019  63.6030388  13.1364179
  29.4621420  63.8343334  13.3907318  28.2012057  63.1790018  13.9118540
  71.2442064   3.8109496  39.6322656  71.2821960   4.0525857  40.5576849
  70.7314157   3.0028468  39.6165824  52.0656443  70.8988571  47.4698448
  52.0581675  69.9417830  47.4564171  52.2643995  71.1240959  48.3786869
  74.4367409  53.0612850  43.5346508  74.8967552  52.7862692  44.3277359
  75.1340151  53.3010721  42.9242897   8.7939757  33.6317849  43.0866241
   8.5416317  33.0501032  43.8037014   9.7376132  33.7502122  43.1950474
  76.0537815  49.0954638  45.0981188  75.4713345  49.6124077  44.5415592
  76.7640209  49.6959162  45.3244877   0.7484279  56.0174465  61.0307646
   0.7737084  55.3907871  60.3076553   1.6680986  56.1689281  61.2486839
  59.4295979   5.9877181   0.1494852  59.2358732   5.1818061  -0.3292733
  59.1579676   5.8033431   1.0486265  32.9505610  70.1477766  39.6748090
  33.6200976  70.7046700  39.2775345  32.3036194  70.0190735  38.9811707
  68.9950180   4.7704256   7.9767132  68.2897234   5.0280821   8.5703456
  69.7480583   5.2889013   8.2601672  67.9809284  70.9098244  46.4634228
  68.3618784  71.6380072  45.9726477  67.0398951  71.0849524  46.4599562
  58.2003593  47.4325514  12.0935309  58.8255596  47.8084469  12.7132595
  58.3626986  47.9018116  11.2751937  22.2090030  66.6556311  19.3076754
  22.1468091  65.7083559  19.1850686  22.7318215  66.9593716  18.5656273
  26.0570049  10.7748187  49.6577454  26.2060428  11.0544789  48.7545204
  25.3190589  11.3072729  49.9546623  75.4355621  71.7794466  45.8906555
  74.7803926  71.1676550  45.5549574  75.2390575  72.6062822  45.4502392
  43.5734558  12.2958505  55.9764671  42.7776861  12.7966249  56.1559343
  43.8299704  11.9406593  56.8275070  27.5929666  60.5929422  41.6438723
  27.2136784  61.3307953  42.1213102  26.9021749  59.9303627  41.6388798
  78.2145262  18.7070525  36.8883276  78.3842850  18.3590341  36.0129428
  78.3341312  17.9574454  37.4714351  38.5920143   7.9964817  58.4157133
  38.0543828   7.2047216  58.4330511  38.5996485   8.2607090  57.4957371
  10.7169473   1.7357764   2.3662232  11.3642013   2.2749287   2.8207660
  11.1682439   1.4331169   1.5782127  40.9138489  25.8905292  50.7176399
  40.1180744  26.3972020  50.5556011  40.8265543  25.5902767  51.6223288
  75.7797146  38.7273097  37.5297618  75.5997801  39.6616650  37.4256802
  75.9922695  38.6262274  38.4575748  24.2005777  71.7788410   6.7774415
  24.5374799  72.6744461   6.8023485  24.7563338  71.2967634   7.3897910
  10.6080127  19.4503784  27.6725721  11.5028799  19.4353485  27.3331356
  10.0602329  19.2540514  26.9125557  48.8115788  17.2393310  24.0925670
  48.7760258  17.6425529  24.9599648  49.2613506  16.4062941  24.2339420
  43.7767267  63.6859798  37.6833773  43.5571861  62.7574396  37.7598310
  43.9348269  63.8185406  36.7486787  65.4854679  65.7379198  57.3186398
  64.6008492  65.4810715  57.5788641  65.5853605  66.6281509  57.6558971
  70.4237318  43.0305147  11.2242305  69.9907446  42.3058891  10.7729316
  71.2611389  42.6671505  11.5122366  61.1488724  63.6186838  33.0923295
  61.5606356  63.6346102  32.2283673  60.5214882  62.8972864  33.0453801
  74.8261023   3.5671967  56.2761927  74.1633844   4.1786236  56.5974236
  75.5797911   3.7081078  56.8491936  26.7661476  19.1350198  24.9643445
  26.9967556  20.0433993  24.7696686  26.7663789  18.6998606  24.1117787
  37.4788761  10.1351655  61.2882233  37.3419428  10.2931225  60.3541327
  36.6938686   9.6650338  61.5692377  39.0009117   8.3251172  44.3098211
  39.6292162   8.3882362  43.5904598  38.1474233   8.4459996  43.8936758
  19.9354064  23.1152248  52.2957134  19.1767192  22.5524378  52.1411324
  20.6594968  22.6663041  51.8593693  37.0417571  69.9430275  50.3974485
  37.0074368  70.1267672  51.3362217  36.1726499  69.6006632  50.1884699
  37.3737884  50.6417036  12.6187861  37.3247051  51.4987993  13.0421221
  36.6020441  50.1730490  12.9365945  41.7984438   8.2497716  39.1976404
  41.3370180   7.4167961  39.1003370  41.3268805   8.8532937  38.6235166
  59.9979639  52.5732660  41.8828678  59.5061064  51.8391514  42.2508144
  59.7186422  52.6142931  40.9682465  69.6276140   4.9330223  59.6604156
  69.7800303   5.6527835  60.2727413  69.3404102   5.3613514  58.8540173
  21.0565495  59.3480158  44.2455769  21.9773984  59.5962191  44.3272114
  20.8210588  59.5924044  43.3505630  28.0735421   3.8458771  55.1633596
  28.8626552   4.2155787  54.7673130  27.8368545   3.1168041  54.5900679
  28.5881305  67.3722506  33.8169217  29.2995906  67.4103403  33.1776977
  28.9090347  66.7805672  34.4974852   3.4847596  42.5688028  54.3805265
   4.0199968  41.9455385  54.8717451   2.6222458  42.1567106  54.3307400
  39.7418427  21.7001033  57.6384878  39.1559172  21.7564273  56.8836689
  39.9751115  22.6086998  57.8289413  14.4657815  19.8820341  61.5787554
  13.5840273  19.8787069  61.2062931  14.3334508  20.0804043  62.5057793
  33.2883382  53.2654095   0.5257596  32.9899192  52.7319765  -0.2108701
  33.3086920  54.1585207   0.1819916  55.7166529  12.9732561  62.1615505
  55.3682137  12.0840287  62.2255373  55.5296850  13.2395601  61.2613487
  21.1580896  66.4500189  46.6022348  21.0454822  65.5340528  46.3481665
  20.2661371  66.7892075  46.6770792  57.0420885  38.1248546  50.2208185
  57.0354128  38.7824011  49.5252466  56.7524672  38.5982513  51.0007191
  22.1890855  40.0076914  63.6769629  22.5250101  39.5373464  64.4399595
  21.2419558  39.8733807  63.7106848  39.8759055  45.0429869   9.1925162
  39.5210290  45.6720543   9.8206598  39.8042607  45.4836082   8.3457863
  40.9334660  69.2958879  46.7840147  40.1292372  68.8040686  46.9500113
  41.4756060  69.1362715  47.5565672  71.1353302  22.2642994  32.4177265
  71.4707804  22.2161293  31.5225267  70.6693316  21.4377308  32.5436807
  26.9486213  69.1846561  62.5362968  27.5905085  68.8832283  61.8933725
  27.4397254  69.2430258  63.3558369  24.0565228   1.3564181  34.0875840
  23.2495618   0.8742672  34.2680717  24.7563958   0.7316263  34.2774367
   7.6039118  38.8671350   1.2987638   7.9838306  38.8627362   0.4201999
   7.1882868  38.0091286   1.3842785  51.7825842   3.4332213  29.2340875
  51.9359112   2.8562173  28.4858966  52.0731211   2.9254046  29.9916768
  35.9898257  73.8379192  38.6024261  35.1871061  74.3402958  38.4628201
  35.9416461  73.5586548  39.5167136  71.2591457  26.4566779  39.2727065
  70.7908583  25.6736255  39.5621300  72.0298338  26.4978337  39.8389030
  55.0959396  21.6913414  54.0565157  54.9721003  21.8040466  54.9989557
  54.7859621  22.5123668  53.6743355  56.3464308  43.6528587   6.8199861
  56.6035175  43.9860201   5.9602535  56.2286520  44.4374609   7.3554802
   2.8802354  74.0555314  30.4318547   3.6612946  73.7399782  29.9773145
   2.3025042  74.3600816  29.7320652  59.9703932  32.1037245   2.9823503
  60.5505371  31.3480306   3.0750546  60.5623436  32.8512549   2.8985345
  34.6627217   1.2208912   2.0071623  35.1437628   0.7482597   2.6864633
  35.1975589   1.1188242   1.2199120  62.9631186  49.5909643   2.6655456
  62.3923016  50.2694321   2.3048836  62.7694559  49.5884180   3.6029458
  46.1215210   2.6608133  59.9694538  46.4515448   3.5493845  59.8361921
  45.2343702   2.6784572  59.6104479  10.0021601  45.3785610  12.3479807
  10.7779157  44.8788500  12.6023901   9.7206986  44.9809217  11.5240312
  14.2275548   8.7919700  47.6684332  14.3467140   8.0323029  48.2384682
  14.1208458   8.4200591  46.7929220  71.1549854  25.5693293  30.3176951
  71.7319536  24.8060679  30.2899551  70.4259443  25.3395367  29.7415638
  40.3529167  59.8142719  58.2758999  40.8094358  60.5053377  57.7960491
  41.0079813  59.4722176  58.8842726  48.9538050  17.2380662  53.9806366
  48.7601233  18.0817866  54.3891144  49.5343733  17.4530530  53.2505989
  77.8183126  35.2106476   1.5907204  78.1695366  35.4531574   0.7339449
  77.7711010  34.2548728   1.5684190  51.6420269  22.8725767  58.6083889
  51.2144613  22.7483320  59.4557285  52.0115852  23.7544036  58.6536026
  59.9791050  18.6880553   5.1232773  60.0733185  19.0941453   4.2616242
  59.4855213  17.8849828   4.9568975  24.9740648  25.4447722  34.4467497
  25.5499911  25.3906965  35.2093863  24.1461873  25.0677538  34.7445941
  70.9510040  11.5322304  47.1982145  70.8434486  12.1759462  46.4980030
  71.4606714  11.9890988  47.8673506  42.4357033  36.2561202  55.6437635
  42.9893303  36.8556499  55.1434755  41.5602493  36.3746905  55.2753162
  66.8952131  60.2164984  28.3408403  66.2304688  60.9052086  28.3461595
  67.2766066  60.2585077  27.4639106  75.9633684  69.0899992  63.4534407
  75.8778524  69.1310358  64.4059277  75.7007122  68.1976748  63.2276058
  33.1539965   8.4410173  51.1604834  34.0728974   8.1729650  51.1588478
  32.6761818   7.6566750  51.4301729   2.2012135  45.9442472  51.7795467
   2.6900595  46.7644405  51.8469810   2.8756163  45.2664375  51.7349577
  37.0927644  10.5264866  38.1250525  37.1043420  11.4833999  38.1046891
  36.6478109  10.2750647  37.3157096  71.0215425   4.9032557  42.3485136
  70.8665991   4.6064359  43.2452440  70.2832317   5.4814643  42.1566677
  50.4316807  14.9816501  13.8594377  49.5293474  14.6664321  13.8077819
  50.4937935  15.6439435  13.1711495  51.2192583  13.9510000  50.5496359
  50.6192636  13.5403657  49.9270439  52.0750237  13.5769844  50.3398514
  -0.1904817  55.8050728  43.0873489  -0.2833172  54.9442768  43.4955692
   0.5527262  56.2052917  43.5386848  72.4411726  15.5313110  31.8601894
  73.2520342  15.6593633  32.3524714  72.3396397  14.5808911  31.8089485
  32.5183034  57.1955919  37.2834444  31.7495608  57.5015020  36.8021083
  33.0545664  57.9796171  37.4015689  45.4769897  50.4017115   8.7044793
  44.6154070  50.3137398   8.2968378  46.0771608  49.9802542   8.0893373
  76.6657782  27.1458387  47.7013588  76.9107866  26.2205935  47.7126646
  75.8801365  27.1922374  48.2461882  36.9156885  60.5805874  34.4541168
  36.7921090  60.3773212  35.3812861  37.1329021  61.5127087  34.4401479
  19.3422222  63.2145834  19.9339974  19.3229795  62.6080418  20.6742454
  19.4003224  64.0813351  20.3359938   1.1466793  22.3782015   5.7932860
   1.1717896  21.5690684   5.2824980   0.2418474  22.6811814   5.7176977
  19.1230857  21.9434237  38.1167459  18.3143246  21.4317608  38.1350780
  19.1252565  22.3571396  37.2535729  26.7041302  40.1002455  10.4841602
  26.1088037  39.3822050  10.6991863  26.1360455  40.7845545  10.1302791
  36.9257259   9.2007488  48.0945206  36.0579658   8.8065952  48.0058336
  37.4707413   8.7232351  47.4690866  56.1793709  18.0270958  57.9654980
  55.5655003  18.2201433  58.6741066  56.9833946  18.4830439  58.2142735
  55.9153414  15.6517649  29.9905109  56.1307335  16.1342943  30.7886338
  54.9843168  15.4474115  30.0780702  18.9278552   0.8035967  38.7744093
  19.5751807   0.2632591  38.3213806  18.0838439   0.4850456  38.4544134
  51.5486670   9.2141354  36.7237830  51.9044352  10.0731468  36.4962721
  51.0796690   9.3591237  37.5455213  66.6315031  67.7875233   4.8612744
  67.1054602  68.5977507   5.0486773  67.2799778  67.2223425   4.4414106
  42.7471399  12.1947312  42.3213625  42.2389269  12.0770001  41.5188122
  43.2352257  13.0057383  42.1789789  31.9913101   3.6123246  41.6987276
  32.8149080   3.8454452  42.1271753  32.1166754   2.7066433  41.4154291
  32.2562909  20.1275229  28.9208055  31.5461659  19.6244192  29.3193555
  32.8293848  19.4665539  28.5323262  51.6665316  10.9023857  49.2710924
  51.8020821   9.9663091  49.1240597  52.1528196  11.0916734  50.0735426
  50.6436777  15.3816772  59.7390556  51.4655352  15.2561772  60.2134275
  49.9995470  15.5700648  60.4215765  47.3727560   5.7130498  47.7851295
  47.7691317   5.7188541  46.9138765  47.2003412   6.6350508  47.9759741
  58.2338572  53.4176826   6.2312955  58.9013433  52.9087830   6.6914225
  58.4586191  54.3296719   6.4156461  78.3803489  73.6832052  16.3885677
  79.3095138  73.7075296  16.6172516  78.0017402  74.4349348  16.8444073
  24.6725154  13.6925161  44.3387985  25.2340603  14.0752280  43.6646795
  24.5702028  12.7782094  44.0745831  78.0076763  53.2324219  58.5004091
  78.8379994  53.4669495  58.9148903  78.1340757  52.3310614  58.2040930
  34.9584103  25.5987024  57.9532337  35.7885408  25.4461527  58.4047270
  34.8310423  26.5462470  57.9997873  77.5664377  26.5403700  50.7167912
  77.8805161  26.9819927  51.5058136  78.3084536  26.5723705  50.1129532
  75.4525137  61.1019325  21.3955903  75.9153509  61.8282366  21.8133211
  74.5719099  61.4404726  21.2338352  58.2495260  29.6979499  55.4091549
  57.4050093  29.3846321  55.0853443  58.7636232  29.8612070  54.6184063
  58.6937571   4.5093936  54.4104815  58.9095259   5.3380549  53.9827013
  58.1706762   4.7617245  55.1713705  10.7985580  73.3478212  26.8567061
  11.1240101  73.3629656  25.9566593  11.5355647  73.6575413  27.3831344
  57.6358938   7.5276566  57.5039101  57.5958395   8.2758212  56.9081926
  57.4085903   7.8906626  58.3599424  74.0339470   9.3792665  54.9045515
  73.4896231  10.1651990  54.9520206  73.4078360   8.6563164  54.8650122
  37.5039768   8.9759755  33.0606675  37.6554084   9.8649091  32.7395797
  36.6731119   8.7159127  32.6628423  14.2285359  11.1645555   3.7670881
  14.3923235  12.0639729   4.0507323  15.0503850  10.7053983   3.9402083
  60.4419518  59.7551107  11.3099837  61.1677217  60.0558853  10.7631505
  60.8494759  59.5301580  12.1463764  51.0078096  16.7340732  29.3880725
  50.3541470  17.0675087  30.0027084  50.5112648  16.1755121  28.7900090
   2.3873228  70.3246546  51.0113764   1.5093359  70.7048798  50.9830570
   2.6958352  70.3666735  50.1062298  59.1994429  56.8701363  38.7440085
  60.0124741  57.3752546  38.7358618  59.2630005  56.3015842  37.9765844
  73.9716721  26.3127041  23.6343431  73.6858177  26.3408613  22.7212548
  73.5470629  27.0677209  24.0416384  36.1403871  64.6739769  37.2194886
  36.0650539  64.0014029  37.8963900  37.0773029  64.7175789  37.0283890
  11.8775594  63.7159777  40.0425959  11.9797540  63.0344677  40.7069254
  11.8834531  64.5354414  40.5372429  38.0091524  68.9506531  15.5083871
  38.1060505  69.5737219  14.7882283  37.1605062  68.5358191  15.3536403
  47.3899698  23.0963588  52.6753664  46.7381668  23.7900829  52.5747108
  47.9738760  23.2056022  51.9247961  63.4379625  65.9340477  11.8692267
  64.1759586  66.1879587  11.3150346  62.8678036  65.4269314  11.2913132
  76.6360569  37.2722030  52.1277237  76.4863682  36.3339138  52.2436476
  76.2069988  37.6780558  52.8810024  49.8524952   5.2127677  36.9029617
  49.7530413   5.9379178  37.5198054  50.4015255   4.5790893  37.3647523
  55.1551390  15.9462798  51.4832878  55.7947397  15.7146680  50.8098650
  54.3868542  15.4138625  51.2771416  57.5688696   9.3064988  32.2239375
  57.6568937   8.9301741  31.3482285  58.2329464   9.9950981  32.2565699
  50.4445696  19.9060583  41.0791779  50.5470324  20.8258224  40.8347034
  51.0261488  19.4336748  40.4834843   8.7574720  58.7497425  38.4642982
   9.4905460  58.5208130  39.0356350   7.9797649  58.4799957  38.9528060
   6.0899878  67.0038223  19.8608053   6.5849042  66.1917400  19.9695027
   6.0660118  67.3887825  20.7368541  28.2080436   6.1144447  47.8428555
  28.4207773   6.1765546  46.9116640  28.8823748   5.5395269  48.2047653
   2.0130441   4.6605811  46.0303164   1.9180937   3.8480952  46.5273905
   1.8108703   4.4141865  45.1277399  46.9709730   6.8487519  34.8004866
  47.7750111   7.3661399  34.7551155  46.5447092   7.1387887  35.6069660
  24.5671487  61.6752958  46.6101265  24.8374987  62.5470400  46.3216829
  25.3131342  61.3470554  47.1121216  24.8538184  19.5370007  30.1884317
  24.6293378  18.6065340  30.1799417  24.7453904  19.8178446  29.2798066
  67.0468998  22.3752546  26.7916822  67.1094751  21.5235281  27.2239757
  67.8519487  22.4430180  26.2783241  51.4276838  44.2278767  62.3698139
  50.6261492  43.7050200  62.3895836  51.9802666  43.8450146  63.0512094
   3.2225507   1.9990358  59.7246742   4.0081984   1.4796074  59.5538425
   3.5178825   2.6934090  60.3136206  29.2373633  15.5468976  61.6532183
  29.1379666  16.3761771  61.1856174  28.4055662  15.4294789  62.1120834
  63.8705587  32.4013901  44.7087812  64.3056583  31.8329072  45.3441906
  63.0284405  32.6113749  45.1124859  36.8917060   4.7885799  46.2697029
  36.3010788   4.1699311  46.6994286  37.6610494   4.8196718  46.8383646
  24.7152162  69.4684172  61.1823177  24.5042968  68.5554361  61.3777828
  25.5798888  69.6028328  61.5702629  59.3566895  15.9135139  50.4576063
  60.1564074  15.9795821  49.9357605  58.6757183  16.2915814  49.9012184
  59.3516207  14.0214348  48.0293226  59.6737909  14.2075014  47.1473789
  59.5933390  14.7937632  48.5405111   1.4293870  55.0816011  28.5429072
   2.3126698  55.0194550  28.1793380   1.2503254  54.2069006  28.8879752
  38.6464667  48.5105324   1.4692850  37.7638841  48.8161182   1.6787939
  38.8214636  47.8242540   2.1132010  29.5998335  60.7312632  31.2912655
  29.5431304  59.8873138  31.7393398  29.5538187  60.5119276  30.3606701
  14.2859566  38.5975695  53.5740185  14.2847908  37.7762222  53.0824709
  13.7532318  38.4143257  54.3478775   1.0644488  40.6438875  29.9755239
   0.7489399  41.1210012  29.2080283   0.4378275  39.9290037  30.0874209
  75.3055286  63.9387035  13.7640154  75.4058981  63.8828325  14.7142971
  75.5234241  64.8466015  13.5531223  42.5768805  38.6805916  60.0185394
  43.4074116  38.2137513  59.9263144  42.3808193  38.9970803  59.1367054
  65.8128166  72.4798441  42.8791380  65.2729893  72.7578831  42.1391964
  66.3350821  73.2515955  43.0979443  41.6743326  65.5525970  59.5001268
  41.2175655  64.7663546  59.2011118  41.1487055  65.8703470  60.2342844
  30.9435225  17.8373325  37.1478915  31.4199781  18.3791184  36.5188551
  30.0539732  17.7898002  36.7976403  15.5261111  21.9972301  53.4728813
  15.8928442  21.6706681  52.6512384  16.0653257  22.7576089  53.6903715
  47.0473337  25.7622004  58.9310408  47.8306913  25.5763578  58.4133148
  46.3241673  25.6792450  58.3094454  27.7653718   8.7991029  38.9004302
  27.7464914   9.7283465  39.1293025  28.6482048   8.5126686  39.1345143
  47.3949814  21.3155746  45.8667040  48.0928993  20.8173585  45.4413509
  46.8075037  21.5625429  45.1524878  23.1218648  16.9235396  57.5510883
  22.4874783  16.2326097  57.3603058  23.2910681  16.8408525  58.4895802
  49.9093485   6.2594134  56.7046118  49.5927095   6.3056028  57.6067448
  50.7648754   5.8355027  56.7724657  12.1021533  73.2416725  52.2445345
  12.7540946  73.4159660  51.5656948  12.5702846  73.3813143  53.0676937
  19.3085682  10.3749931  46.1086321  18.9387488  10.8301330  46.8651485
  18.5652912   9.9142319  45.7194424  23.6288285  67.1923351  62.2534513
  23.5285330  67.4545145  63.1685686  22.7425337  67.2328329  61.8941879
  45.9801245  33.8660026   9.2066175  46.5660524  34.4688344   9.6643448
  46.2910461  32.9952979   9.4544733   7.9994047  11.4210868  37.0563960
   7.4856532  10.7207561  37.4586749   7.4125767  12.1772981  37.0535469
  42.0481491  30.9639478   5.5136794  42.0542526  30.6590605   4.6063548
  42.8055191  30.5375862   5.9147245  14.2945957  46.6857433   6.1296690
  13.5416555  46.6411018   6.7190075  14.6067870  47.5872231   6.2077999
  75.4555655  64.3127871  45.3522730  75.9790468  63.5408115  45.5673218
  74.5647430  63.9774942  45.2510500  44.5597029  21.0885453  48.2370996
  45.1948833  20.3951311  48.0583382  44.1596794  20.8380556  49.0698481
  72.6105785  19.2502403  44.5269346  72.2988033  19.7277284  43.7581491
  72.8019571  18.3707237  44.2012691  30.2036238  70.8079576  48.6897802
  30.4020429  71.1121464  47.8041553  30.8919191  70.1718712  48.8843775
   7.5596249  57.4439383  14.5051193   6.9384134  58.1466293  14.6963084
   7.9941696  57.2744083  15.3409803  61.5629768  33.4004402  45.9090281
  61.9602680  33.9061165  46.6180325  60.7167339  33.8219452  45.7592392
  58.3776712  49.2788887  44.7514915  58.9494991  48.5140944  44.6856785
  58.0772400  49.4311333  43.8555050   4.2710888  27.2625422  59.4714785
   3.6916795  26.8960738  60.1394701   3.7124744  27.3674750  58.7013006
  62.9486990  47.6176786  13.2500243  63.5813761  47.1393299  13.7858677
  62.0992327  47.2552824  13.5016406  74.8245192   8.3111840  60.0838375
  74.6354008   9.1356295  60.5318928  74.3721151   7.6468319  60.6036472
  39.5661426   2.2809702  46.3647985  40.4084921   2.2703265  45.9103060
  38.9895988   1.7523843  45.8130503  54.2618704  48.0461073  56.4978218
  53.4475565  47.9749441  56.9958782  54.7131586  48.7973928  56.8827057
  62.6787043  17.6862609  31.7358232  62.0334435  17.4406075  31.0728598
  62.5285053  18.6202741  31.8817377  69.9544764  21.8469620  43.0521870
  70.8112478  21.6048670  42.7006721  69.4597960  21.0275674  43.0630207
  12.7586377  34.3634558  45.8362055  13.0171824  35.2845335  45.8045340
  12.0521331  34.3350506  46.4813995  57.7757645  17.5671375   7.7245128
  58.6681604  17.4906695   8.0621743  57.2331285  17.1297276   8.3806014
  60.5765200  33.1885290  61.6790771  61.1569118  33.8091135  62.1198130
  60.3128719  32.5772238  62.3668480  38.2617188  45.9704971   2.8463787
  37.7386189  45.6434107   2.1145236  37.6785254  45.9110117   3.6030677
  31.9897771  68.9368773  49.6998596  31.9522882  68.0135632  49.4502306
  32.9213452  69.1550493  49.6713924  39.8778963   5.0473541  47.9814005
  40.0111961   4.1128933  48.1402874  39.8607755   5.1281041  47.0277643
  51.8332338  58.5610867   4.0902197  51.5686274  58.1586218   4.9174070
  51.0088444  58.7662792   3.6491874  32.8242612   6.5077537  60.7058096
  33.1858039   7.0357001  59.9939203  33.5917306   6.1816800  61.1758041
  36.1768270   9.9368417  45.0320196  36.5023136   9.6075910  44.1942358
  35.2247906   9.8641533  44.9643612  69.7403479  16.0995436  63.0625868
  70.4915810  15.7143712  62.6114511  70.1001787  16.4346862  63.8838243
  18.4626615  50.0765419  57.7711535  18.2875013  49.1893673  57.4573469
  19.3720627  50.2431107  57.5232077  31.2381458  67.6447392  35.2991724
  30.5956268  66.9355774  35.2769852  32.0751309  67.2152185  35.1225305
  39.6592355  30.3089952  58.1403112  40.0029230  31.0699391  58.6083651
  39.3145251  30.6666803  57.3221016  65.0357151  24.3596196  60.2065802
  64.7684526  23.7473488  60.8920956  65.7947111  23.9443016  59.7971153
  14.0935493  34.8823571  26.6259861  14.5163465  34.3909597  27.3302627
  14.8147380  35.1596355  26.0609770   6.6004580  24.9410796  51.5239000
   5.9211928  24.9637818  50.8498716   6.1174804  24.9072647  52.3496246
  56.6826296  58.3567524  14.7115481  57.5259733  57.9728651  14.4714713
  56.7530203  59.2739964  14.4470811  10.6972575  47.5999451   5.7792336
  11.2578130  48.2883310   5.4212725   9.9534827  47.5599432   5.1780421
  15.2910924  64.4771099  44.8231316  15.4741824  64.4779968  43.8836050
  15.9305167  65.0862551  45.1923323  56.6444063  70.5204344  41.7502451
  56.0463715  69.9870157  41.2267447  57.1787262  69.8844147  42.2258615
  67.3507261  41.4714956  58.3907938  66.4892244  41.8700123  58.2673788
  67.8473616  41.7293167  57.6141930  67.1558285  15.9027421  51.7162752
  67.4713945  16.5735197  52.3218393  67.6566219  16.0497379  50.9138870
  36.1858392  62.6735163  62.8241062  35.4739332  62.9989529  63.3750248
  35.9240365  62.9049301  61.9329596  34.3856812  72.4557066  40.8644485
  35.0852323  72.8798103  41.3614368  34.3227983  71.5778446  41.2407827
  58.2597160  21.9729900  56.6108608  57.8432798  21.2329507  56.1690998
  57.5675058  22.3467898  57.1561623  56.0471106  31.1575174  39.7774220
  56.1226606  31.9363427  39.2260981  56.3368416  30.4380035  39.2165422
   2.4399294  52.5516033  43.6151981   3.3017468  52.3332596  43.9699221
   2.6125246  53.2408714  42.9738283  33.3975029  13.1520700  47.2564173
  32.9254055  13.2043910  46.4253807  34.2529130  12.7910852  47.0236206
  58.4834528   9.1055882  27.4728990  59.1955757   8.9213187  26.8604016
  58.7818956   9.8711711  27.9638648  77.9794804  20.6548882  62.2609138
  77.8362072  21.5594554  61.9825983  78.7859922  20.6874800  62.7754116
  11.1903250  61.7690659  56.0794926  11.0053778  62.5821161  55.6094122
  10.3500307  61.3114452  56.1063004  70.4239941  40.4249620  12.6496851
  70.1389790  39.5114017  12.6697135  70.8433008  40.5263662  11.7952061
  41.5000057  12.2081935  38.4612060  40.9142876  11.4581943  38.3579111
  41.0961485  12.7342045  39.1514540  70.1751614  18.4839690  49.1114044
  70.0538683  19.1501975  49.7879124  70.2944994  18.9824486  48.3030081
   8.5711378  72.3664665  54.4084120   8.3878183  73.1807613  53.9398479
   7.8560323  71.7808104  54.1596889   3.3443096  11.7876649  51.5221977
   3.7807435  11.6911364  50.6757736   3.6749157  12.6163054  51.8690252
   2.9541644  25.2142739   2.1918908   2.8983516  24.3372011   1.8126044
   2.6792315  25.0997710   3.1015792  64.3801737   8.6564422  33.1906629
  64.7222519   9.1877198  32.4716663  63.6371517   9.1578132  33.5264874
  56.5758133  10.3203392  52.9014969  56.2254333  10.8518624  53.6162996
  57.4283504  10.0232673  53.2195616   5.8101183   5.6101549  63.6103678
   6.5203881   5.1776183  64.0843534   5.6824189   6.4380449  64.0735340
  50.7413101  34.8013949  61.3137865  50.2231216  35.1514840  60.5891132
  50.2267265  34.0639591  61.6418552  51.4660740  33.8148642  55.6001663
  51.7669773  33.3241010  54.8354197  51.0146427  34.5754766  55.2342224
  20.8425069  67.0989513  10.3829741  21.4340210  67.4136305  11.0665822
  20.8173203  66.1500502  10.5061960  15.2525854  70.1733541  63.4718084
  15.5050099  69.8305178  64.3291187  14.3421638  70.4475737  63.5821152
  18.7202370  67.8804493  48.3440018  18.3872604  67.8113222  49.2387533
  19.1834366  68.7178898  48.3248472   0.4887060  70.8153772  46.9500923
   0.0660614  71.4763498  47.4984694   1.1439518  71.3022232  46.4502239
  18.2120091  12.3645838  63.6586684  18.3254439  11.4212997  63.5421228
  17.8060538  12.4522598  64.5210765  21.9787669  21.9045925  50.9777737
  22.9279423  21.9549656  51.0907555  21.7920470  22.4998927  50.2518320
  51.6265869  16.6168785  55.4360247  50.8095169  16.3804948  54.9969959
  51.4572430  17.4827945  55.8071613  46.1041451  36.9639754  57.1177149
  46.3245678  37.5376773  56.3838768  45.5653381  36.2746763  56.7294025
  61.7973375   9.7685623  39.3025732  61.3556910   9.1895187  39.9237752
  61.6071129   9.3891537  38.4446144  68.1457138   2.8242192  44.1273642
  67.8589153   3.1789443  43.2858467  68.0910158   3.5652319  44.7308016
  62.9047728  46.3146591  41.8393660  62.0195246  46.0322189  41.6095972
  63.4787846  45.7161808  41.3612843  24.7265172  11.6599691  46.7154980
  25.1060605  11.3910317  45.8789253  25.1409817  12.5012338  46.9071341
  47.2340059  28.2903862  40.6419182  47.1669579  28.3508420  41.5948486
  47.4205303  27.3668504  40.4730463  37.5856328  15.7663167  14.6923661
  36.9607615  16.4351153  14.4122279  37.0694399  14.9617112  14.7412491
  61.4738560  59.3036938  16.8574655  62.0459270  59.7903490  17.4508703
  61.1232567  58.5918903  17.3928642  57.5937939   6.1036325  25.6643867
  58.2357645   6.7473835  25.9638739  57.9159355   5.8250529  24.8071527
  18.6624944  15.3028643  17.2935259  18.8636482  14.6995938  18.0089521
  18.2700741  14.7503638  16.6175222  46.3886261  11.4014733  19.0025461
  46.5632725  11.9548082  18.2412636  45.9370661  11.9778752  19.6190584
   3.6275932  30.7098365  10.4520726   2.6875195  30.6194401  10.2961183
   3.9211673  29.8242021  10.6658411  20.0069380  47.8292990   1.4558467
  19.6142519  47.3200750   0.7468189  19.7132182  48.7264585   1.2975262
  49.4002342  33.1790495  49.0732145  50.1028442  33.8199043  49.1822195
  49.6184397  32.7200460  48.2620811   0.8656104  15.7770336  46.0328150
   0.8069041  16.5068209  46.6494131   1.7645180  15.4602778  46.1214876
  10.3663743  56.4211035  20.4047370  10.3463638  55.4920197  20.1753259
  10.6462789  56.4358425  21.3199782  71.8508673  21.6477489  17.0096290
  71.7509222  21.9586802  16.1098707  70.9950352  21.7976022  17.4112833
  28.0328822   3.1924382  10.9010148  28.0116320   3.0226550  11.8427968
  27.6253629   2.4200428  10.5091405  23.6474705  69.4308996  55.3069973
  24.1297674  70.2188349  55.0564384  22.7746415  69.7479916  55.5390596
  18.8813984  72.2758389  46.6590166  19.2165065  71.8340778  45.8787727
  18.9453816  73.2082796  46.4523935  33.9699483   9.5740879   3.6939847
  34.4781399   8.9210248   4.1751093  33.4472656  10.0128865   4.3651724
  23.5320544  73.7756538  10.9821057  24.3195176  73.9037418  11.5109956
  23.2717514  74.6593475  10.7221770  44.2629385  21.1382699  52.5087309
  44.8435259  20.4256177  52.2417593  43.6802435  21.2657118  51.7600965
  47.1690369  65.1087952  36.4082265  47.0210552  65.3135490  35.4849648
  48.1212521  65.0610399  36.4933300  48.6708260  39.7131586  48.0945158
  48.0776215  39.0435100  48.4349680  48.4338427  39.7958326  47.1708059
  10.1571965   5.7734573  11.2940395  10.5978549   5.6663322  10.4510832
  10.7607627   6.3039958  11.8141055  54.5936060  10.5068815  38.1899452
  53.7712145  10.5078614  38.6797452  55.2465725  10.1997030  38.8188410
  58.5707951  31.2834978  57.6017904  58.5789537  30.7518530  56.8058538
  59.4935560  31.4704275  57.7744293  45.3711939  17.9135358  48.5106468
  44.8296404  18.1939793  49.2484140  45.1236629  17.0003891  48.3653069
  69.1209221  28.1334257  40.0135326  69.8287916  27.7066851  39.5307827
  68.5257816  28.4514570  39.3346405   8.1038290  33.8485718  20.4841852
   7.3375094  33.6297393  19.9539983   7.7844673  34.4988298  21.1098075
  63.6671448  64.2293787   2.2183797  63.7404013  63.3384466   1.8761812
  63.4947443  64.1136360   3.1527847  64.1146469   7.2187155  47.8464222
  64.4657564   7.8526783  48.4717607  63.9626217   7.7271008  47.0497656
  55.7015610   7.5542319  44.4813299  56.5434408   7.5377870  44.0261364
  55.4174137   6.6402477  44.4924736  34.1901970  36.0581303   7.7179217
  35.0765562  36.4195061   7.7198678  34.2229056  35.3469372   7.0781046
  62.0314074  35.7573962  39.4735074  61.6152620  35.1511502  38.8607073
  61.3009596  36.1961198  39.9096298  39.8898292   6.9411272  60.7154465
  39.2814517   7.4180371  60.1509380  39.4940472   6.0754967  60.8168030
  20.2556705  41.0489273   9.9707299  20.9206390  40.7568264   9.3472517
  20.4438138  41.9779682  10.1038444   9.0887970  24.2912221  52.9383278
   8.5656345  23.8964629  53.6359644   8.4714192  24.4165730  52.2176552
   7.0037061  52.6334524   9.4861114   7.2921920  52.1970558  10.2877140
   6.3910252  53.3048916   9.7861415  57.8657913  35.5974340  62.6779222
  57.4303246  36.4215708  62.4601984  58.0329657  35.1838517  61.8310261
  64.0350437  40.6980276  15.7548499  64.2418671  40.8618927  14.8347390
  64.6197128  39.9837494  16.0082316  38.7632918  17.1455109  36.1854410
  37.9416323  16.7449045  36.4693809  39.0941381  16.5577900  35.5062079
  43.0148411  23.4630799  47.6930904  42.9509211  23.9530611  46.8732929
  42.8012562  22.5620079  47.4508429  10.5635667  21.7446518  55.0379658
  10.6522214  22.6224184  54.6666145   9.6187150  21.5987873  55.0849819
   6.1149609  25.0759149  58.2389307   5.7689226  25.7510257  58.8226414
   5.3377301  24.6683502  57.8567839  72.6138115  49.5604134  22.7425551
  72.0009041  49.6422863  23.4732199  73.3944511  49.1627502  23.1281710
  21.6857696  29.7833872   8.3420110  20.9347773  29.5254254   8.8765180
  22.4406672  29.6717286   8.9198476  57.7999067  19.0607119  61.5646696
  58.3421326  18.2776439  61.4696693  57.1576118  18.8274169  62.2349405
   5.5391473  29.6835947  47.2058439   5.2623516  29.5640445  46.2973738
   5.0827682  28.9940429  47.6879930  50.6318521  57.9503393  14.3786407
  49.8843527  57.5778627  14.8463321  50.4208279  57.8272486  13.4531415
  57.8936911  62.8290272  30.1511621  58.6704159  62.4187517  30.5314302
  57.7212954  62.3245764  29.3561506  71.5083694  44.2399502  21.9080949
  70.8137608  43.6159515  22.1187472  71.2292385  44.6400547  21.0845447
  30.0733542  40.1098156  15.8959639  29.4408798  40.7325220  15.5375743
  29.7754264  39.9549413  16.7923367  26.3316727  33.7645841   8.5033244
  27.0953131  34.0164351   7.9840398  26.6865993  33.2090592   9.1973341
  23.7612128  65.2678156  43.2564974  24.2589569  65.1742458  44.0687323
  23.8148212  66.2006855  43.0488586   1.4599580  14.3801880  26.9588876
   0.9478384  14.8250628  26.2835717   0.9712732  13.5773218  27.1400642
  59.9516582  48.2673311  56.3008356  59.8070049  48.6951065  57.1448183
  60.4246950  47.4638844  56.5174961  63.5239887  72.9300165   2.3776917
  63.0396414  73.7134171   2.6383123  63.1870604  72.2392464   2.9482558
  76.3789463  33.1518102  17.0550215  77.2857666  33.2266593  17.3521948
  76.3717222  32.3702383  16.5024590   3.4875825  47.1168518   9.6013302
   2.6396167  47.4587774   9.8846561   3.3640993  46.9072247   8.6755663
  28.8701391  57.1491480  54.3276596  28.1098318  57.5255203  53.8843727
  28.6619401  56.2186718  54.4119167  69.8390388  47.0887089   0.9511447
  69.9875212  46.1432505   0.9681107  69.0315437  47.1953583   0.4483452
  10.2483654  58.3993244  23.6200857  10.6580651  57.5347233  23.5910678
  10.8681571  58.9418173  24.1077280  63.5562992  50.2658415  60.5933189
  62.8079844  49.8530197  60.1622295  63.2156897  51.0992718  60.9182882
  52.1610451  63.4526920  14.5610952  52.0050907  62.5145388  14.4525695
  53.0914164  63.5174704  14.7766089  76.9048452  14.6325433  33.3399534
  76.3662910  13.8834667  33.0848479  77.5515604  14.2678857  33.9441156
  72.5064707  53.5985994  48.7459421  72.3351145  53.2816839  49.6327543
  72.2609138  52.8676844  48.1787634  20.7337427  13.3210146  45.5909491
  20.0829554  12.7223849  45.2244091  21.5532303  12.8268862  45.5684376
  65.3574991  41.4749956  53.4314823  65.6275940  40.5645657  53.5514593
  64.8995543  41.6977596  54.2419720  52.4067545  42.0220470  43.8187885
  51.7107534  42.3829317  44.3679523  53.1413603  42.6243067  43.9365721
  65.4505920  14.4403017  63.1958818  66.2544107  13.9745784  63.4265566
  65.3225803  14.2512035  62.2663164  66.7409372  60.2355719   0.6453982
  67.0871067  59.6219110   1.2933341  66.2034416  60.8428431   1.1538760
  39.8668265   3.3727637  22.5324941  38.9428997   3.5249311  22.3339152
  40.2671146   3.1878576  21.6828966  30.1038241  68.3617163   9.3684685
  30.3306079  68.6421347   8.4818095  29.9256682  67.4249363   9.2851955
  65.9736919  25.6662393  38.7041497  66.2241220  25.8646107  37.8018379
  65.0511742  25.4172802  38.6474586  48.7950754  23.4628844  50.4015875
  48.3837795  22.7471542  49.9170256  49.6963978  23.4829998  50.0799656
  23.0183887  48.0228901   5.0851178  22.2867513  48.2592440   5.6552714
  23.7931681  48.3519459   5.5408263  29.5369196  56.2736607   3.2624620
  29.9920845  55.9785652   4.0511173  30.2158594  56.6999054   2.7394086
  63.1472969  46.9639874  63.3968067  63.6663723  46.9505405  64.2009306
  63.1859970  46.0645294  63.0716801  17.5316572  26.7312241  21.2159801
  17.3719597  26.8997931  20.2873707  16.8511152  27.2280860  21.6700959
  28.8084793  16.5871060  32.7799964  28.9985490  15.9521997  32.0893455
  28.2668424  17.2507250  32.3528266  52.4588251  65.2744341  55.2066994
  51.7345142  65.2728271  55.8324814  52.8121948  66.1628819  55.2516270
  14.6787834  57.9317570  63.4878588  14.6358573  57.8248835  64.4381046
  14.4230711  58.8418150  63.3373976  53.1948042  59.4660139  19.3243551
  52.7877998  60.2186680  19.7534120  53.0087948  59.5912981  18.3937979
  27.8895068  69.6090937  36.0764289  27.1401811  70.1954842  36.1807942
  28.3312941  69.9230862  35.2874637  49.0589762  66.2233448  48.0173016
  49.4129181  67.0802784  47.7793407  49.2614269  66.1307001  48.9482498
   8.0592841  50.5809689  19.0298152   7.1295661  50.8085680  19.0224111
   8.1826043  50.0517845  18.2417858  36.8615127  53.1676292  13.5412014
  36.0124564  53.5970640  13.6457086  37.2219324  53.1307554  14.4271863
  55.2999353   2.6862007  46.0867453  54.3826056   2.7504349  45.8210182
  55.2812910   2.1613404  46.8869972  56.7900515  38.5894442  17.0917487
  56.0386467  38.9854598  16.6503990  56.9135475  39.1211581  17.8780448
  74.3563795  10.2922153  58.1122494  75.2520275  10.5291486  58.3528805
  74.3989992   9.3546784  57.9239941  24.6044755  62.3230267  56.6015768
  23.7958622  62.1228361  56.1300898  24.4858408  61.9208527  57.4620485
  71.3381481  30.8168912  27.1740341  71.6229057  31.4535689  26.5184522
  71.5279722  31.2361312  28.0133414  78.2731485  39.3878174   7.0306718
  77.6441383  39.6067500   7.7181643  79.1266537  39.5910048   7.4133945
   6.3740259  26.5312696  10.1666141   6.9528651  25.9203386  10.6226170
   5.8018243  25.9721327   9.6410835  33.6046481  62.3836231  63.9209223
  32.9067302  62.5012827  64.5653582  33.1710768  62.4963808  63.0750322
  35.2644920  59.9244213  42.6823282  35.6782031  60.1215935  43.5226822
  35.8036184  60.3815174  42.0368528  31.0042453  17.8551269   7.7783000
  31.7847252  17.5348210   8.2305026  31.0261273  18.8036013   7.9053748
  10.9727657  58.9459801  43.2580471  11.8597066  58.6729527  43.0234718
  10.6532526  59.4117022  42.4852324   1.1934809  14.2942309   9.6644336
   0.8666853  14.6435344   8.8353240   0.7339482  13.4613645   9.7711879
  20.6982064  10.2139616  21.0992575  19.9010837   9.7634351  20.8202386
  20.4706788  11.1432791  21.0703945  43.7638426  60.0997353  11.4846432
  42.8962708  59.8836565  11.8264890  43.6149502  60.2948570  10.5594468
  53.2094622  22.4449348  40.0376034  52.2550821  22.3748183  40.0157785
  53.4732866  22.4098182  39.1181517  19.9232578  63.8481617  62.0485592
  20.6323647  64.2818403  62.5232410  19.1810083  63.8721466  62.6524830
  48.7536240  29.0324283  52.4985266  49.1793394  29.3626046  51.7073345
  48.0476046  29.6559930  52.6686287  32.5408220  65.1040030  38.1285572
  31.8106079  65.5818224  38.5218859  33.0481458  65.7752228  37.6721311
  14.4843531  65.9346056  36.9199538  15.0771582  66.4964342  36.4207911
  14.5604324  66.2472248  37.8214598  70.1537848  54.0737343  28.2726359
  70.7822227  54.2017984  27.5620770  69.4619131  54.7118378  28.0983806
  45.2489471  29.6648502  39.3402267  45.8287525  30.4086399  39.1764021
  45.8014584  29.0247130  39.7887659  48.6564875   2.1843533  45.7145786
  48.2911205   2.7293691  46.4114952  49.5660686   2.4723123  45.6372786
  52.3058176  23.8524938  17.6152372  51.6068077  23.2939100  17.2752261
  53.0809021  23.5976696  17.1146977  63.7260199  36.4702511  21.6918898
  62.8202343  36.5144277  21.9982195  63.8234520  35.5776191  21.3603044
  59.3011475  48.5149717  49.4124174  59.9315691  49.2332172  49.4664478
  59.7907782  47.7960730  49.0128183  47.2848177  37.9524136  49.4705153
  46.8816948  38.0810213  50.3291082  47.1254110  37.0308518  49.2666960
  69.4211149  42.2340584  33.5047507  69.5462465  43.0638409  33.0442715
  69.3149090  41.5868759  32.8075409  25.4704452  20.7848692  32.5249505
  25.4433060  20.5556369  31.5960002  24.5694518  20.6690311  32.8266525
  14.2472744  26.5005016  54.3352699  13.4206784  26.0343528  54.2100716
  14.1651595  26.9061160  55.1983833  14.2272794   1.1337711  63.0756044
  14.6058786   2.0127699  63.0596113  14.2315066   0.8544707  62.1600723
  41.2320679  58.0115144   0.2019497  41.9706815  58.5355799   0.5118509
  41.2360220  57.2363822   0.7635399  55.4267883  18.3933556  62.6558113
  54.5270586  18.3711624  62.3298883  55.4760027  19.2002273  63.1684208
  52.5186974   0.7663210  64.4530017  52.8643805   0.2774199  63.7062010
  51.5944917   0.5204280  64.4931668   9.0065831   3.7204435  17.0834768
   8.7390119   3.8421994  17.9944170   9.7228217   3.0869201  17.1268594
  74.3664885   4.4579020  26.1895204  74.2354536   5.4058516  26.1682320
  73.7455320   4.1157782  25.5464029  59.0627146  26.8549871  47.5510597
  58.2491255  26.3527274  47.5059080  59.4357491  26.7861915  46.6722298
  76.0254765  62.2298431  11.2282574  76.3220453  62.9055262  11.8379545
  76.5362692  61.4549589  11.4625227  63.9980650  72.8432035  44.9707747
  63.2130718  72.3077393  44.8554611  64.3827724  72.8957844  44.0958643
  16.3635230  31.4418578  59.8014879  15.8027565  32.0635080  60.2655220
  17.2125077  31.8804455  59.7458315   2.7601409  36.8081260  52.0514917
   1.9221954  36.8510222  51.5907955   3.2316566  36.0926437  51.6248894
  73.0528450  28.3012843  53.1456947  72.7468777  27.4677444  53.5032225
  72.5525999  28.9641404  53.6217260  59.7220087  68.8722038  44.9654865
  58.9571524  69.2067957  44.4972134  60.2158070  68.3888054  44.3031311
  73.2945871  28.7998843  44.6117640  73.4066963  27.8909492  44.3333769
  72.3461866  28.9214826  44.6563482  50.7221174   1.8322299  58.8448620
  50.3443527   1.2460394  59.5005369  49.9941921   2.3933534  58.5774755
  67.8530979  39.0261388  34.5000672  67.4166346  38.7711883  33.6872149
  68.5023499  38.3387542  34.6490908  64.2138481  52.3120499  41.7354536
  64.4495392  53.1692076  42.0903635  63.8714790  52.5005150  40.8616734
  -0.1797247  32.9470897  18.3504117   0.1382118  32.0592093  18.5141778
   0.2045679  33.4723687  19.0522885  65.8406162  42.8374052  27.4910903
  66.1537266  43.6294985  27.0543122  66.4626837  42.6955271  28.2046247
   7.3989040  43.5685158  18.3302474   6.8440360  43.1410074  17.6778769
   8.2846582  43.2700253  18.1239116  58.5025072  61.6188478   5.6118429
  57.9101753  60.9504843   5.9563178  59.2351389  61.6300249   6.2277651
  40.9942007   0.2893259   4.1109231  41.0462713  -0.1970483   3.2881469
  40.3835106   1.0035312   3.9287254  45.5452967  20.3902268   9.5287824
  44.6501207  20.5059457   9.8473728  45.5129242  20.6739306   8.6151654
  70.1708269  38.0680728  39.6656036  70.4107046  37.9453278  40.5840921
  70.9447289  37.7885842  39.1765285  31.2870193  34.3924427  20.9371424
  30.7208157  33.9660048  21.5804124  32.0250559  34.7228217  21.4493752
  42.6012087   8.6463684   5.5549759  43.3387041   8.0801517   5.3275281
  42.1494627   8.7964541   4.7245356   4.8601335  55.7304525   3.9545888
   4.6831280  55.0457191   4.5996028   4.8965564  56.5382957   4.4667360
  67.5263357  39.7697592  38.7843704  68.1696272  39.7144032  38.0777264
  67.7451181  39.0409541  39.3650675  12.9143476  37.8926301  58.2938290
  12.3174286  38.6309695  58.1722784  12.7101231  37.2981691  57.5719309
   0.8381258  62.7125597  61.6351128   0.4627111  63.5221624  61.2889338
   0.1072466  62.0945358  61.6446066  28.4743452  17.1349359   2.2017859
  28.5202575  17.9305875   2.7319384  29.2697883  16.6517901   2.4255593
  62.4160147  44.3892288  49.9260616  62.0530987  43.6192513  50.3638506
  62.7621937  44.9282169  50.6373167  63.5545635  27.9204869  53.6805773
  64.1636467  28.6046219  53.4027147  63.2706881  27.5069857  52.8653049
   3.2376304   9.8023385  32.3613071   4.1863638   9.9293315  32.3582172
   3.1229180   8.8529885  32.3187923  77.0984814  65.1717806   9.9719197
  77.5857483  64.3750143   9.7622311  77.6498513  65.6297493  10.6063366
  77.7918495  19.0138638  43.7647676  78.1592802  19.7625625  43.2950068
  78.2163330  19.0374267  44.6223736  30.7334518  38.9645648   2.1149528
  31.0099697  38.5435224   1.3010155  30.4508519  38.2413578   2.6747221
  61.6038275  65.5112362  47.1415091  62.2115707  66.0420179  47.6564360
  62.0618248  65.3563595  46.3153791  51.9144630  28.8359356  50.3011131
  52.4486589  29.2476940  50.9803200  52.2823000  29.1588306  49.4785166
   6.2446592  71.9662182   0.7347675   5.7106445  72.2827522   1.4633699
   5.9060380  72.4314253  -0.0301842   1.1231319  18.6952984  16.7540550
   1.6568379  19.4744825  16.5982938   1.0193951  18.2991672  15.8888674
  65.4983521   6.7118686  51.8313360  65.6834793   5.7731557  51.8034744
  66.2727308   7.1203035  51.4443588  55.1861000  30.1154661  61.9705725
  55.8799696  29.4782257  62.1399927  55.6232309  30.8267140  61.5023041
  63.2865953  45.2110529  28.4220600  64.0237236  45.7771730  28.1931877
  63.5084534  44.3623495  28.0390263  49.5910978  39.2459488  51.3724470
  48.8419676  39.3921256  51.9500875  49.2061424  39.1447496  50.5019283
  65.3002596  50.8190918  45.6603575  65.1216269  51.7433405  45.8338261
  65.7365227  50.8152676  44.8083639  58.1479502  17.0054114  48.4571838
  58.6632490  17.4790657  47.8042269  57.2411060  17.2453928  48.2667160
  61.5281200   4.6922815  54.5216417  60.7765865   5.2823973  54.4650984
  61.1422157   3.8198388  54.6000957  65.0244713  14.0493584  60.4407644
  64.4164562  13.7384450  59.7700310  65.8797741  13.7268507  60.1567411
  13.7117779  12.8965294  19.6772647  14.0162802  12.9549825  18.7716746
  12.9234970  13.4390330  19.7003865  41.4352846   5.9927559   2.2648209
  41.9608974   5.3788960   1.7518522  41.5392542   5.6989563   3.1698650
  78.7017665  17.6776278  34.2739558  78.9193791  17.5868046  33.3462572
  77.7539095  17.8105199  34.2857337  14.0719652  57.2083426  13.7661469
  13.5444391  57.5556278  13.0468822  13.5170591  57.3075247  14.5397580
  67.3404408  60.3490925  54.1279411  67.4304867  60.7791185  54.9783516
  67.3319912  59.4139624  54.3321133  48.9799452  26.8055367   1.2396017
  48.2756948  27.2485399   0.7663000  48.6354923  25.9303212   1.4173210
  30.1432920  21.1827779  10.5745518  30.7248473  20.5843520  11.0435033
  29.2646217  20.8400488  10.7379735   9.4283789   2.5914246  26.4266968
   9.6104294   2.0386201  25.6667662   9.1958117   3.4418696  26.0540223
  71.7362785  31.5690923  61.2122726  71.8311930  32.3613358  61.7410231
  72.4460173  30.9982395  61.5066051  72.9854822  25.1853299  46.7684841
  73.2381964  24.5171952  46.1313343  72.7161741  25.9340382  46.2363720
  77.9966831  14.0865266  16.8027961  77.4247980  13.4490907  17.2304130
  78.8393593  13.6389756  16.7264855   3.2345775  22.7003598  41.4751101
   3.2106230  22.1930385  40.6637621   3.0793521  23.6032367  41.1977053
  67.3940325  22.8125334  47.6702881  66.5659142  23.2745385  47.5398636
  67.7353811  22.6785469  46.7861176   7.5875354  20.7562351  18.1741524
   8.1188226  20.0222158  18.4826672   6.7071933  20.3921819  18.0809057
  51.3928652  34.9684072  46.5949106  51.5667772  34.6176362  47.4683762
  50.6001806  35.4942703  46.7014456  41.1250162  28.4063554   8.7874770
  40.8929920  29.0925193   8.1617188  42.0321989  28.5967398   9.0262395
  72.8333187  24.5181990  60.9101534  72.6072598  25.0105309  60.1210165
  72.3563576  23.6929440  60.8224440  65.3917027  17.8655231  23.5809231
  66.0302448  18.5674238  23.7067461  65.7128382  17.3833382  22.8189516
  76.2592268  22.8565741  63.9887190  76.7001581  23.4274912  63.3595419
  76.9616175  22.3244047  64.3624496  13.2576632  29.0977645  47.4514103
  13.4208500  29.0130043  48.3907795  12.5834632  28.4442139  47.2655058
  75.5625963  44.6307755   2.9495034  74.6145773  44.7614479   2.9291371
  75.7499552  44.3764114   3.8530666  32.1992207  28.3878660  61.6414690
  32.3156953  28.0932140  62.5447083  32.9015708  29.0236068  61.5044641
  57.9407835  40.5973339  54.7174120  58.2953787  39.8671103  55.2246284
  57.1116257  40.2678633  54.3707466  44.3064260  13.4682405  20.0732255
  43.5424757  13.9557648  19.7651136  44.1086769  13.2660556  20.9876919
   7.5147784  21.3573861  28.5986376   7.4475890  21.0626173  27.6904368
   7.5110698  20.5503225  29.1132879   3.2973605  17.7840638  56.7642069
   3.4372890  18.6629474  56.4117622   3.4838706  17.1990490  56.0299015
   4.9977899  24.5655966   8.9311188   5.2544773  23.7156010   8.5735530
   4.1117194  24.7078133   8.5981256  70.9189939   3.1242627  31.9580817
  71.0649443   2.1887894  31.8172979  71.7742872   3.5258254  31.8049264
  64.3764210  44.2920446  44.3680191  65.0531530  44.6865368  43.8178921
  64.8549652  43.9297915  45.1136732  40.1127243   7.6156104  20.6007910
  40.1318359   8.5723567  20.6232333  39.4619226   7.3735297  21.2596416
  21.8082023  41.3104916  29.1983318  21.5466762  40.4066801  29.3742943
  21.1636209  41.8416882  29.6658516  65.2658081  49.9971342  58.5354328
  66.0282183  50.2639532  59.0490150  64.5476866  49.9726009  59.1678333
  65.4921436  23.4591794  50.0735855  65.1828575  23.3991909  49.1697168
  65.3793716  22.5757718  50.4244518  60.8103848  24.3653440  48.0438900
  60.2424335  24.9220729  48.5765457  61.5370369  24.9354172  47.7924442
  78.2536269  59.6231699  44.3011570  77.7117888  60.2345896  44.7999620
  78.8910361  59.2954683  44.9356270  65.0471306  10.7965946  31.5319848
  65.7493544  11.1068726  30.9602833  64.2946720  10.6888127  30.9502506
  28.0905938  31.4801812  14.8444510  27.4486709  31.0733366  15.4263854
  28.9357114  31.2978745  15.2552688  65.6998682  54.0267944  43.7688732
  65.9405518  53.1157446  43.6006737  66.3051796  54.3119860  44.4533396
   3.5675308  39.7175097  38.9381123   4.4097072  40.1720190  38.9578509
   3.4636495  39.3671632  39.8228168  64.5783043  35.1420951  61.3710356
  64.4241810  35.9739590  61.8187857  64.5166063  34.4829512  62.0623779
  65.4682827  11.1397350  43.4613514  65.9800959  10.7043827  42.7796268
  65.4185057  12.0524883  43.1773853  75.0219727  34.4240165  36.9704223
  74.4098616  33.7904716  36.5960264  75.2598143  34.9900556  36.2360764
  77.9818869  30.9511423  34.7543931  77.7453947  31.8496680  34.5242786
  77.3146868  30.6820917  35.3858113  71.2290001  72.0765209   6.8452281
  70.8514500  71.4450407   6.2329161  70.8271837  71.8631887   7.6874089
  24.8547482  11.3824785  32.6585340  25.7578754  11.3852119  32.9756927
  24.3625689  11.8503237  33.3331537  52.9530191  39.9315619  49.1794872
  52.4332047  40.4852295  48.5968447  52.4105930  39.8314524  49.9617767
  52.1603489  21.0997343  44.4133615  52.6903820  20.8343720  43.6617756
  52.0267248  20.2920341  44.9093390  40.4363251  34.0643382  53.5318232
  39.7319007  34.6977925  53.3948851  40.2026463  33.3220673  52.9744530
  44.6143913  65.5111837   0.8625227  45.5505228  65.7077074   0.8269341
  44.3753195  65.6493855   1.7790249  54.9485493  53.3980322  39.4348049
  54.0788746  53.6607838  39.1333747  55.0007057  52.4642515  39.2309403
  36.1490726  61.9777584  11.5599871  35.8930063  62.6901865  12.1457386
  37.0018625  62.2446251  11.2168169  14.2174613   4.4858715   5.0607127
  13.9089477   5.3137791   5.4289794  15.0539434   4.7035947   4.6494624
  69.6196556  50.2467155  19.0886343  69.2040539  49.5666981  19.6188104
  70.5320263  49.9672747  19.0129948  35.9215331   2.9231727   5.4208046
  35.8692265   1.9790789   5.2718663  35.0253510   3.1817430   5.6358111
  29.7363210  34.5355868  12.8322983  30.1269197  35.4094648  12.8324997
  30.4232192  33.9661360  13.1788945  46.1938524  10.9162343  31.5868187
  46.0444975  10.8054638  30.6478548  46.3815022  10.0332904  31.9052958
  32.1473742  73.1225872   9.0012169  32.1485806  72.1804380   9.1702878
  32.5402570  73.2105923   8.1328106  63.0772829  16.0880733  44.4257545
  62.6246119  16.7891061  43.9568520  63.9547300  16.4351642  44.5865202
   5.7792962  48.9346313  37.7221441   4.9702904  48.4653187  37.5184631
   6.4471900  48.5030508  37.1893311  69.5401239  13.2933152  45.0526428
  68.7512636  13.5448980  44.5723963  70.2056265  13.1750369  44.3748951
  27.7898479  34.1769695   3.9129263  26.9398785  33.8858199   4.2431021
  28.4251380  33.8002610   4.5218015  56.3089609  46.6327381  36.4121866
  57.1809340  46.4070892  36.0881877  56.2036467  47.5582457  36.1917782
  75.0664759  40.8688259  55.7491827  74.6809721  41.6716385  56.1000490
  75.5942345  40.5222511  56.4686203  59.8126602  29.6243119  60.0544643
  60.1536226  30.4585862  59.7320271  60.5661011  29.0342259  60.0354242
   1.1959694  53.5810184  40.6137896   1.2679502  54.2620611  41.2825441
   0.6744902  52.8932047  41.0275507  70.7539272  48.5678911  36.7609119
  69.8411846  48.3725405  36.5488505  70.7279873  49.4432831  37.1472406
  22.5246739   2.2474988  55.4870319  21.8060756   2.1288985  54.8659182
  23.2693481   2.5078231  54.9448872  66.1760426  50.7856560  24.5737338
  65.6074858  51.5101910  24.3129158  66.1750412  50.1967907  23.8191032
   2.5005299   7.3243076  61.9661617   2.5106010   8.0838501  62.5485945
   2.1122998   6.6247094  62.4915886  53.1358957   6.2843513   3.8035715
  52.6996851   5.4325360   3.8226369  52.5158119   6.8610483   3.3573130
  53.8044882  32.3208404   9.5476365  54.5403051  31.8071842   9.8807442
  54.2081022  33.1074405   9.1807711  52.8405046  49.0327740  63.3251238
  52.0435858  48.5093355  63.2404947  52.5557280  49.8329639  63.7665224
  50.1711559  38.0803084  57.5086308  50.8730936  37.7288437  58.0563402
  49.6853828  38.6665392  58.0887938  12.9967427  16.9566298  29.6436286
  13.4260654  17.6127148  29.0945697  13.1399381  16.1291182  29.1843343
  30.9700727  16.3639522  22.1239638  30.5504227  15.5502236  22.4031973
  31.7239475  16.0795844  21.6072059  42.9494572   5.5430871  59.7008371
  43.0586386   5.4790545  60.6496334  43.2918406   4.7151411  59.3639278
  34.6754575  14.2366779  38.3629131  35.1942992  14.7779548  38.9579368
  34.1566658  14.8639810  37.8593469  59.0120363  41.9508743  61.2017632
  58.7395382  42.7329111  61.6817522  58.1960726  41.5788174  60.8670759
  38.2210183  30.8923244  22.1322417  38.5102153  30.5236602  21.2975669
  39.0231729  31.2167311  22.5415564   2.4634604  52.0037079  56.4790535
   1.7266628  51.5530443  56.0664225   2.6755187  52.7169895  55.8769798
   6.5015614  64.4885111  58.6087036   7.2589117  64.9867868  58.9159060
   6.0500890  65.0836325  58.0101728  14.3438029  43.1962299  21.2434745
  14.5874381  43.1100655  20.3218198  14.8642325  43.9342594  21.5608025
  37.2935247  23.4590316  12.7529287  36.4906740  23.9412308  12.9507828
  37.9918456  23.9880300  13.1385934  74.8337412  55.9509373  58.3535862
  75.1223183  55.1900005  58.8574982  75.5067253  56.0628176  57.6821661
  54.0381193  22.4854660  46.3410425  53.7931585  23.2447600  46.8699121
  53.2893372  22.3457265  45.7613611  18.8861901  73.4777512   5.2689964
  18.8509662  74.1936028   5.9034628  18.6202580  72.7040307   5.7658553
  58.2716417  13.2427371  43.1410694  58.8647175  13.3187377  43.8885450
  58.4573078  12.3780239  42.7749634   4.9312425  70.6949043  14.3108761
   5.0696290  70.3692245  13.4214878   4.4347420  70.0013971  14.7453487
  63.0310965   1.7978458  49.6038914  63.9042950   2.1665174  49.4703293
  63.1291914   1.2169848  50.3583527   4.1703582  33.5642314  47.6593924
   4.5805669  33.3084583  46.8332338   3.2711843  33.2435060  47.5897264
  72.3765659  18.7630093  52.6065159  73.1764078  18.2667136  52.7802134
  71.7298126  18.0990231  52.3676300  63.3952045  51.2419653  15.2244782
  64.2214727  51.5788269  15.5709374  63.6329460  50.4204845  14.7944975
  75.0538588  25.6311822  51.8253613  75.1670551  25.5709720  50.8767891
  75.6599569  26.3210058  52.0955896  61.3315582  39.7560859  39.2752576
  61.4587831  40.5342770  38.7326121  60.4274559  39.8234224  39.5823359
  65.7242632  25.8438563  30.8272982  66.0049486  24.9296451  30.7865143
  66.3672447  26.3156557  30.2979422  68.1886005  15.0097358  19.0210688
  68.8163185  14.6912491  19.6697342  68.3372974  15.9547281  18.9877188
  52.7135897  68.4796572  46.2226009  53.1493902  68.2688999  45.3968334
  52.3962450  67.6371717  46.5477753  24.4569826  43.4918118  58.4615326
  23.9833188  44.0688181  57.8624153  25.2992153  43.3405018  58.0325985
  10.5945611  44.1176414  34.6268177   9.7486621  44.1822386  34.1835189
  10.5069113  43.3562756  35.2002931  43.3643436  21.2375522   0.8269564
  42.6487684  20.8550715   1.3347860  43.0041122  22.0552969   0.4838021
   3.2119182  27.6447988  32.1664524   2.9338858  26.9246840  31.6004443
   4.1665465  27.6495743  32.0964956  73.4244108  25.2778530  53.9689970
  73.7570667  24.4418740  54.2956638  73.8492537  25.3887892  53.1184483
  57.4660063  34.8449731  39.6556497  56.6447401  34.6032548  40.0838184
  57.8509569  34.0106106  39.3875480  58.7754583  42.2747612  57.2482920
  58.6462212  41.9865990  56.3446951  59.1883469  41.5275621  57.6812410
  72.2408628  49.5525551  52.4974489  72.1787977  49.8559761  53.4031630
  71.4421129  49.8763943  52.0810938   1.9690998  42.9501438  36.0280895
   1.3994226  42.3284912  36.4811325   2.8214374  42.8461361  36.4510965
  65.9031820  16.9296551  60.2788019  65.5654764  16.0396779  60.1781797
  66.7233467  16.8215954  60.7603455  50.9064436  46.9246626  62.8955793
  51.0699940  46.0165644  62.6409245  49.9540901  47.0149231  62.8623438
  55.2870369  26.1138797  52.0107985  55.7155991  26.7506385  52.5827265
  54.5326567  26.5824199  51.6535711  13.8616133  72.3566294  17.5271201
  14.4921565  72.7148533  16.9023621  13.9856613  71.4088869  17.4758589
   4.7889453  10.2088535  17.7607536   4.0372175  10.0218308  18.3230340
   4.8515499   9.4478101  17.1835840  64.0622187  70.2529526  56.1529446
  63.5880423  69.6078825  56.6776037  64.4401598  69.7460508  55.4343081
  77.4744037  23.5035753  61.5599155  77.1732159  24.0801668  60.8577347
  78.2442140  23.9450336  61.9187212  18.0517519  53.3664989   9.0686125
  17.8452528  54.2510366   8.7666440  18.9301741  53.1962967   8.7285602
  75.0395482  58.6264507   0.5531736  74.1779559  58.8722889   0.2163454
  75.1207631  57.6953594   0.3465172  64.6441746  34.4483566  56.8810272
  65.0384521  35.2029181  57.3185349  64.3598509  34.7856355  56.0315371
   9.5545894  25.6616688  44.6215391   8.6048514  25.7504082  44.7012568
   9.7860318  26.2211609  43.8801670  46.3886738  45.2477455   9.4119602
  45.6789684  45.3603411  10.0443137  46.9450665  46.0165310   9.5369744
  76.3611460  31.9827890  57.4896717  75.7237387  32.2414136  58.1552982
  76.7909861  32.8005290  57.2391319  53.8869667  40.0096464  38.8956165
  53.6622810  40.2903271  39.7827268  53.0716228  40.0993919  38.4022737
  12.5930583  63.8320160  31.5876055  13.0806231  64.0146017  32.3908329
  13.1623232  64.1463089  30.8851886  41.2413216  21.8466258   7.0597029
  40.3071785  21.6408110   7.0950657  41.2764835  22.8030968   7.0721781
  44.8745537  73.3670664  37.3949051  44.6885157  74.0199852  36.7201328
  44.5855427  72.5384855  37.0126009  69.9079704  25.3473854  53.2636404
  70.8144665  25.1090217  53.4577322  69.9103308  25.5578303  52.3298645
  25.5208540  30.4262733   7.9205936  25.0140595  30.3509903   8.7291253
  26.4084411  30.6338406   8.2127160  38.2430840  69.3649292   0.5876155
  37.4476075  69.5663404   1.0804456  38.4391308  68.4549809   0.8107426
  18.3235347  34.8017859  54.8187685  18.3101559  34.3628335  55.6692791
  17.7000165  35.5221438  54.9111843   5.4387194  59.1755581   2.0734324
   6.3376349  59.4377947   1.8749027   4.9704504  59.2793512   1.2450708
  60.8158827  42.1498871  50.3673601  60.1042891  42.3445511  49.7574663
  60.3794098  42.0088387  51.2074947  18.6653125  55.9365559   5.5791426
  18.7385952  56.8833160   5.4587221  19.5319378  55.5986023   5.3533518
  73.7784815   5.4952455  39.6099257  73.5547113   6.1176389  40.3018665
  72.9334259   5.1901412  39.2797470  75.7613182  55.1415634   7.1732318
  75.3145075  55.0790977   8.0174410  76.2006092  54.2972040   7.0716816
  66.6612816  29.5717430  31.0893822  66.6147995  30.4953504  30.8423543
  66.1016560  29.5022249  31.8628287  54.0406179  40.3086090  46.5705156
  53.1566525  40.5511618  46.8462133  53.9104700  39.7957659  45.7728434
  75.5216455  43.7194586   5.4237217  75.1132536  44.1066170   6.1980313
  75.7376575  42.8253651   5.6886137  62.1920967  39.2084599  55.3085423
  61.9349051  39.0835834  54.3950415  62.5229979  38.3533144  55.5832481
  67.1682930  36.3677382  56.3691187  66.6042948  37.0670986  56.0389137
  67.9938507  36.4835954  55.8987331  76.9413805  27.8354716  36.0522056
  77.6340866  27.8493786  35.3917575  77.4020147  27.6954770  36.8795204
   7.2806658  39.0665949  63.7783031   8.2332386  38.9760451  63.8034963
   7.0519747  39.4306208  64.6335329  56.4548826  59.1881037  50.9339523
  57.0549536  59.0156031  50.2084255  56.7374659  58.5900640  51.6258526
  56.7406559  39.6676850  47.8597975  55.9603739  39.8432612  47.3339081
  57.4673223  39.9845719  47.3233604   4.6163160  53.1948662  31.1760330
   3.8615623  52.9450655  30.6429505   4.4971651  54.1310310  31.3361096
  23.6531425  49.3505669   2.7850747  23.8624191  50.0843573   3.3629876
  23.1786990  48.7341309   3.3428806  67.5098276  45.2473021  55.1585817
  67.5033474  45.9097624  55.8494806  67.4587440  44.4134474  55.6258106
   0.3425751  30.8453250  48.7685299   0.9799525  30.4634690  49.3719912
   0.7995383  31.5897274  48.3770180  63.7729263  29.7700357  35.9979677
  63.1376553  29.0565991  36.0585856  64.4330835  29.4512630  35.3824949
  57.3904371  45.3285933  41.3470221  56.9455719  45.4642630  42.1836376
  57.0287275  44.5073891  41.0138226  18.2178533  49.9051189  15.5505991
  18.7071979  49.7913218  16.3653529  17.3034394  49.9661064  15.8269310
   6.6128796  12.5781703  44.2282248   6.8457896  13.1209791  43.4750032
   5.8913499  12.0321476  43.9160013  20.9445024  55.2498674  36.6390443
  21.4951301  54.5393848  36.9680643  20.1194286  55.1533461  37.1146154
  50.6622791  65.4066467  57.3869610  50.6167793  66.3539696  57.2575426
  49.7496510  65.1336050  57.4807024   8.5135430  64.5519829   6.1658174
   7.5901419  64.3966436   5.9672445   8.7588727  65.2873230   5.6042874
  47.0740604  19.9877405   4.4611359  47.9114246  20.4297280   4.6015137
  46.8817949  20.1277733   3.5339600  67.2654343   6.4809865   5.6281096
  67.5712156   7.1790707   6.2072551  67.0520115   5.7573420   6.2171936
  54.7890759  15.0555170   3.1311268  54.1982174  15.4749751   2.5056872
  55.3779888  14.5304358   2.5891834  53.5524035  59.9010754  30.5964923
  52.6386404  60.1518297  30.7321167  53.5681105  58.9574814  30.7565284
  76.9830418  44.4590139  21.0955024  77.8574562  44.3512249  21.4696860
  76.4350319  43.8473654  21.5872359  21.4355087  17.2526765  20.7061243
  22.1015453  16.5965199  20.5009770  20.6206989  16.7546141  20.7713199
  66.4347887  26.5931535  36.2051654  67.3613310  26.8333983  36.1993194
  66.2387991  26.3725710  35.2945828  15.2606714   3.6986390  49.7186756
  15.5757582   4.5050970  50.1268148  15.3425467   3.0354965  50.4040718
  54.1670275  72.6073742  46.6203499  53.5263872  71.9674969  46.9307899
  54.6851921  72.1318531  45.9710264  57.1563435  66.9614458  33.8589883
  56.4785910  66.3123608  34.0475965  57.9732800  66.4626074  33.8623261
   5.7568139  37.1950555  56.8709517   6.6716772  37.1040320  56.6045475
   5.2563649  37.0090032  56.0764933   3.0063298  72.5823927   5.7584518
   2.8819424  72.6592922   6.7044151   2.3356766  71.9594049   5.4785544
  73.4693432  46.7742920  43.6317110  73.0297947  47.0840883  44.4235754
  72.9110146  46.0669279  43.3090115  39.6846366   5.9902930   6.0023445
  40.5006123   5.8311695   5.5279028  39.1283512   5.2439970   5.7791346
  76.8208456  67.5637770  32.8643441  77.0925713  66.6500521  32.7777505
  77.4541044  68.0528021  32.3389196  50.8956051   5.9739888  33.4581089
  50.3152227   5.2452570  33.2382488  51.7579985   5.5711913  33.5594273
  15.0173700  47.2442245  49.1563702  14.8931360  46.2994766  49.2471981
  14.2112255  47.5531530  48.7429333  54.0823984  30.2785277  41.3498878
  53.7823009  31.0905552  41.7582798  54.6890593  30.5639791  40.6667233
  23.6786437  15.6499004  46.1564207  23.6341476  14.9753857  45.4787159
  24.2615533  16.3165009  45.7929754  36.2639117  64.3591404  17.3117793
  36.9638014  63.9105415  17.7862751  35.7110548  63.6532307  16.9767082
  29.8159933   1.7774999  26.1252260  29.6315098   1.2253712  25.3653884
  29.3429232   2.5911012  25.9506106  67.9154968  44.4777775  44.3597460
  67.5965929  44.2321444  45.2281904  68.4305096  43.7240982  44.0717030
  66.6350937   2.9496700  54.7593880  67.1204185   2.1808317  54.4600868
  66.7457485   3.5909709  54.0574503  57.7846956  48.1309795  42.0451021
  57.6708746  47.4373627  42.6948500  57.9527712  47.6660919  41.2254286
  54.6403027  27.2370434  16.4749920  54.5264864  28.1363368  16.7824781
  54.7855663  26.7278457  17.2723937  24.5500207  36.6561460  63.8731527
  24.6025229  37.0506477  64.7436953  25.2323914  37.0984483  63.3682060
  23.9540124   1.9681334  38.5461521  23.1707597   2.0086560  39.0948844
  23.7424803   2.5105339  37.7863574  45.1155043  33.3423948  58.4916401
  44.7933245  32.4417686  58.4555197  44.9332666  33.6970425  57.6214409
   0.7178379  67.6767254   9.3122786   0.8051521  68.5269833   8.8813883
   0.1889693  67.8554440  10.0898325  74.7720623   8.9719307  39.3081594
  75.1077890   9.0087438  40.2038002  75.0045300   9.8200631  38.9301872
  55.5891848  11.6205752  32.8887630  54.8294544  11.2237310  32.4626637
  56.3407803  11.1599243  32.5157499  66.1273098  54.3940687  38.3015561
  66.2816477  55.2199554  38.7601733  65.2380753  54.1435575  38.5520411
  34.0967941  14.2686725   7.5630909  33.7697577  13.9991736   6.7048067
  33.7957287  15.1719713   7.6612890  48.2890320  17.4179816   1.5973601
  48.2231092  18.0673921   0.8972504  48.5102892  16.6025209   1.1475834
  61.0181618  55.4283285  34.8670363  60.5053186  54.7432613  34.4381952
  60.8009243  55.3444195  35.7954764  60.9209728  25.9559298  19.1762102
  61.4188004  26.7043734  18.8472259  61.3435173  25.1941657  18.7794697
   0.4245586  35.1603460  44.6482325   0.0974771  34.2906523  44.4182682
   0.1392194  35.2922058  45.5523491  14.8317683   7.2436714  59.0720177
  15.5328739   7.0633763  58.4457779  14.0653062   6.8011320  58.7074232
  25.7636046  68.3094311  21.0508084  26.5732884  68.0500650  21.4905500
  25.9257603  69.2069292  20.7602334  67.2760248  73.3908844  55.8854771
  67.9693556  73.4213638  56.5447140  66.5375662  72.9782677  56.3334370
   3.3020973  13.7868083  43.3820963   3.3056143  14.1724169  44.2581844
   3.6761591  12.9140651  43.5030460  51.1441088  20.8500862   1.9516967
  50.9495020  21.4816093   1.2592117  50.5435896  21.0796213   2.6608628
  45.0803328  16.0225976  11.8481266  44.1876507  16.3600910  11.9219398
  45.5038691  16.2847877  12.6655042  53.7895203  48.9226055   6.3752651
  54.4771194  49.4483185   6.7840028  53.5534668  49.4092655   5.5855340
  33.0620098   9.8023033  13.1963241  32.4691463   9.0551007  13.2765174
  32.5352812  10.4819191  12.7757180   9.5948970  22.0159650   5.3788263
  10.0341749  22.0173264   6.2292761  10.0559628  22.6828814   4.8700306
  64.4081593  29.9622846  11.4073038  64.4554901  30.8325267  11.0114884
  63.6208344  29.5699883  11.0298681   1.0263432  44.7994232  44.5697117
   0.4407093  44.0459728  44.4950581   0.7227044  45.2623463  45.3505707
  64.0384579  30.1330256  19.5852888  63.5108280  29.4584489  19.1577590
  63.5155344  30.4035854  20.3399968   1.3604094  36.9143820  29.6840167
   0.5153634  37.2777224  29.9488044   1.1819483  35.9885430  29.5190787
  53.7810898  15.5380273  32.7108574  53.6484003  15.5632257  31.7632318
  53.8368464  16.4579487  32.9694438  67.4450636  45.3375864  59.9829054
  67.9690695  45.4405785  59.1885233  67.0846987  46.2090874  60.1467848
  43.9551067  66.4488602  58.0916023  43.3377934  66.3005543  58.8079548
  44.2292118  65.5710411  57.8260374  61.2368011  21.3066673  58.6447573
  61.2528849  22.2408819  58.8526440  60.4087639  21.1784959  58.1819916
  73.2653093  55.9838486  13.1446111  73.0674744  55.4200220  13.8924050
  74.1862440  56.2185812  13.2586563   4.6885571   5.8184117  42.0140219
   4.4488519   5.0169241  41.5488434   3.8638908   6.2944829  42.1115637
   3.8452426  37.0382237  22.4593425   4.5439854  37.5116587  22.0078444
   4.2299557  36.7869687  23.2990432  61.0569620  44.0234280  53.7593412
  61.7266893  44.5270491  53.2966709  60.5843973  44.6738625  54.2788124
  72.7631140  38.9679742  56.4219236  72.9284286  39.5026469  55.6453753
  73.4558249  39.2148948  57.0346355   3.9743799  40.6799603  30.4067492
   3.1184456  40.2726603  30.5398560   4.6019563  39.9727988  30.5560946
   0.3363470  70.6521463  25.8533049  -0.0988241  69.8720407  25.5093670
   0.9007744  70.9463692  25.1383972  78.3758474  59.4903088  57.7506876
  78.1500526  59.6315861  58.6700869  79.2095989  59.9463129  57.6360178
  25.4793310  33.6702085   5.8413744  25.6095910  32.9172993   6.4179087
  25.3986502  34.4160199   6.4359218   7.2538596  23.0237103  54.4901514
   7.2148424  22.5065398  55.2946663   6.3579005  23.0109239  54.1535139
  20.9654427  22.0521569  25.7993460  21.1260653  22.2066045  24.8684454
  20.4367948  22.7997327  26.0784411  61.5447903  50.4203033  56.8855381
  61.1626720  49.8378611  56.2290430  62.0999384  49.8501444  57.4174738
  71.1146259  42.0378923  50.3803635  70.5866814  42.8362274  50.3676367
  71.9049072  42.2810221  50.8626270  56.2863111  51.9353914  56.3310194
  57.1603107  52.1969080  56.0412502  55.7682848  51.8990231  55.5269337
  68.7032795  47.8951168  32.1372247  68.4707880  48.7795734  31.8545222
  68.2876301  47.3210144  31.4938951  70.9707642  31.2357259   3.1664166
  70.9701300  32.1574378   3.4246439  70.1684809  30.8795071   3.5480982
  46.4988852   1.8082656  16.7730403  46.4067554   2.7283597  17.0203686
  45.6442595   1.4220420  16.9645476  20.3690100  25.2925730  18.7279916
  20.0058722  26.0041022  18.2006502  20.5254388  25.6863356  19.5863128
  54.4744492  40.2442169  15.8929527  54.4453144  41.1879826  16.0500693
  54.8958683  40.1566362  15.0379884  10.0821543  71.1200428  10.9623337
   9.5175713  71.7038107  11.4689779   9.5971614  70.2959490  10.9189141
  17.3609531   1.6231690   9.7500896  18.1383038   2.1791370   9.8035467
  17.4883378   1.1093785   8.9525783  15.5763555   3.7477404  41.1257172
  15.3873837   4.6533552  40.8799887  16.3975632   3.7986672  41.6148520
  67.8557396  33.6755061  56.5665102  67.7186441  34.5773530  56.2764931
  67.0870924  33.2020950  56.2482309  13.8608360  64.5998430  47.6368666
  14.0702987  64.0755367  46.8639135  14.5980752  65.2041960  47.7233171
  55.6688976  54.0458584  51.5829372  56.1259317  54.8865223  51.5577316
  56.3538265  53.4066629  51.7792416  54.0385103   9.4139695  16.8979752
  53.5650969  10.2245998  17.0850301  54.1028118   9.3890059  15.9432626
  37.3635626  35.2263498   9.7364479  36.7957902  34.8683739   9.0540117
  37.5700045  34.4762611  10.2941024  67.4137035  74.2071132  60.5156422
  67.4622133  73.3228782  60.1523161  68.1255629  74.2429173  61.1545515
  61.4054775  45.3106308  33.8212633  60.7888079  45.5579519  34.5103097
  61.2817287  45.9719706  33.1404185  69.0311432  29.9825072   9.1860616
  68.5672855  29.7493005   9.9902278  68.3556700  29.9708104   8.5079533
  48.4604406   9.6770632  41.8469286  49.2952538   9.3135190  41.5517044
  48.6943436  10.5065179  42.2634935  42.3585176  69.7839546   1.7928244
  41.8252039  69.0079975   1.9651790  43.0808640  69.7217607   2.4177881
  17.7627134  18.2947898   6.5262336  17.0979273  18.8727462   6.1517221
  17.3673856  17.4235761   6.4956492  39.8960686  41.3732624  64.0922022
  39.5108557  42.2314501  64.2692804  40.0731707  41.3797045  63.1515503
   4.2192850  12.2727954  36.3321567   3.9179668  12.5655997  35.4720950
   3.4230471  11.9883072  36.7808247  54.3546247  63.5798693  46.3699102
  54.1211462  62.6649284  46.5267754  55.3110361  63.5926628  46.4065647
  42.1142679   0.1865312  40.4111719  41.3858884   0.0312445  39.8098564
  41.7697244  -0.0527170  41.2715673  59.5696878  32.7943254  10.2890551
  60.4271317  32.8109813  10.7141948  59.7511530  33.0138516   9.3752104
  75.3369954  73.6634715  54.9765396  75.5629614  74.5733239  55.1697731
  75.3199437  73.6187661  54.0205383  12.2200930  24.4587755  16.2476182
  11.5239441  23.8174558  16.1050844  11.7723298  25.3047204  16.2367404
  76.2749100  20.4081869  26.1046863  75.9775686  20.6332803  25.2231240
  76.1428595  21.2081027  26.6135335   1.1051155  35.6184888  21.7765641
   2.0045374  35.9402490  21.8377280   0.7292759  36.0970163  21.0376549
  42.7306890  17.4468005  11.6717017  41.9998455  18.0486584  11.8126488
  42.3294067  16.6696882  11.2827289  49.2618895  65.8858061  50.7942009
  49.7032309  65.4061604  51.4951992  48.3650541  65.9987736  51.1090851
  14.5562053  15.8405626  44.2485142  14.7926950  15.5511856  43.3672857
  14.5528316  15.0386202  44.7711086  29.7389007  18.6019957  26.5122724
  29.2838264  19.4165099  26.7260575  29.5841670  18.0356467  27.2682738
  65.6493759   9.7422791   9.9626142  65.3154659   9.1864020  10.6666994
  64.8684406  10.0106132   9.4784951  27.6227856   6.0025334   9.9130392
  27.8461075   5.0828993  10.0566757  27.0048213   6.2111872  10.6136227
  35.1982856  61.5636587   1.0093229  34.5007682  61.8815184   1.5826136
  35.4812336  60.7414675   1.4095441  53.9314604  24.0144634  53.2613659
  54.4277811  24.4574666  52.5731468  53.8481188  24.6684361  53.9553452
  29.0399218  32.6053524   6.0967058  29.7783232  32.3208666   5.5581313
  28.5619402  31.7995310   6.2927109  14.1362059  54.1749287   3.8372725
  13.4968841  54.3784094   4.5199841  13.7353432  53.4632730   3.3381844
  69.5269299  42.4673986  43.4256840  70.4437590  42.6888037  43.2624865
  69.3443537  41.7450333  42.8247786  27.8117275   9.5452541   2.9097351
  28.6092377  10.0421810   2.7273276  27.6507711   9.0478843   2.1078949
  25.3100991  48.3775616  20.7580352  25.8902168  48.7290764  20.0826573
  24.4330645  48.4488392  20.3812551  14.6088672  13.3842134  34.5093346
  13.7253761  13.7493372  34.4607353  14.9108303  13.6042762  35.3905964
   6.4164299  31.6562295  42.2722292   6.4364642  31.7167640  41.3171577
   6.7313904  32.5086522  42.5729132   0.4333805  21.6738677  26.9820905
   0.3953148  21.2795353  26.1107206   0.0707693  22.5517845  26.8637395
  58.2783318  72.9503202  54.3649387  57.6076412  73.0328512  53.6870050
  59.1052341  72.9339933  53.8830614  73.3270788  10.6633246  23.0121446
  74.1642618  10.7653809  23.4648514  72.6819420  10.5894899  23.7154055
   4.1728616  25.9393120  28.8323450   4.7617415  25.2183533  28.6094713
   4.7561261  26.6646624  29.0557265  15.4027939   7.7578306  19.3985724
  14.6641624   7.2388250  19.7168291  15.3870475   8.5506868  19.9346340
  37.0843029  30.2610016   1.9152130  37.2629642  31.0615802   2.4085574
  36.4777970  30.5341482   1.2268998  13.5536480   7.3268461  50.8481216
  13.5055494   6.9960725  51.7450666  14.3536043   7.8521484  50.8291388
  29.0485716   0.9159178  59.5977449  29.6751666   1.4330494  60.1038933
  28.6660171   0.3125764  60.2348185  42.8026676  15.7100654   4.1870031
  43.6219692  15.6290436   3.6987305  42.2384977  16.2382531   3.6222365
  20.8505344   9.9804717  63.7179375  20.0059676   9.8994231  64.1610765
  21.0093045   9.1134953  63.3446074  66.7530870  10.4786897   0.9509415
  66.0009336  10.7576430   0.4287540  67.3426723  10.0656116   0.3200792
  55.9656429   9.8238629  19.2846370  55.7489014   9.2828238  20.0439334
  55.2688408   9.6418560  18.6541057  70.2310467  56.9345856  34.8924947
  69.5223951  56.5518475  35.4097509  69.8562050  57.7370596  34.5295095
  21.2171412  71.3617468  13.6008191  21.3946772  71.5286589  14.5264840
  20.3904796  70.8791924  13.5987055  10.4713821  36.3750958  62.7345800
  10.3828430  37.2698736  63.0628538  11.4156282  36.2193179  62.7154779
  40.0228357   9.2975807  46.7568398  40.0609779   8.9556885  45.8635950
  39.8078465   8.5362536  47.2957230  47.9309940   8.4163988   3.9184818
  47.4226236   8.3529896   4.7270435  47.3363352   8.1039906   3.2365605
  77.6505661  65.3060150  23.9168501  78.0865574  65.7204914  23.1723046
  76.9073200  64.8421431  23.5313082  73.0601978  67.1297693  47.7153969
  72.2425938  66.7921877  47.3496151  72.9288006  67.1002913  48.6630726
  67.4350119  41.4593267  21.1339903  68.1132555  40.7840204  21.1473393
  67.7313709  42.0833731  20.4714417  10.7286441  35.2467561  47.8122950
  11.1283553  34.9618006  48.6340380   9.8497128  34.8680544  47.8295088
  16.7728734  30.2155519  13.4155631  17.6882422  30.3001833  13.6823380
  16.5259421  31.0934997  13.1249392  10.1793420  41.4986277  36.1225080
   9.5403135  40.7860851  36.1350417  11.0268056  41.0591221  36.0527134
   9.3967849  27.7954602   9.0023339   9.8076713  27.5211263   9.8221785
   8.8851905  28.5693693   9.2380571  75.5488682  69.6069193  27.8529000
  76.0132599  69.5550060  28.6882901  75.7068634  68.7589312  27.4379396
   5.0960326  59.0373802  26.6447926   4.3143353  58.5978746  26.3101101
   4.7742373  59.8721313  26.9851995  74.5168781  39.7089434  47.7792740
  74.8452711  39.8133802  48.6722898  73.6284351  40.0640440  47.8077316
   2.7212504  43.7245083  26.3559580   3.1330803  43.3120108  27.1152163
   3.4462094  44.1324568  25.8824134  16.5621650  70.0414705  23.1486034
  16.0220706  70.8146667  22.9852080  16.5062940  69.9058247  24.0944958
  31.3531065  58.0865192  58.6064911  31.1278105  57.8174162  59.4970274
  30.6052136  57.8107977  58.0765200   9.4869888  21.1833215  58.4152555
   9.1653401  21.9704890  58.8547325  10.3510249  21.4295101  58.0850029
  65.8924627  57.1921015  51.5827560  65.7428694  56.3307142  51.1930609
  66.0543537  57.7681398  50.8356237  35.7502627  69.8515177   1.8177325
  35.5721235  70.3657627   1.0302977  35.0439000  70.0839233   2.4204531
   1.3040070  21.0289097  49.6282816   1.0455803  20.1072550  49.6278334
   2.2038464  21.0255051  49.3019247  62.6219034  61.8922186  55.2449656
  62.3081112  62.5733995  54.6501923  62.3549032  61.0713959  54.8312187
  69.9571753  44.0448093  47.6202011  70.5677414  44.7560978  47.4265480
  69.7243500  44.1727161  48.5398006  69.9004364  36.0849619  29.4729829
  70.3486395  36.7840695  28.9969587  69.3162537  35.6905770  28.8253522
  66.2647581  42.2101831  43.5233212  66.2948656  42.0023251  42.5894451
  66.5248966  43.1300449  43.5724592  50.5057001  64.9227190  52.9691601
  50.7551765  64.1300249  52.4941587  51.1240149  64.9695826  53.6983538
  77.2020292  30.4313850  43.9663458  76.8712950  29.5620465  44.1924000
  76.4494801  31.0114861  44.0820360  33.4961677  61.6467428   3.1205428
  32.6430511  61.8077183   3.5236675  34.0934753  62.2367287   3.5802981
  54.2863464   1.6604826  39.6678329  53.7536335   1.7622423  38.8791037
  55.0980377   1.2584259  39.3584132  78.0315967  26.0438061  55.1192999
  77.5908646  25.8245111  55.9402132  77.7473668  25.3658056  54.5063066
  18.5492849  37.0920777  58.4939146  17.9976118  36.9727802  59.2669964
  19.4442165  37.0723629  58.8329411  16.6597176  34.3379140  17.3842347
  17.5762498  34.2071223  17.6273263  16.4771473  33.6406779  16.7543435
  46.2155104  29.0831685   9.8598832  46.4288425  30.0034237  10.0143194
  45.3347874  29.1010547   9.4853997  43.4626427  14.4793428   0.0156542
  43.9499274  14.1480554   0.7700010  43.8723269  14.0560497  -0.7388071
  70.7438374  50.5935717  32.1769357  71.5346527  50.1259136  32.4455190
  71.0679960  51.3836384  31.7445564   3.5739228  18.1992412  38.8559175
   2.8714827  18.3827949  38.2321262   3.2583481  18.5593235  39.6847630
  62.2232866  48.0575800  38.1478119  61.8306255  47.4831009  38.8050961
  61.8181133  47.7898455  37.3229575  48.7273026  71.1972570  50.0766611
  47.9118109  71.6847658  49.9602985  49.3036985  71.5265703  49.3870544
   3.0862293  14.2598832  58.4109831   2.7501971  13.4527564  58.0212879
   3.9647514  14.0315080  58.7147522  67.0224380  44.1824293   5.8629084
  67.0950747  43.7821722   6.7293668  67.4350214  43.5520029   5.2725065
  61.4118385  45.4795647  57.1656561  61.5467834  45.6087017  58.1044531
  61.0923386  44.5803499  57.0910645  51.3366699  32.1470904  11.0421598
  51.0598898  31.2333918  10.9730172  52.1593285  32.1857190  10.5543387
  78.2327414  36.1473846  26.6024280  78.2650709  37.0565343  26.9001460
  77.3217678  35.8845592  26.7338920   3.5643345   5.1511991   8.4423977
   3.4509739   4.8637235   7.5364512   4.0695769   5.9614080   8.3751434
  55.3295374   5.9494466  54.4626904  55.9285069   6.6512328  54.2078161
  55.6158400   5.6972331  55.3405571  66.5327406  29.6164370   8.1544650
  65.5881739  29.4913244   8.0629802  66.7122650  29.4210052   9.0741432
   7.0680445  61.8399620  43.5443544   6.2028301  61.5987539  43.8751984
   7.2496188  62.6897335  43.9457893  15.7382166  34.9037671  63.2381344
  16.2602460  35.5690527  63.6865902  16.2262285  34.0902519  63.3656883
  56.0796881   7.2289091  35.7811737  56.3793087   7.4316025  36.6673875
  56.1669445   6.2783265  35.7103920  47.1527386  67.1770287  40.2099419
  47.4879408  67.7964926  39.5617580  46.6434956  66.5478659  39.6990013
  78.1277037   1.1954078  27.1882272  78.0974579   0.6455399  26.4053082
  77.4181747   1.8260777  27.0655298  38.9930016   3.5224159  64.1080458
  39.6067292   3.3530672  63.3932775  38.6577088   4.4016369  63.9325860
   3.7449443  33.3972931  51.1223173   4.6473134  33.5929227  51.3746881
   3.7058717  32.4412918  51.0946512  11.2540329  19.8372376  16.6951454
  10.7137001  19.6001530  17.4488437  11.9112885  20.4356146  17.0503819
  14.5564830  19.6656644  29.9536610  14.4464791  19.4174659  29.0357685
  15.1885748  19.0348339  30.2982545  12.4116349  53.3240366  38.8390827
  12.4881804  53.5520601  37.9125953  13.2215488  52.8541613  39.0378022
  76.9277630  71.5454041  63.6109203  76.7626152  70.6271802  63.3968588
  77.1868238  71.5336858  64.5323226  66.4180756  20.6527781  20.1934767
  66.8843460  21.4301205  19.8859680  65.5043602  20.8124137  19.9570990
  14.0266597  69.9525690   8.9270675  13.4121287  69.7745991   9.6390450
  14.8763800  69.6745396   9.2689860  15.9650898   6.6312796  34.9571800
  16.3139033   6.3221914  34.1211033  16.7193031   6.6298491  35.5465794
   4.0936747  21.6866875  20.8801341   4.3874165  21.0691428  20.2103686
   3.9107230  21.1412191  21.6451359  55.8352041  12.7205157  26.0312557
  56.4336538  13.1096363  26.6689682  55.7855844  11.7978823  26.2812924
  13.0497057  74.2740325   8.2660699  12.3279197  74.7635059   8.6606246
  12.7630026  73.3611749   8.2929897  31.9737315   3.2685703  56.9311523
  32.0448208   2.4782452  57.4664688  31.4850736   2.9900849  56.1566257
  55.7921219   8.3784813  49.2998075  56.3045788   9.1629791  49.4952202
  55.4781246   8.5140443  48.4057951  20.9081173  35.4536128   6.2653095
  20.2456641  34.7630215   6.2870467  21.4119458  35.2772808   5.4707670
  40.7078648  10.0733268  13.1980634  41.0338640   9.4797850  13.8745725
  40.9721375  10.9438765  13.4956133  10.5076873  12.8736091  22.2633433
   9.8742181  13.3272803  22.8193378  10.7329190  13.5120547  21.5866661
  60.2583122  27.1965384  45.0602627  60.7331657  27.9589701  45.3910828
  59.7020960  27.5446510  44.3633556  22.6744986  37.7173471  12.1284628
  22.4081635  37.3298430  12.9622126  21.8843579  38.1468701  11.8007123
  15.6452954  23.9591670  56.6322708  15.5849349  23.9111304  55.6781864
  16.1600077  24.7485256  56.8002558  18.7561917  55.9625816   1.7978808
  18.1594729  55.5885983   2.4461848  19.1147316  56.7413712   2.2235139
  75.7396746   5.6421191  54.4040203  75.7419348   5.2674675  55.2848530
  75.9920406   4.9156615  53.8341045   7.4260038  56.3705587  52.4675941
   6.9025671  57.1183825  52.1794844   8.3200550  56.5881777  52.2038794
  10.9631860  39.8051190  58.4104538  10.3356671  39.3612719  57.8399754
  10.4421878  40.0965023  59.1587114  71.1571026  19.2803442  25.6666875
  71.2527370  18.3340454  25.7744145  71.6857290  19.6561778  26.3706303
  37.5316525  65.0023985  48.3320808  37.4032569  64.4515181  49.1042709
  38.2925248  64.6238327  47.8916311  35.4237366  29.7341871  18.1667185
  36.1247897  29.0840888  18.1205928  35.0991201  29.8004985  17.2686875
  50.4426003  71.0022020  30.3131247  50.7297850  71.9115543  30.2304363
  51.1636829  70.5634117  30.7644916  74.0227413  36.1896133  45.0834084
  74.4410753  36.8804407  44.5696115  74.2803049  35.3774071  44.6472740
  68.8924599  50.9779263  57.3647976  69.5863199  51.6314840  57.4522734
  69.2964554  50.2643061  56.8710756  45.0355244  63.8867998  33.0178452
  45.2627754  64.7463608  33.3724475  44.2893600  63.6001158  33.5444164
  59.4013834  69.9367762  13.7573206  59.9517870  69.3485975  14.2743659
  58.5140419  69.7801161  14.0802979  57.6154709  25.2193475  50.8914280
  56.8143082  25.6121564  51.2379503  58.3100510  25.8258820  51.1481476
  43.5131359  51.1189365  20.3396249  44.0721273  51.8611145  20.5696893
  43.1456947  50.8280563  21.1742544  47.8133106  14.4042838  42.2994089
  47.9364729  13.5724652  42.7567291  48.6585236  14.8470223  42.3757648
  16.1321592  67.0939159  35.3059101  16.9721270  66.6955996  35.5340099
  16.3191259  68.0309248  35.2485681   5.9694457  11.1005080  31.3434052
   6.4552605  10.9612739  30.5304909   6.0299468  10.2640629  31.8048501
  63.9210796  17.2668087  20.8100057  63.3266926  16.6029179  20.4604506
  63.3606482  18.0236065  20.9814858   5.7868826  15.9913146  45.8960247
   6.3682091  15.2863121  46.1810923   6.2029976  16.7903805  46.2194061
  62.9026582  74.1244606  50.9363031  63.0935350  73.9388658  50.0168705
  63.4550920  73.5133239  51.4237022  58.5071802  52.4826479  10.9495342
  59.4264555  52.4732828  10.6829417  58.0413246  52.0788431  10.2173090
   4.0540609  45.3323698   0.1339630   3.1981885  45.3784990   0.5600920
   4.6364138  45.8249712   0.7122719  47.5114822  14.8123109  20.5004334
  47.2423553  14.6537077  21.4052248  46.6931629  14.8135567  20.0038624
  59.0498018  10.5448854  62.3071384  59.0059805  11.4949417  62.4153185
  59.9645424  10.3710365  62.0852089  53.6306953  15.7686687  58.9273643
  53.6676502  16.4181268  58.2251740  53.1508398  16.2044644  59.6316719
  39.3817606  10.6953777   0.3744121  39.3876686  11.2468351  -0.4079537
  39.1987744  11.3008560   1.0928436  28.2775879  66.9765425  47.1869278
  28.0510569  66.1003828  47.4987984  27.6752234  67.5587654  47.6499653
  51.3880014  68.2561398  39.2346406  51.2198210  68.1020689  40.1642704
  51.2624359  69.1982985  39.1214609  67.0613194  12.0823514  59.8998404
  67.9479599  11.7809653  60.0979996  66.4937592  11.3756311  60.2075005
  26.8503809  69.4266081  26.6390157  27.1632481  68.5347795  26.4873838
  27.0455742  69.8905802  25.8248520  59.9815226  29.6628118  28.4784412
  59.7976732  28.7660503  28.1987119  59.5915937  30.2108526  27.7973866
  37.2214818  32.2708702  61.7949343  37.7913380  31.5102959  61.6808271
  37.8120518  32.9743791  62.0642567  71.9409132  13.7604606  25.0475836
  71.7902279  13.1007111  24.3706369  72.0969152  13.2542622  25.8448648
  67.0640135  20.9071302  29.4094419  66.3923407  20.4094243  29.8756766
  67.5311565  21.3815570  30.0971437  75.9285259  30.1048350  17.7185440
  75.1495838  30.2197194  17.1742284  75.6356525  30.3195834  18.6041737
  39.0677977  14.0046549  19.2278945  39.5108795  14.6009934  18.6243296
  39.6911597  13.2902861  19.3595374  78.9813328  25.5641651  44.9745417
  78.5190439  25.7457066  44.1562748  78.2857609  25.4443979  45.6211233
  63.9925385  58.1755114  29.1852903  63.6530828  58.3240318  30.0678682
  63.6972046  57.2932196  28.9604115  75.6043625  66.9428253  46.7483616
  75.5913353  66.3235855  46.0185671  74.6891117  67.0123005  47.0198917
  61.5958452  42.8388119  47.3288202  61.7645502  43.4558916  46.6167927
  61.7272568  43.3515835  48.1263351  72.5681496  45.1765490  12.3082328
  72.3592567  45.9345150  11.7622614  71.8201256  44.5893621  12.1991587
  46.3306046   2.0765807  31.3403440  46.4466619   2.9862550  31.0660172
  45.7950115   2.1315517  32.1317649  52.0507431  20.5459285  34.1840553
  52.6289797  21.2561822  33.9058208  51.1922407  20.7852983  33.8349056
  24.3989444  58.6162615  15.0986660  24.8415613  58.0760527  14.4440699
  23.8871646  57.9944324  15.6160128  21.7690468  14.7107279   4.7892052
  22.7049088  14.7280645   4.9894369  21.3549948  15.1308036   5.5430824
  40.8730984   8.0256850  42.1611023  40.6585026   8.0391848  41.2283659
  41.7888641   7.7488583  42.1922016   6.5457106  34.7334170  39.4090915
   5.8120060  34.3242598  38.9502883   7.1984321  34.0374780  39.4856071
  30.2480173  74.0245438  56.3009453  30.1757288  74.6139956  57.0516491
  29.3895030  74.0667391  55.8797503   9.3069106  52.3903990  60.1669407
   9.4299293  52.4643421  59.2205667   9.0125757  51.4894247  60.3005362
  61.2141371  11.8082678   7.6038462  61.6338730  12.5069630   7.1019745
  60.5999994  12.2630882   8.1802207  54.7216892  65.0515318  40.1933050
  55.4778099  65.1731730  39.6190906  54.0184259  64.7718668  39.6072674
  20.3303933  59.9707270  20.1793766  21.1730361  60.1529789  20.5952740
  20.1657844  59.0465641  20.3666258  38.5433125   5.0676167  37.2319388
  37.7765536   4.6352535  37.6079369  38.5069299   4.8519909  36.3000536
  23.9448309  68.7380362  58.3342791  24.1580892  69.1975069  59.1464615
  23.2864857  69.2902184  57.9124832  74.4739437  51.9143867  12.5384057
  73.5486794  51.6833830  12.4562061  74.9428511  51.1305523  12.2521186
  48.8908958  12.3676956  39.4755960  49.1703463  13.2460618  39.7336864
  48.2678604  12.1057403  40.1534176  70.5172110  37.3734236  33.6196637
  70.0649023  37.5079274  32.7868605  71.3620806  36.9957829  33.3750963
  23.7468576  40.1897526  15.9537470  23.6172390  39.8745275  15.0592828
  24.4379258  39.6296954  16.3072872  33.8194752  59.4419861  37.7450776
  33.7237787  59.5902205  38.6858749  33.5786486  60.2776623  37.3452234
  66.3660669   0.9377168  60.4595280  67.0179987   1.6353694  60.5266333
  66.8029356   0.2490647  59.9583960  65.8272219  36.3744831  13.5361433
  65.9270191  36.6301465  12.6191318  65.1259565  35.7230258  13.5282087
  43.5198498   6.5359354  48.0164385  44.0376854   5.7310683  48.0329084
  43.3068895   6.7025524  48.9346552  42.1925885  73.5809416  46.6533566
  41.4547641  73.7395611  46.0645485  42.9331881  73.4151718  46.0700369
   8.0224240  48.6722374   4.7266722   7.7443284  47.7995443   5.0046992
   7.2080117  49.1240978   4.5057884  17.8485978  41.4921427   8.3950430
  17.3407555  40.7305956   8.6750019  18.7245846  41.3392639   8.7493145
  67.3020840   8.0638152   8.0509132  67.3731089   7.4462110   8.7787539
  67.0283175   8.8850147   8.4594655  63.8148165  17.2993684  49.4347954
  64.7233200  17.4074090  49.7161913  63.7351227  17.8591418  48.6624432
  62.3249865  12.8709483  41.4639711  62.0419931  13.3929741  40.7132149
  62.9950809  12.2861421  41.1101198  59.1038609  15.8150160  53.2142639
  59.8859167  16.3411105  53.3811426  58.9732599  15.8735931  52.2678280
  61.1106157   3.8411295  30.9240556  61.1670828   3.5843724  30.0036645
  60.3088427   4.3611160  30.9788966  65.0198460  18.8815570  62.9016256
  65.9704113  18.9741468  62.8377056  64.7207737  18.8485360  61.9929457
  44.3891811  13.3502877   2.2921947  43.8010216  12.5956440   2.2636810
  45.0961351  13.0809391   2.8786251  30.3472376  16.3405597  48.9276218
  31.1001682  16.3186157  48.3369923  30.3710175  15.4959905  49.3774796
  76.4341879  35.3944635  34.7060657  76.0380745  35.9570026  34.0405750
  77.3712063  35.5822349  34.6515560   2.7262558  70.9070121  63.1535591
   3.5437311  71.3856374  63.2909598   2.9999794  70.0647842  62.7902947
  73.3610678  21.3194680   6.7760336  73.8642263  22.1331310   6.7442006
  72.6569128  21.4975381   7.3994857  13.2286508  73.8221710  54.9301243
  14.0588576  73.6312824  55.3666449  13.3740694  74.6627454  54.4959354
  55.4659462  21.9977665  34.8350358  55.3502274  22.1381783  35.7747817
  56.0937548  22.6691937  34.5680594   1.2721319  12.3197651  16.6488481
   2.0660838  12.8525674  16.6934991   1.3568094  11.8319440  15.8296466
  75.7101536  11.2752378  38.6890221  75.6729317  11.9892383  39.3254590
  76.2005949  11.6374516  37.9511213  65.1884031  61.3040876  52.3887253
  65.5061722  61.7080402  51.5812111  65.9830427  61.0733080  52.8698874
  60.3325272   0.5491487  47.7875328  60.6853294   1.3933817  47.5064087
  59.5065928   0.4641468  47.3112535  19.4240749  63.4192657  49.7009754
  20.2062440  63.3658552  49.1518021  18.7606859  62.9226446  49.2218971
  51.8453646   4.9591666   7.7626997  51.3487864   5.5258512   8.3530498
  52.3091269   5.5641198   7.1837467  58.4027147  72.8653193  29.0398717
  58.6135578  72.3369265  29.8096657  58.3679867  72.2359180  28.3195400
  64.3745422  25.7363820  11.6443598  64.0022135  24.9648571  12.0713878
  63.6699724  26.3840318  11.6632879  66.7329264  18.6850774  44.5498133
  67.1240997  18.9689600  43.7236023  66.7978621  19.4504189  45.1210117
  33.2701349  58.4479570  54.7785807  32.6051569  59.1128635  54.5998859
  33.9730716  58.6393070  54.1576958  38.5179043  61.2356710  28.1012535
  38.5716605  62.0222855  28.6440063  39.1561556  60.6350517  28.4861231
   7.0615286  30.3107357  26.4370275   6.2664509  30.2237940  25.9111714
   7.7763051  30.2329469  25.8051467  58.9130259  24.9616933  44.7364521
  58.3125353  25.0151610  45.4799461  59.3956041  25.7880497  44.7584248
  13.0503213   7.3821843  41.2666225  12.5306225   6.6598099  41.6192150
  12.4599946   7.8276247  40.6588984  14.3800271  70.8894444   3.5818884
  14.3675888  70.9507704   4.5370406  13.9593947  70.0512552   3.3902031
  15.4543149   6.7855060  40.0348711  14.6513224   6.9767743  40.5194855
  16.1379015   7.2612137  40.5067253  31.2099457  62.2725487   4.1217288
  30.8468413  62.7525234   3.3774093  30.5502009  62.3622417   4.8094249
  66.3953972   4.3144956  35.4849982  65.7452202   4.4641078  34.7986197
  65.9316015   4.5061049  36.3001132  56.3374662  17.5307429  28.1558681
  55.4299068  17.6697326  27.8852177  56.3511753  16.6368473  28.4979129
  55.4573202   9.1605848  46.7607880  55.7579088   8.7786019  45.9361839
  54.5438480   9.3951732  46.5971613  46.8904877  66.9481516  30.8104753
  46.9906235  66.8697691  31.7591906  47.7285242  67.2992373  30.5093741
  61.3922977  63.9663553  61.7908573  61.0431814  64.4875908  62.5138092
  60.7299614  64.0364265  61.1033726  35.5494761  11.4825225  17.5316119
  36.3957834  11.0356402  17.5487339  35.5595231  12.0442653  18.3065796
  42.3557997   3.5682356  30.5573678  43.0340481   2.9136926  30.3906751
  42.5306702   4.2617178  29.9211812  26.5392208  54.2748642   6.5497273
  26.3617992  53.6733246   5.8266056  27.0268083  53.7495136   7.1841562
  25.2410769  34.0281463  36.7333817  24.8873949  33.9660716  37.6206732
  25.9886479  34.6204305  36.8144226   1.9549769  15.0252891  31.3029099
   2.1585698  15.7612741  31.8800616   1.8370804  15.4229116  30.4402232
  32.6400096  74.5230618  23.1260133  32.5106580  74.2160838  24.0233803
  33.1056029  73.8076140  22.6928997  16.2479353  43.7552261  54.4424343
  16.4581931  43.0088472  55.0036335  15.3428030  43.6031103  54.1707182
   7.4227065  27.4773145  17.3398805   7.6276594  27.5910044  16.4118171
   7.8234011  26.6398048  17.5728047  26.4123225  62.5114393  28.6660361
  26.1254644  61.8135262  29.2549849  27.0306206  63.0246973  29.1861367
  53.5866499  15.8548284  41.8240547  54.5096207  15.8846354  41.5721226
  53.2920790  14.9856484  41.5520477  74.9252939  41.0731888   6.6018754
  75.1660156  40.8641624   7.5044245  74.9041080  40.2257776   6.1572582
   9.8857975  26.1600137  20.0366664   9.2846131  26.8732667  20.2513266
   9.4989657  25.7444692  19.2660069   8.4553736  33.1978655  61.5160275
   9.2694342  32.7853107  61.2273455   7.7905488  32.8626704  60.9144592
  55.7204485   1.4545606  35.7493448  55.9856081   1.3878953  36.6666651
  55.2269888   0.6512637  35.5836821  36.0491991  66.1574554  39.8684740
  35.2210212  66.6245127  39.9789596  36.1879468  66.1366034  38.9216113
  52.0361233  63.9794540  22.4636173  51.2499285  64.0390015  23.0063677
  52.1218204  64.8477936  22.0700765  56.8027973   8.1191993  38.4185457
  56.6359186   8.8337100  39.0332460  57.4168873   7.5464731  38.8780141
  48.7984943   8.5545999  46.3182163  48.9898777   9.3223494  46.8568897
  49.6583509   8.2244146  46.0577250  44.8405361  10.3165424  51.5274811
  44.2447138   9.5780081  51.6531515  44.7988319  10.8009219  52.3520184
  14.3317103  29.5347476  59.9270868  13.5653257  29.6254873  60.4933453
  14.9527991  30.1831079  60.2589083  76.3104010  54.7760582   2.8177887
  76.8263912  55.1205397   3.5467020  76.7622519  53.9713907   2.5636816
   4.5942041  30.8456898   6.6719037   3.6705038  30.5948305   6.6808033
   4.9934852  30.2663565   6.0229206  57.8996372  18.9912355  50.3596830
  57.4271584  18.4825683  49.7007036  57.2359896  19.5677793  50.7383728
  51.8460655  23.3412504  10.5324304  52.2040892  23.2782674   9.6469456
  52.6008081  23.2083511  11.1059558  39.5061111  60.7384682  18.4891820
  38.6408472  61.1413765  18.5613871  39.4651151  60.2261305  17.6816785
   6.4498883  36.3034892  10.1050973   6.0167629  37.1569967  10.0924218
   6.8316656  36.2156487   9.2317349  47.2389793   4.0631187  37.1144009
  48.0530643   4.5346975  36.9380045  46.5712404   4.5483935  36.6297698
  44.4505835  63.7838554  57.5422335  44.2302895  63.0608892  58.1296253
  44.6706200  63.3599472  56.7127085  40.1007557  63.1618690  31.3287497
  39.2773890  62.6790953  31.4010692  40.0379896  63.8439560  31.9973683
  18.6452627  34.4688034   2.1111664  18.6321616  34.7779942   1.2053729
  19.5109928  34.0744519   2.2171387  17.7506745   4.9897960   1.5050864
  17.8267002   4.1552943   1.9677514  17.9332209   4.7741124   0.5905432
   7.0421249  28.2322192  28.7434483   6.5234989  28.9421105  29.1220164
   7.8029603  28.1579137  29.3195033  16.1654973  17.9922724  34.2681336
  16.1452413  18.8954699  33.9518189  15.4545021  17.5575733  33.7972236
  21.0944676  68.6977434  20.8201623  21.8322945  68.1098270  20.6583095
  21.2594414  69.4509029  20.2529168  24.2115498  62.1941376  60.9511805
  24.5564699  62.7871323  61.6187239  23.5780048  61.6497850  61.4186525
  39.9108386  11.9614530  31.9589162  39.7400427  12.5190997  32.7179217
  39.0686059  11.9069910  31.5073514  76.8955755  58.1742287   9.3237472
  77.7128410  58.6131191   9.0877748  76.3463545  58.2553387   8.5439974
  52.5625420  60.1015186  27.7020526  53.2796001  60.7207918  27.5658321
  52.3464012  60.1858568  28.6307096  61.4410496  64.1626978  23.1622458
  60.6044722  64.5624733  22.9244471  61.3390923  63.2391262  22.9323435
  66.6241074  43.0830765  37.4132109  66.3668299  42.3794079  36.8174863
  67.2731638  43.5871077  36.9223809  19.6513546  40.5746269  22.4876738
  19.6403372  41.0825109  21.6764021  20.5724812  40.5581808  22.7474618
  68.1643486  44.5617962  11.2963581  67.9085064  44.3727875  12.1991599
  68.8830853  43.9549875  11.1190593  77.8812122  23.7762260  42.0968294
  77.5587130  24.6112800  42.4358130  77.9785967  23.9213276  41.1557150
  77.3624277  32.3733878  46.8288231  77.6658916  31.5434241  46.4609909
  76.4707899  32.1919179  47.1259546  53.0181456  36.9052863  45.1649427
  52.3389912  36.3510036  45.5493212  52.5952721  37.7560258  45.0481033
   3.9155936  39.1960430  11.3842213   4.0192282  38.8780737  10.4873455
   3.9618638  40.1490259  11.3073277  32.2230887  57.0290518  16.6579056
  31.7037916  57.4225521  17.3591340  33.0758190  56.8587685  17.0580113
  71.3719559  27.8289223  47.4688292  70.5338192  27.7309132  47.0169926
  71.6542387  28.7192702  47.2594786  70.4758358  33.9893961  34.4957280
  70.2492905  34.7761178  34.9916887  70.0897598  34.1316485  33.6314702
  49.9000454  69.5898533  21.7481780  50.0189590  68.9194441  21.0753870
  49.2045498  69.2459106  22.3087335  33.6221910  70.0041628  18.7431264
  33.9479804  70.8240080  18.3717096  32.7175379  69.9448824  18.4360135
  50.9053802  23.5077715  52.9104567  51.8393707  23.6495519  53.0646944
  50.8039808  23.5903025  51.9622231   2.9432553  18.3128929  25.3186250
   2.2818954  18.6884058  25.8998513   2.4578789  17.6967990  24.7699261
  71.6962004  24.3547988  42.4380970  71.1388063  25.1041055  42.6480627
  71.4146471  23.6695457  43.0442190  20.6588078  10.3993237  41.9225121
  21.1542177  10.4816771  42.7373886  20.6122637   9.4563597  41.7647648
  32.4580503   6.6944849  -0.1774411  32.3031640   5.7760930   0.0434630
  33.2369709   6.9335836   0.3248993  17.2671187  65.1081896  54.5943499
  17.8816915  65.8287859  54.4555187  17.5213397  64.4488287  53.9487171
  76.5074873  42.7516222  24.8010540  75.9152842  43.5015535  24.8569655
  77.1765471  42.9248810  25.4633045  71.3622427  53.0760670  30.9946847
  71.0528183  53.6662006  31.6818762  71.2294579  53.5642004  30.1820827
  27.4368978  73.8815260  35.1114917  27.0636606  73.2087517  35.6809664
  27.6733351  73.4133577  34.3107772   1.8257381  25.4676175  56.9617319
   1.0243706  25.4250813  56.4399719   2.1094799  26.3790584  56.8910265
  70.8228350  18.6998677  35.3006411  71.0078382  18.6871719  36.2397075
  69.9463511  18.3228493  35.2240801  68.0633926   9.4245887  55.5210304
  67.3780489   8.7626517  55.4295158  67.7073812  10.1996148  55.0864983
   7.4251372  29.8632598  19.1760623   7.3853493  29.5091009  18.2876813
   7.4491763  29.0908957  19.7409582   7.5149915  69.5078365   0.0138136
   6.8898341  68.7837283   0.0466820   6.9751928  70.2941553   0.0947805
  77.8639507  16.2898242  49.2256451  77.2038937  16.9829440  49.2136955
  78.6769724  16.7373395  49.4600725  47.6689339  39.7626948  44.8970890
  47.5639868  38.8119221  44.9323893  46.7741060  40.1025629  44.8960733
  64.1128969  33.1744838  39.6099854  63.9577675  34.1148376  39.6988797
  64.5162010  32.9187918  40.4395628  62.6583767  33.0568719  51.5243483
  63.0689096  33.9030051  51.3461590  61.7812538  33.1323600  51.1485958
  24.4250703  64.1008854  12.6796973  24.3044376  63.2560062  13.1131303
  25.2978683  64.0478420  12.2902811  12.2805572  16.7131877  45.9143114
  13.0340469  16.7700851  45.3267336  12.6572907  16.4931047  46.7662907
   7.9962653  14.7096574  31.6178918   7.3515463  14.4838250  32.2883916
   8.7459004  15.0449240  32.1097016   6.3277119  12.7706432  18.0666018
   7.1495897  12.3843086  17.7641225   5.6582421  12.1320760  17.8210974
  48.3388186  25.9863758  42.9333496  48.6063719  25.5332327  42.1337795
  48.7134504  26.8631268  42.8485537  42.4091196  67.9601049  63.6133623
  42.8849697  68.6392069  63.1352234  42.9024982  67.8489923  64.4260502
   6.3974065  20.6582856  36.2146997   7.0466954  19.9564195  36.1695266
   5.8893967  20.5668569  35.4085994  58.5992432  27.9658318   9.4728196
  58.9514589  28.7483907   9.8968244  58.6424160  27.2879982  10.1472890
  67.5396681  15.7808816  41.8833065  66.8452311  16.3999116  41.6579390
  67.4332857  15.0636721  41.2583828  63.8798475  27.8907228  16.3207078
  64.0147257  28.2437325  15.4412627  63.9459991  26.9421601  16.2107861
   8.8783783  35.7118058  60.5907059   8.8855791  34.8152685  60.9259701
   9.3493497  36.2186575  61.2521553   8.8231093  10.6182826  44.4519424
   9.2841733  10.4771960  45.2788353   8.1964439  11.3161039  44.6431732
  77.8332615  20.2437687  39.0459347  77.0369339  20.7703662  38.9767766
  77.8923368  19.7875094  38.2065463  13.6031437  40.8885479   2.1843503
  13.6778796  40.4275894   3.0199122  14.4916749  40.8846760   1.8283604
  35.6460834  35.2399278  24.0341425  35.6627226  34.4814825  24.6178555
  36.3927817  35.1088452  23.4497714  37.1297956  67.2190094  61.6233540
  37.0377302  68.0429268  62.1018028  37.2441387  66.5573740  62.3055553
  70.9762621  40.4521132  61.5093708  70.9641361  39.5932651  61.0869122
  70.0831509  40.7813358  61.4083862  38.8720942  71.3556433  45.4824686
  39.7238183  71.0087729  45.7479429  38.6630607  72.0119905  46.1471081
  33.1494164  21.6573143  30.9569025  32.3540640  22.0536947  31.3126159
  32.8386450  21.0845733  30.2557468  75.4740906  25.4465580  30.0943208
  76.1528778  24.7757268  30.0204110  75.9515715  26.2753940  30.0586462
   8.3301008  48.9769697  16.5621006   8.6471575  49.0002918  15.6592369
   8.6927146  48.1677198  16.9224584   2.1121001  11.0564435  37.7237916
   1.9356507  10.2227294  37.2878814   1.2533060  11.4716423  37.8032517
   1.5735681  53.7511635  37.8807092   2.4336803  54.1642714  37.8046679
   1.4504084  53.6258221  38.8216424  10.3336143  11.2806726   1.5030403
  10.4215837  12.1730185   1.8380199  10.2097154  10.7424819   2.2848533
  22.3547292  44.1945839  56.8788671  21.9167423  44.4720316  57.6834917
  22.3558807  44.9754763  56.3253021  71.3025904  60.0330305  31.3867664
  71.8470097  59.3653584  30.9695745  71.1936998  59.7253609  32.2866058
  60.7806396  52.1076584  21.0984278  60.9375525  52.8316355  20.4922390
  61.3219023  51.3929272  20.7631302   7.5049633  42.7910089  38.9886045
   7.0613438  41.9992542  39.2928481   8.4301567  42.5482464  38.9523339
   5.1065588  36.8690062   2.3456429   5.2100986  36.3070440   1.5777171
   4.7073197  37.6693630   2.0046632  13.9399612  16.9989824  62.0428801
  14.4013166  16.2957203  62.4998283  14.5876098  17.6995468  61.9654608
   9.9619335  31.9655728  25.3191543  10.7424998  32.4424624  25.0371528
   9.2416650  32.3859215  24.8493123  72.2128534  29.9163628  19.6493709
  71.6617298  29.5671368  20.3497529  72.0845032  29.3109345  18.9191556
  74.3006849  46.2821579  28.6300588  74.4833803  46.2006521  29.5661211
  75.1640177  46.2825012  28.2166696  62.8314066  15.1106632  13.8556671
  62.0441389  14.5895720  14.0134740  62.9541922  15.6096780  14.6632195
  58.4724808  22.3600459  47.5329018  59.1527176  23.0095434  47.3549604
  58.5359907  22.1984410  48.4742212  63.0556297   2.6382634  45.3034878
  62.4902821   2.2905557  44.6137667  63.5846138   3.3053482  44.8659897
  18.9618146  18.6393046  38.9619040  19.7597468  18.1405520  38.7864542
  18.3156776  18.2788885  38.3545828  78.6097050  69.8330307   2.8094742
  78.1346607  69.8496866   1.9786403  78.0386162  69.3443394   3.4021515
  73.2840204  62.2371483  31.0468054  73.1709433  62.8334475  31.7869902
  72.6659155  61.5260172  31.2155390   3.9663237  23.0318403  23.8479853
   4.7232866  23.0684590  23.2632661   3.9220464  22.1168041  24.1254449
  12.8212941  37.5809097  26.2683868  13.5747981  38.0753851  26.5908122
  13.0719423  36.6636682  26.3782644  27.9598784  55.4656315   1.0745382
  28.8251686  55.5650377   1.4715554  27.4698830  56.2317514   1.3731940
  34.2889452  56.8233871   2.6188895  34.6763086  57.6554203   2.3470451
  33.6713195  57.0613146   3.3103824  66.4664221  45.3092623  48.8579988
  65.6867123  45.6494904  48.4192133  66.6017246  45.9005070  49.5985031
  59.3756294  25.6111956  58.4990454  59.3520546  26.4810395  58.1002426
  58.4552336  25.3652191  58.5918093   0.3096364  26.5782475  26.9748187
   0.7924127  26.0673428  27.6245379   0.4917517  27.4897432  27.2033858
  15.5501413  32.7381754  33.3582759  15.0400424  32.0767140  33.8257122
  15.7352126  33.4075522  34.0169978  11.1086607  51.3042736  57.7819681
  11.9855523  51.6273546  57.9891205  11.1949313  50.3510809  57.7966738
   1.2622042  23.9347935  53.0073166   0.3150473  23.8117695  52.9441452
   1.3653462  24.7708225  53.4618998   6.1363077  34.1667175  56.5626717
   6.4705515  35.0351620  56.3383532   6.7862999  33.5606980  56.2070274
  55.8483362   8.6395562  10.6782448  54.9577999   8.4118855  10.4111505
  56.1223364   9.3095475  10.0519323   0.8086905   4.4830567  39.7322679
   0.2424891   4.3046290  38.9813948   0.2688165   5.0129426  40.3187752
   1.3844600  29.8368287  59.9356461   0.8925881  29.1818309  60.4308987
   0.7269403  30.2676630  59.3894958  54.7021818  21.4553475   9.9558848
  55.0769520  21.8706155   9.1791409  55.4340172  20.9812236  10.3506672
  54.8198271  31.3339305   1.2570950  54.2652082  32.0440245   1.5801995
  55.6782246  31.7385173   1.1318421  51.3164711  26.6121984  56.6236925
  51.1000586  27.4806786  56.9630146  50.6660700  26.0317111  57.0189714
  25.8950925  60.2436733  12.8057015  25.6167316  61.0757065  13.1884098
  25.2461195  60.0639057  12.1254432  72.6687288  60.9910297   7.0498091
  73.4557915  61.2417555   7.5334412  72.0247126  61.6620970   7.2759533
  59.9775457  19.2013276  18.4814072  59.6939611  19.8214602  19.1531575
  60.2472925  19.7515392  17.7460599   0.5450825   8.9765447  49.9863958
   0.3058008   9.8096031  50.3925848   1.1127619   8.5510707  50.6290054
  25.7429075  10.3962958  17.8456259  26.4895272  10.4147017  18.4443367
  25.0342560  10.0075364  18.3583724  35.6732678  73.2376719  34.8878765
  35.3638434  73.8055706  35.5935550  35.2192497  73.5560846  34.1076756
  17.6253307  66.0655594  45.5488729  17.9442823  66.6659832  44.8750830
  18.3587718  65.4710579  45.7065439  43.4711123   2.3561278  39.4021344
  42.8190422   3.0295819  39.2084956  42.9600620   1.5560845  39.5245719
  48.1197214  31.9260883  43.2432890  48.0345964  32.2281480  44.1475821
  47.8806162  32.6864457  42.7132750  57.6708126   6.3277984  42.8982973
  57.0320797   5.8806294  42.3430538  58.2329035   5.6270969  43.2289076
  24.1321921   7.1161085  25.5690050  23.8102984   6.2159413  25.5208945
  23.9294386   7.3955840  26.4617634  51.6926146  73.8801384  25.0488234
  52.2053719  73.2968855  24.4892454  51.0939503  74.3235350  24.4477987
  38.6876464  28.6808109   3.7294328  39.0712428  29.5558715   3.7873280
  37.9829621  28.7701750   3.0878207  72.2755480  13.9637005   9.6548885
  72.5613880  13.2299125   9.1107541  72.9394388  14.0254772  10.3416646
  40.8659029  55.9278679   4.2770010  40.3210497  55.2440453   3.8874465
  40.9171391  56.6060257   3.6034238  47.7884007  31.5678120   7.8321761
  48.1985426  30.7034707   7.8016573  47.8245258  31.8175936   8.7555045
   7.4360180  45.3168726  54.6918869   6.9215465  45.7561159  54.0146732
   6.7833996  44.9202728  55.2689743  12.6256895  40.1333189  35.6912184
  12.6540732  40.6374216  34.8780107  13.0372989  40.7032681  36.3408113
   6.6601777  47.0956326  44.5493746   5.7878137  47.1922016  44.1674232
   7.2174078  46.8433142  43.8131285   5.8052337  56.7062283  12.5197983
   6.2487996  56.9801331  11.7170167   6.4013594  56.9643307  13.2228267
  65.9873772  44.1757202  57.4357176  66.4805937  44.9482536  57.7117014
  65.1594067  44.2373943  57.9120541   0.5202917  25.1237583  62.8282309
  -0.3005834  25.5993533  62.9555464   1.1315874  25.7841396  62.5019789
  53.1420565  11.0740614  28.0185723  53.8893938  10.8269417  27.4739194
  52.4331522  11.2320721  27.3950982  54.3027306   4.7316197  31.1607170
  54.2507172   4.8718587  32.1061587  53.4664345   4.3257555  30.9324217
  68.2772112  24.1418147  39.6199274  67.7305365  24.9160409  39.4859433
  68.1807184  23.6377406  38.8119483  24.7674656  33.0398250  18.0048251
  23.9208055  33.3061957  17.6464295  25.3437209  33.7855768  17.8374553
   3.8806564  56.5828562  56.5978527   4.1097918  57.5119066  56.6222525
   2.9385328  56.5640306  56.7660236  77.4217892   9.7782272  19.7251618
  77.7331018   8.9186013  19.4416857  78.1623030  10.3644347  19.5695031
  60.7502937  10.4481995  57.8999043  60.3181028  11.2719703  58.1253958
  60.5874586   9.8786479  58.6517859  67.6288748  66.3549137  12.7049112
  67.7899837  67.1964884  13.1315553  68.1180668  65.7222128  13.2308531
  59.5421791  40.9445667  47.3812866  60.0451994  41.7581701  47.3458147
  59.9109697  40.4043102  46.6824675  64.2105722  52.1934271  27.9335213
  63.4384966  52.2492552  27.3704767  63.9579296  52.6553202  28.7329316
  71.8397856  37.6629877  63.6111355  71.2507772  36.9104218  63.6653852
  71.2621307  38.4076786  63.4438515  58.7497044  52.1874428  49.0216923
  58.2103586  52.1559858  48.2315350  59.5820045  52.5586653  48.7289429
  60.0982141  24.3154120  35.3122520  60.1391268  24.6625662  36.2033439
  59.9224663  23.3814931  35.4268789  71.0762596  28.6366510  30.4097486
  71.5438414  29.1508055  31.0679650  71.3773251  27.7387571  30.5489492
  68.1208658  25.9693289  60.0415087  67.8532028  25.6671524  60.9094238
  68.2945251  25.1658154  59.5511627  66.5433025  46.8886375  30.6163526
  65.9947872  47.5971413  30.2796221  65.9317160  46.1720133  30.7856154
  64.6709347  66.7175674  21.1123633  64.3611288  66.0781145  21.7537308
  65.1849794  67.3413324  21.6251135  21.3765764  60.4747868  11.3267446
  21.9897985  60.1342058  10.6754434  21.9044304  60.5863285  12.1174157
   3.9206856  36.2142634  54.6767330   3.2701969  36.3914919  53.9972591
   3.4936741  35.5859327  55.2590513  50.7282591  16.1436629  47.5393581
  51.6555738  16.0416627  47.3250771  50.2934551  15.4350877  47.0649147
  61.5029383  31.3307548  34.6962094  61.5957451  30.3864527  34.8223495
  62.3679876  31.6858721  34.9006987  74.6409082  38.0172253  20.8076644
  74.4151545  37.1504378  20.4701066  73.8460302  38.5363317  20.6854844
  49.1798544  36.5083122  51.3485670  48.3055735  36.4573479  50.9622192
  49.4013786  37.4390221  51.3179111  58.8582945  28.7280607  42.8728390
  59.2501211  29.3894768  42.3025465  58.7745857  27.9525995  42.3179626
  69.5426750  17.3297203  31.4336562  70.1147318  16.5682900  31.5296245
  68.8716936  17.0483208  30.8117008  64.8085642  40.4327631  32.0681429
  63.9956331  40.2570963  32.5419712  64.7838402  41.3730049  31.8904734
  73.8694811  22.1770597  36.5531635  74.2527199  22.8209996  35.9575939
  74.3939543  21.3872170  36.4216018  28.9614415  50.3336716  28.0365705
  28.5660768  51.1984110  27.9263687  29.1370463  50.0351191  27.1442366
  11.8527794  32.5423050  57.5051117  11.5618718  32.4807453  56.5952682
  12.0347929  31.6378236  57.7600908  14.5460856  12.6701951   9.4841099
  14.4732463  13.3462203  10.1578426  14.5322168  11.8455017   9.9698257
  66.5625000  46.0810661  39.1820693  66.2247610  46.0982752  38.2866001
  66.1415052  45.3202486  39.5822573  24.3370438   1.0250628   5.9171462
  25.2606153   1.2075539   6.0901868  24.3220806   0.6970683   5.0180203
   2.9504713  28.8954020  42.7078629   2.2075884  28.5907555  43.2289648
   2.8283831  28.4829688  41.8527460   2.5252903  12.1439099  47.6873064
   2.1383452  11.3886607  48.1301451   2.8549290  12.6948547  48.3972549
   8.0943793  36.1695123  56.1187363   8.4878433  35.8736897  55.2978182
   8.5486102  35.6686020  56.7962265  27.8757477  45.7422924   3.6647177
  27.7164459  44.7985077   3.6533368  27.3544979  46.0819626   2.9372877
  68.8092518  50.7002449  47.1405172  69.1905785  50.6023216  46.2680340
  68.4164000  49.8475933  47.3272848  70.4370260  45.3049660  19.6770179
  70.7304668  45.7940102  18.9082778  69.8893976  44.6052265  19.3210638
  21.7060661  56.3099766  44.1347027  21.2144279  57.0019293  44.5771074
  21.5724635  56.4799118  43.2022285  14.1576242  50.6133318  21.9521546
  13.7467551  51.3787937  21.5502954  14.7966039  50.3166151  21.3041639
  16.8796194  58.2002306  47.8995466  16.7544103  57.3331833  47.5138187
  15.9960270  58.5619974  47.9675388  66.8399286  29.7809196  15.3786206
  67.2479010  29.9774575  16.2219262  67.3296642  29.0291810  15.0450361
  21.0585141  11.6562390   5.1269084  20.1224995  11.4601672   5.1676810
  21.1288905  12.5559139   5.4460716  69.6661711  13.5645151  10.5103087
  69.2638350  12.8891444   9.9642026  70.5387878  13.6865544  10.1363051
  33.9759231  14.2209923  12.8204095  34.7938013  14.1627955  12.3265266
  34.1932178  13.8734376  13.6854076  60.7305193  17.7635813  26.6968060
  60.6066370  17.3715305  25.8324099  60.7018900  17.0226777  27.3021746
  68.3794573  73.6574945   5.7713294  68.4049430  73.2540111   4.9036986
  67.6684358  74.2960905   5.7177085   5.0781488  32.5428081   8.6657387
   5.1627094  32.0757008   7.8345394   4.7675774  31.8799281   9.2824793
  12.1139705  69.4766760  31.8938351  12.2578764  68.6362743  31.4588118
  11.9594324  69.2485094  32.8105092  54.6432543   0.1770819  43.8282824
  55.3703070  -0.4417134  43.8969898  54.5130014   0.4937887  44.7221327
  16.6821146  54.4060135  40.4058123  17.1129954  54.2154360  41.2390327
  16.1671269  53.6214352  40.2175236  69.7702742  16.0866332  46.2611198
  69.3337345  15.2363002  46.2101078  70.6339312  15.9359193  45.8769131
  26.9090056  69.9801731  17.2668517  27.4609971  70.7083321  17.5520265
  27.4761319  69.4574022  16.7000115  39.5188665  72.4414730  39.4084144
  38.8758731  72.5726414  38.7115741  40.2031231  71.9070244  39.0054321
  42.2783524  73.7986473  24.3611217  41.7348964  73.2464854  23.7989807
  41.8802411  73.7228409  25.2282953  73.1202221  14.0132880  46.1489010
  73.0917215  14.2425406  47.0778036  74.0428972  13.8254905  45.9767532
  13.3131099  36.2652922  62.9466391  14.1333044  35.7720613  62.9312706
  13.5641277  37.1381044  63.2489967   0.5437838  22.5934863  37.0903134
   0.9984614  23.2770991  36.5982008  -0.3850337  22.7979851  36.9820952
  13.6217523  30.7883000  37.7309513  13.4020782  31.7192149  37.7679634
  13.0697238  30.3851199  38.4009838  74.6752405  68.3400488  58.3822441
  75.3487444  68.2462788  57.7085733  74.9175310  69.1369772  58.8538694
  47.8922510  18.0117846  50.1671505  48.8334846  17.9067981  50.0282717
  47.5195408  18.0202591  49.2855358  53.6963987   4.1245350  49.9919128
  53.1300402   3.3945319  49.7417784  53.4057140   4.3624395  50.8723307
  77.5989914   4.6292946   3.3824223  77.5458670   5.2568656   2.6616144
  77.1324015   3.8571334   3.0625886  78.8029909  42.0676517  46.9298029
  78.3428812  42.9050064  46.9878721  78.2257128  41.5130472  46.4050198
  73.7712765   7.1676970  26.7735863  74.1137838   6.9743115  27.6462388
  73.1817770   7.9099864  26.9067383  19.9377835  43.6655092  10.8304965
  18.9912629  43.5438251  10.7561815  20.1249385  44.4281006  10.2830863
  66.6576910   6.4743173  32.7494502  66.1003733   5.7711804  33.0829573
  66.0477591   7.1764278  32.5230503  58.2256031  64.3545771  36.4450455
  58.1368065  64.9234819  35.6803918  58.4050179  63.4883022  36.0795212
  72.7696085   7.6223314  23.6380935  73.0176783   7.3516399  24.5220733
  71.8245935   7.4752277  23.5988927  20.2650166  35.3908229  14.6434057
  19.4676518  35.8983135  14.7947145  19.9542820  34.5535421  14.2989683
  69.9170923  10.3540266  33.5793138  69.4577312   9.5145082  33.5586643
  69.8182487  10.7029867  32.6934862   5.0368059   5.3187293  54.2318296
   5.9579796   5.5226862  54.0703630   5.0401962   4.8317373  55.0558805
  73.2487822  53.0379152  53.9614058  72.3442698  53.3237743  54.0893650
  73.7629223  53.6058664  54.5352745  56.6452646   9.5820731  62.0131969
  57.5036287   9.9883711  62.1330404  56.4969397   9.0925187  62.8222513
  51.4727879  11.6735923  25.8760667  51.1939573  11.1710811  25.1105809
  50.9031153  12.4428117  25.8781075  33.5586882  28.2323956  51.1374903
  33.8141632  28.7549114  51.8977165  32.9520917  28.7933755  50.6541967
  49.0813637  53.6342525  16.9081390  48.3364916  53.0346966  16.9521046
  48.9077950  54.2823410  17.5908434  35.1767421  58.7599897  15.2558172
  35.9343243  58.5780096  15.8118618  34.9660277  57.9168463  14.8546493
  77.4065542   6.9652045  30.6843972  78.0379868   7.4323082  30.1372743
  77.9450703   6.4517099  31.2865257  60.9198761  69.6351528  19.9332309
  61.5205097  69.5144749  20.6686950  60.9083509  68.7860060  19.4915903
  68.2865334  10.4914212  52.1952868  68.9603949  11.0904706  51.8739128
  67.8509092  10.9751964  52.8970194  77.0896482  40.2222538  41.9089985
  77.0682621  39.5503378  41.2276030  77.7279568  39.8985577  42.5446177
  72.8640223  43.7766409  45.4978514  72.4928093  44.6389818  45.3112984
  72.9837704  43.3760595  44.6367884  55.8902788   8.0810755  21.7856193
  55.2653646   7.9385430  22.4965358  56.7247009   8.2371444  22.2279024
  40.2302408   6.2563819  11.7804813  39.7851348   7.0274180  12.1320724
  40.4785395   6.5080023  10.8909500  50.0299120   7.3922694  16.7349970
  50.4173279   7.7500582  17.5338268  50.5689812   6.6287124  16.5285563
  48.9796972  11.8082058  10.3685355  49.8785257  11.7552960  10.6934083
  48.4427595  11.8703282  11.1585152  18.8588369  59.4223881   0.6856219
  19.2899311  59.8581314   1.4208186  19.3913066  59.6535873  -0.0754666
  57.1585369   5.2907795   8.8684487  56.5482473   5.3885031   8.1375372
  57.7549553   6.0346293   8.7835753  59.9918604  71.3263035  11.6693747
  59.3088531  70.9661245  11.1036813  59.9555016  70.7889509  12.4606776
  11.9974351  56.9708443  62.8638315  12.9470825  56.9147110  62.7577591
  11.7235506  56.0724640  63.0485821  34.0432715  62.7891779  47.4392080
  33.0910015  62.6953363  47.4145126  34.1897702  63.7340832  47.4830341
  11.5739584  67.2822428   1.7520864  12.4474537  66.8921900   1.7851621
  11.2294245  67.0259142   0.8966201  74.1746521  45.8500338  20.4624152
  74.3351126  44.9710131  20.8056378  73.2998085  45.8007097  20.0771284
  33.3232045   6.9864452  18.4500158  32.8102446   6.2355840  18.7488651
  34.1600847   6.6110778  18.1762207  66.6302156  39.2364049  26.7085862
  65.9226322  39.0743089  26.0846663  66.2077427  39.1931176  27.5664163
   0.2634131  45.9824657  47.0722866  -0.6413231  45.8279610  47.3439693
   0.7922302  45.5613661  47.7499723  19.8596716  39.3161607  52.5437737
  18.9484453  39.3327522  52.8363895  19.9294829  40.0522947  51.9359350
  41.6704845  24.2659926   3.6119768  40.7686186  24.0195823   3.4066772
  41.9049644  24.9015903   2.9357633  69.0428066  29.6660829   4.5776021
  68.9234877  29.0513325   3.8536686  68.3463860  29.4457102   5.1962060
  35.2179119  47.6904391  63.6442553  35.4594413  46.7804067  63.4718117
  35.5021611  47.8471731  64.5447375  38.0621624  71.7788458  48.3536625
  37.8612089  71.1004686  48.9983749  37.2063541  72.0916796  48.0604792
   5.1754081   3.3185774   6.3579541   5.9158409   2.8336653   5.9934670
   5.5510318   4.1523328   6.6407806  78.0916071  67.4637651  28.9740086
  77.5846052  67.3314428  29.7750545  78.7091160  68.1613111  29.1938663
  78.9404433   0.1287958  17.9856324  78.6686509   0.4909107  18.8289797
  78.1198781  -0.0732782  17.5361073   2.3249133  71.2042904   2.9981941
   1.4824560  70.8113384   2.7699631   2.9743430  70.6356716   2.5844935
  35.5221176  68.7046814   7.3264629  35.7560253  69.6326542   7.3462307
  36.3459516  68.2464314   7.4924088  67.0744753  27.5448275  29.1323066
  67.3485708  28.1417418  29.8285794  67.8412867  27.4714136  28.5641122
  25.3725147  34.6876860  61.5021706  24.9606419  35.5492806  61.4369822
  26.2124348  34.8554420  61.9295168  69.0396500  11.9367337   8.3031201
  69.3474770  12.2978818   7.4718285  68.0854750  11.9898033   8.2486343
  68.7110615  31.7417717  61.0361671  69.5057344  31.5042329  60.5583620
  68.2407522  32.3272872  60.4426908  11.7630219  17.2670531  50.8435869
  12.3568571  16.6027856  50.4938173  11.9500482  18.0511665  50.3274298
   9.7542799  13.6666203  17.5387919  10.3111839  13.0030048  17.1317232
   9.3288922  14.1065836  16.8027830   6.8201184  55.6779575  54.8747206
   6.6037863  56.5448236  55.2181911   7.1204430  55.8425903  53.9808893
  19.7523463   6.4070851  22.2588897  18.8416135   6.1140817  22.2281194
  20.2438164   5.7070357  21.8292165  50.2791882  17.0167613   9.4011742
  51.1842680  16.7067039   9.3707436  50.0866604  17.2824287   8.5019600
  29.3355656  32.0490313  60.1832867  28.4352994  32.3384047  60.3316593
  29.8248172  32.3964906  60.9290314  26.1020112  59.7625732  20.1589012
  25.8718681  60.0172949  21.0524249  26.5460682  58.9202785  20.2568126
  12.5001383  11.5226400  23.9953542  11.7423451  11.8021727  23.4816957
  12.6799822  12.2605395  24.5779276  11.4087796  34.2448592  52.5625801
  10.6123614  34.7221398  52.7952909  11.0999167  33.5020041  52.0439243
  30.6566954  66.9447851  28.1351733  30.7485294  66.0034657  27.9877830
  31.3008213  67.1448278  28.8143754   8.0068046  42.2807074  56.1561251
   8.6103994  41.5432930  56.0660172   8.5179263  43.0431414  55.8846760
  75.5985641  22.8446150  27.4130607  76.1079836  23.0036855  28.2076812
  75.9172392  23.4972811  26.7895961  19.8594427   4.0530688  18.6980999
  19.1078734   4.6300560  18.5622275  19.8619080   3.8806587  19.6396422
  71.0860395   0.0689763  11.8710279  71.1714983   0.8342278  11.3024175
  70.3507853   0.2792509  12.4467123  74.4464111  56.6970491  64.1366577
  74.5032024  56.4601755  63.2109737  75.3428745  56.9277430  64.3802929
  21.3079166  61.9096184   8.4553432  20.5062771  61.8789196   7.9331708
  21.0597181  61.5289879   9.2978084   3.5954395  59.7872448  48.6892176
   4.2731062  59.9007225  49.3556452   4.0745112  59.7718287  47.8606749
  57.9928017   8.1398624  17.7485347  58.8283825   8.4594250  18.0889952
  57.3336458   8.6748004  18.1907892  45.7498598   8.4217566  19.2653155
  46.0836315   9.2135590  18.8435626  45.5040312   7.8489208  18.5389137
  11.7410743  25.0809526  53.4623671  12.1121681  24.5293832  52.7736807
  10.7941508  25.0101495  53.3417320  12.9580545  55.5169725  33.2474065
  13.6541510  54.8660660  33.1579375  13.3667433  56.3421679  32.9861403
   1.2794720  24.3594885  21.8501687   0.7996999  24.7161031  22.5977492
   1.3139807  25.0806069  21.2216544   0.7033833  25.5760694   8.8301879
   0.9083225  25.5744267   9.7651899   1.3132237  24.9436569   8.4502113
  35.4441381  51.0937119  16.7186618  36.1140800  51.6889811  17.0549130
  35.6616998  50.2454329  17.1050930  78.5816392  20.7785916  54.7623682
  77.8530427  20.7300329  54.1434813  79.2204757  20.1478839  54.4302130
   4.9860290  69.2463398  64.3084669   4.7169241  68.6757803  63.5885525
   5.8913016  69.4800520  64.1033030  79.0193227  38.3855534  51.7283773
  78.8975484  38.6547089  50.8179092  78.2766530  37.8093719  51.9091797
  33.7039948  63.3305264  16.1962461  33.2754016  62.4819136  16.3075686
  33.3239341  63.8823128  16.8798518  49.9959135  34.7025895  15.2781224
  50.0942135  34.2347026  14.4488740  49.7312975  35.5867839  15.0243342
  78.1926918  38.8512826  36.5416169  78.1386662  39.3706465  35.7393861
  77.3028755  38.5251713  36.6761947  57.4345636  11.5402186  12.8424907
  56.7416906  12.0138693  12.3822546  57.4916029  10.6991172  12.3891401
  69.1254902  34.3415046  44.4016266  68.9314175  34.5975757  45.3032875
  69.9077940  34.8435378  44.1731644  12.0375478  32.5386906  34.4612980
  12.6160753  31.7775989  34.4135833  12.6153529  33.2643056  34.6976423
  13.2279563  35.8078790  60.2679157  12.9200971  36.3597703  60.9868526
  13.3105576  36.4060473  59.5252180   6.9973654  69.6331692  33.2097077
   7.3732370  68.7892008  33.4600401   7.7392125  70.2379894  33.2190967
  72.7862167  11.3439238   1.8230647  71.9904470  11.7782283   2.1302505
  72.6619053  10.4237688   2.0556477  53.2345867  68.1261396   0.9359726
  52.6384830  68.8097525   0.6300865  53.8766146  68.5907984   1.4727461
  59.2945957  36.2638378   4.6537060  59.2911100  35.3523302   4.9458963
  58.5279655  36.3360214   4.0851125   3.6817005  33.0335140  56.7994881
   3.7002200  32.3837113  57.5020838   4.4056034  33.6260772  57.0021391
  15.6154203   6.9773060  31.1180210  15.3827322   6.3267362  30.4555655
  16.2034523   6.5128845  31.7136407  59.7665976  13.7084640   0.8192392
  59.5616852  14.3067850   0.1007315  59.7375141  12.8381313   0.4218622
  73.0733061  37.4989104  29.6918893  74.0128231  37.3269463  29.7548556
  72.8964520  38.1234574  30.3953791   9.7025001  46.4708805  53.7941647
   9.5224112  46.4234114  52.8552580   9.0796447  45.8604383  54.1886711
  31.0748529  72.6218653  28.3147383  31.6199565  72.6055765  29.1013932
  30.5751014  71.8063641  28.3527112  34.6779609  59.0458441  61.8301916
  35.3732133  59.3896246  62.3911428  35.0800633  58.9789295  60.9641266
  26.5534163  34.1463757  59.0477896  27.4787974  34.3091893  59.2305279
  26.0988355  34.4328356  59.8399544  73.4969378  72.0908785  11.7666912
  72.7702475  71.4721012  11.8393016  73.6313534  72.1929646  10.8244908
  69.2810059  20.2005339  51.0953045  68.9754152  20.9014797  50.5195236
  69.6632385  20.6561828  51.8453121  35.0234413   6.9552052  32.1230531
  34.5586324   6.1201507  32.1765971  34.3308282   7.6093036  32.0299172
   3.6734074  11.7069829  25.4136753   3.5306424  11.5417135  26.3456297
   3.7123030  12.6607609  25.3427744   9.5637697  64.1720438  63.6336374
   9.4881839  63.9721680  62.7005959  10.1905239  63.5295486  63.9662170
  53.6905956  23.7970734  20.7725787  54.2647171  23.8632965  21.5356159
  53.8496447  24.6037316  20.2824402  71.0250521   2.8115565  58.3106518
  70.4332685   2.9808202  57.5775957  70.6830788   3.3505577  59.0239286
  36.3585520   0.6765400  51.1934233  35.5024576   0.3389811  51.4568424
  36.9785047   0.0045013  51.4767122  50.1677990  13.0081904  36.8389130
  49.6681881  13.0753863  37.6526117  50.4805326  13.8980150  36.6756988
  26.1749291  62.1096992  43.4737444  26.3871431  62.9342318  43.9111757
  26.2521434  61.4474297  44.1605234  16.3967061   7.6874083  16.8600035
  17.2773814   7.5237292  17.1974254  15.8532870   7.7778959  17.6427794
  67.7906513  43.5579443  13.9311719  67.0199776  43.1422901  14.3178582
  68.4387636  43.5631275  14.6355546  58.5376787  56.3668442   6.8998033
  58.5742569  56.9238710   6.1222333  59.4523525  56.1544609   7.0855331
  18.6669612  62.1707487  29.7848415  19.0022683  61.4978647  30.3773165
  19.4312131  62.7075005  29.5749640  42.3926973  55.9431553   6.6967481
  41.9711256  56.1320210   5.8583915  42.5818300  55.0054026   6.6638470
  62.2651434   6.6405499  16.0817015  62.5077868   6.4585292  15.1738334
  62.6678705   5.9321386  16.5838945  32.9690552  14.5550561  15.8953905
  33.8693595  14.2318976  15.8600163  32.5217128  13.9531088  16.4901817
  14.2377448  27.7658987   7.6359683  14.4345462  28.0999589   8.5111278
  14.7092628  26.9344282   7.5853544  12.3660016  54.1019440  50.7955265
  12.3510993  53.2250214  50.4120970  12.1445680  54.6847296  50.0691986
  60.7185936  11.1569655  24.1522551  60.4168320  10.6082392  23.4283280
  61.5503311  11.5195918  23.8473773  67.0338917  32.1705770  13.8890409
  67.0962477  31.4873433  14.5565248  67.4888086  32.9210448  14.2712510
   3.3129472  64.9274206  24.0666175   2.6870227  64.4207668  23.5491681
   3.9155006  64.2735481  24.4210362  20.4849124  72.6144505  33.8243961
  19.7127581  72.9367304  33.3594799  20.3088021  72.8090572  34.7449112
  50.8898630  11.4221348   0.2100750  50.6725254  12.3122181   0.4871031
  51.1185589  10.9679951   1.0210510  77.7879143  21.3521361  34.2441869
  78.0494595  21.3385630  35.1648617  78.4110546  20.7698750  33.8095665
  44.9491358  62.7990150  46.5235090  44.0981054  62.7645206  46.9603062
  44.7759628  62.4839926  45.6363773  59.7749233  26.9317794   0.6812600
  59.3978357  26.2054610   0.1847769  60.7165432  26.8676639   0.5216455
  47.3575878  67.8454542  18.6205399  47.1738911  67.0994377  18.0496287
  46.8982267  67.6423073  19.4353712  43.7356281  12.1367013  30.8169913
  43.8703060  12.1313035  29.8693299  43.3551693  11.2797666  31.0097265
  74.8768330  12.1075165  31.0988450  75.6205225  11.6665268  31.5095568
  75.2581549  12.5831628  30.3608847   1.0093197   9.6377909   8.2726640
   1.5232906   9.2527062   8.9824355   0.6145675   8.8874322   7.8284067
  69.3667269  16.4073634  14.4654322  69.8672724  15.9812546  15.1612186
  69.9883652  17.0106411  14.0581846  71.0439539  15.8386922  23.5890079
  71.5285587  15.1997912  24.1116881  71.2729645  16.6851711  23.9727545
  38.4306931  61.2765169  60.0444221  38.6764097  60.7332802  59.2955923
  38.9898491  60.9683704  60.7575989   1.5642335   7.3515475   3.3813974
   1.5036719   6.4538562   3.7080684   2.2516966   7.3184794   2.7161658
  75.6513357  35.7272744  16.2001610  75.8918285  36.2740684  16.9480979
  75.8501959  34.8345017  16.4823747  28.2602334  57.7043533   8.5685569
  28.8836145  58.2050371   9.0948093  27.8080606  58.3632469   8.0416524
  63.6826134  29.8732257  41.3471270  62.9738092  30.3160024  41.8137980
  64.4300556  29.9240041  41.9429302  47.1344328   8.1085801  25.6093669
  47.9147768   7.7562696  26.0373521  47.2792196   9.0545338  25.5883908
   3.9626449  17.3230994   2.0766772   3.1865793  17.1019745   1.5618388
   4.5854846  16.6222179   1.8841474  47.4105406  12.7126729  62.7776337
  47.8738594  11.9743371  62.3821259  47.2177744  13.2955933  62.0432806
  61.4785433  10.4929316   1.8815675  62.4119329  10.4282379   2.0836297
  61.3973713  10.1216388   1.0030549  10.8683443  49.7656822  38.6782241
  10.9407890  48.8881350  38.3028626  10.5310106  50.3050137  37.9629922
  56.8074083  70.1072979   0.2512594  56.0055923  70.6118870   0.3880467
  57.3795605  70.3663063   0.9736127  15.2417183  17.8780437  47.1702194
  15.5372834  17.7788413  46.2652159  14.7621989  17.0705891  47.3554516
  73.3013725   8.4949410  19.6636581  72.6880598   8.9542913  20.2373123
  73.4039640   9.0750223  18.9091957  27.7194309  12.9877913  43.5538530
  28.5877728  13.1297636  43.1769514  27.1350646  13.5238028  43.0177164
  61.7882347  59.1480780  13.9470494  62.7248907  59.3404627  13.9906001
  61.4558172  59.3784285  14.8146129  73.3632660  29.5934629  32.1067405
  73.0123329  28.7052631  32.1713972  73.7748814  29.6260858  31.2431765
  10.0934875  39.0067840  41.4520550   9.9957818  39.9077964  41.7600584
  10.4380214  39.0935302  40.5632353   8.3153558  57.8028440  34.5517778
   9.0639675  58.1877470  35.0074744   8.5742116  57.7947426  33.6302781
  13.1766748  11.0507834   0.8998799  12.3070109  11.3960695   1.1016088
  13.5573316  10.8465219   1.7540517   2.5984102   7.2797024  32.1709466
   2.7865392   6.6124755  32.8309846   2.5208348   6.7909259  31.3516116
   6.9162649  51.4625168  34.6916032   6.1992627  52.0081854  34.3685150
   6.9691151  50.7408237  34.0650296  23.9515090  24.2013431  21.7543936
  23.5627532  23.8139153  20.9701729  23.9457107  25.1432848  21.5842628
  34.2302442  17.7185023   1.4686607  33.4445024  17.2849321   1.1357060
  34.0019560  18.6479259   1.4856742  28.0146384  45.2572489   9.5221084
  27.3749256  45.6023550  10.1449251  28.5867572  44.7004271  10.0501823
  27.0458198   3.4585977  13.4287643  26.1078310   3.4753603  13.2386851
  27.1066046   3.0678850  14.3004751  73.0155897  47.1452332  36.7051029
  73.0576324  46.1889887  36.6974115  72.0905876  47.3454666  36.5618968
  21.1520505  31.9432402  15.1185000  20.9808898  32.2567391  14.2304373
  20.2844834  31.7609668  15.4795218  56.3334744   0.2225563  51.0768986
  56.0330313   0.9932634  51.5585327  57.1437400   0.5057308  50.6532049
  15.1001737   1.0277054  29.1199732  14.7271011   0.3004095  29.6180558
  14.3605706   1.3864633  28.6295557   7.4257815  50.2856731  59.6399879
   7.1472365  51.0728645  59.1720390   7.4146116  49.5959759  58.9763451
  55.4214621  20.0367618  29.2718911  54.7067881  19.8160160  29.8691726
  55.5267048  19.2575562  28.7260008  11.6721427  10.9798658  20.5903316
  12.4732578  11.3848865  20.2580619  11.1953914  11.6981053  21.0063505
   9.8009318  45.7680511   3.7154862  10.2289844  45.2456141   4.3937621
  10.4009080  45.7313347   2.9705611  28.4221292  38.3865070  60.7814407
  28.6580467  38.7278843  59.9188662  29.2227268  37.9709506  61.1017370
  70.5213222  72.8679048  63.7779226  69.6898565  72.4037920  63.6805017
  70.4110250  73.6674892  63.2633997  29.8204613  59.6060848  10.0420153
  30.7243872  59.3479824  10.2223837  29.5834279  60.1756573  10.7738853
   6.6903889   1.2780687  12.0735765   7.4928135   1.5342900  12.5282168
   6.7863095   1.6434719  11.1940813   4.4276902  66.4864111  41.4852047
   5.2327633  66.9851542  41.6242743   4.1595882  66.7081594  40.5934763
   3.3094910  21.9215846  31.3745856   3.9109001  21.1806750  31.2998056
   2.9135942  21.9972849  30.5063868  11.4852548  35.7490182  22.6628113
  12.0644057  34.9993777  22.5254965  11.2508380  36.0354400  21.7800641
   1.5274358  49.8167610  59.6922493   2.0644006  50.5941105  59.5385456
   1.3726474  49.4561291  58.8191986   8.0573761  47.6791239  61.4409018
   7.2067505  47.2813702  61.2552643   8.0196589  48.5352278  61.0144138
  51.4825192  18.7723364   0.0002523  52.3955241  18.4896578  -0.0521902
  51.4749899  19.4300331   0.6956716   3.9325672  46.4739943  54.7737312
   3.7213275  45.5643272  54.9837685   4.7473550  46.4214611  54.2741346
  60.8024359  48.1523228  35.4335260  61.1420631  48.6673164  34.7016311
  60.4767895  48.8041162  36.0542893  73.8630629  14.4315541  12.0030880
  74.8168087  14.3507922  12.0119452  73.7030745  15.3703332  11.9065034
  20.2760887  38.7570643  12.2217727  20.2938724  39.0190840  13.1422412
  20.1010942  39.5684838  11.7451084  60.9256268  30.2354956   6.4986324
  61.5992308  30.8557868   6.2198377  61.2200737  29.3918633   6.1553919
  16.0046244   1.0150248  22.3825121  16.8151021   0.7080645  21.9761467
  15.3090358   0.6440879  21.8395615  21.2446380  36.5713501  24.9653220
  21.9057703  36.9355822  24.3767047  21.4278603  35.6319547  24.9793196
  12.0495284  12.2115374   6.3773566  12.0736039  12.4535263   5.4515630
  12.3827839  12.9831660   6.8353528  10.4669070  59.4921112  46.2079239
  10.4577386  59.7016144  45.2739811   9.7997355  60.0635576  46.5881395
  60.1223898  13.5195374  45.3723860  60.2371264  12.6601350  45.7779694
  60.9495926  13.9731407  45.5342674  56.9980621   3.6453128  23.9560771
  56.4644527   2.8709677  24.1346407  56.4725542   4.3777442  24.2779708
  53.5533428  71.3710737  38.9794970  54.1716862  71.6899157  39.6369290
  54.0103912  71.4840841  38.1460905  58.9871216  72.5590706  14.5567381
  59.6763372  73.1427956  14.2397547  59.0927982  71.7606449  14.0394580
  44.1823721   5.3596902  62.0373440  44.9715424   4.9803177  62.4240160
  43.4676695   5.0363988  62.5858974  63.1306887  27.3973560  30.4062247
  63.8749361  26.9114900  30.7615590  63.4929609  28.2512236  30.1697850
   1.0296439  38.1745005   2.7377415   0.6602508  38.0500007   1.8635105
   0.3638275  37.8264904   3.3308759  45.6769371  25.4239869  12.0009208
  44.8399067  25.7394314  11.6601825  45.4368258  24.7897673  12.6764536
  10.0015879   4.2756176   4.5522669  10.9027922   4.0697244   4.3039301
   9.4924790   3.5226145   4.2522234  30.7428455  19.1259456  30.8897710
  31.3553429  19.0975642  31.6248035  30.0206041  19.6717250  31.2007761
  44.1428852  70.7531595  29.2913604  44.3426800  69.9821138  28.7605047
  44.6977425  70.6610250  30.0658774  74.5385456  12.6555586   0.0339105
  73.8258982  12.3501945   0.5952646  74.6001577  13.5936415   0.2140151
  58.7966299  60.5875254  64.5255995  59.7095919  60.3007507  64.5477295
  58.6563969  60.8708239  63.6220980  65.7753229  13.8769639  13.8322580
  65.9031105  13.5496497  12.9418838  64.8496485  14.1179168  13.8683140
  54.5587015   0.2795533  27.0202494  53.7391090  -0.1635218  27.2397685
  55.0492859   0.2966447  27.8419948  28.8200188  25.2851462  17.0113158
  28.3852220  25.2715635  17.8639579  29.7539711  25.3130078  17.2191370
  47.5322628  10.4407930  50.6659269  46.6497135  10.7951975  50.7742834
  47.6599026   9.8782206  51.4297676   6.8953174  57.6599598  62.2408581
   6.3940489  58.3117437  61.7508125   6.3082081  57.3866367  62.9457140
  31.1295643  27.4477781   1.5392061  30.3586951  26.8846525   1.6090628
  30.7845726  28.2906021   1.2444874  23.2690001  71.5465784  33.5680985
  23.7917662  72.2685480  33.2192326  22.3806524  71.8987942  33.6230016
  43.7232494  36.0501146  61.9462299  43.8844347  36.1030340  61.0041857
  43.7435198  35.1130390  62.1404266  51.2268734  15.7131755  35.8765030
  51.4401674  15.0683856  35.2019787  51.2322712  16.5522897  35.4159689
  56.1118269  60.3712034   6.3907480  55.8919096  59.7525072   5.6942713
  55.8912277  61.2289429   6.0276264  14.5109868  36.6919875  51.6004419
  13.9849865  37.3200989  51.1054325  14.9954879  36.2065244  50.9327459
  -0.1510425  71.8433857  22.0287132   0.0734905  71.0136557  21.6075635
   0.3135113  71.8207645  22.8653193   0.5604725  45.5278826  63.4407330
   0.7267189  45.4634428  62.5002861  -0.3516874  45.2559233  63.5418987
   4.4253418  11.0770071  28.1615615   3.8790345  10.8542681  28.9153290
   5.1007843  10.3989327  28.1465745  39.9343419  68.9696836  33.4398723
  39.7567916  68.5677242  34.2902470  39.9330401  69.9107552  33.6148310
  50.4401302  59.4415379   0.8201304  50.9446335  59.7526550   0.0685214
  50.2118778  58.5388136   0.5982758  12.7210426   9.8948658   7.3171240
  11.9171739   9.6323669   7.7655888  12.4947548  10.7164383   6.8811834
  72.5071335  68.6372042  62.7504492  72.6699686  69.5442104  62.4914837
  72.7419567  68.1219339  61.9787073   1.7857312  23.3536077  11.6144490
   2.0367721  22.8629375  12.3970425   2.3705125  24.1113877  11.6090262
  20.0879169  28.6827278  22.2882128  19.8745275  29.3247485  21.6110826
  21.0433316  28.6264944  22.2723866  14.3248761  14.1601896   7.1727878
  13.8962853  14.9366844   7.5327861  14.4135618  13.5677576   7.9193735
  66.9460392  55.0140524  17.8909421  66.2967348  54.6866560  18.5133910
  67.7874327  54.8671246  18.3230340  48.6691093  45.0793314   4.6632183
  49.6230984  45.0113821   4.7022018  48.3587980  44.1879034   4.8222554
  52.9814720   5.2295703  44.9936867  53.5396099   5.0217563  45.7430410
  52.4647522   4.4362670  44.8526049  72.4673223  63.8010693  44.4956064
  72.3438263  62.9916954  43.9997292  72.2201967  63.5729790  45.3917837
  19.3301165  14.9195528  26.8768835  19.7193456  15.7873726  26.9846773
  20.0217843  14.3952942  26.4731741  38.1634212  52.4465227  15.8092368
  37.8935552  52.5298119  16.7238224  38.9833260  51.9538927  15.8453572
   4.8600987  73.6820793  17.6104474   5.3813851  72.9603338  17.2589135
   4.8436299  74.3306303  16.9066417  14.2422962  14.8681605  28.5182381
  14.7711265  15.2438700  27.8143811  14.6428692  14.0159500  28.6900234
   5.7389480  66.1315489  24.9249601   6.4215863  66.0416508  25.5899096
   5.7002950  65.2728653  24.5037746  32.9866719  69.1322660  44.6314907
  33.4767246  69.5473623  43.9217138  32.8790426  68.2240486  44.3490314
  14.2355466  18.5500836  27.4559689  14.8557246  17.8419971  27.2821140
  13.7821805  18.6812437  26.6232085  77.8605081  56.6073227  27.1939707
  77.7141027  57.3833227  27.7349138  78.5093645  56.0967255  27.6782322
  69.9261379   8.2999814  60.3372669  70.7086945   7.9264885  59.9318743
  69.3243694   8.4453607  59.6072197  23.1268072  52.6200914   2.1255341
  23.9935064  52.6876497   1.7249092  22.5443649  52.3955250   1.3998877
  21.6233706  40.6237125   5.6700838  21.2148690  41.3448763   6.1489135
  22.3297453  41.0360670   5.1728630  44.2318201  29.8648190   1.7167807
  44.5269060  30.7068944   1.3702734  44.6546030  29.7966719   2.5728428
  26.3869166  36.7399001  57.7441692  27.2248697  36.2909770  57.6322126
  26.6037226  37.6702809  57.6840067  75.9465408  12.1097589  10.7027555
  76.0911179  11.9474578  11.6349506  75.2434635  11.5069175  10.4609025
  51.1959410  68.2805014  53.6080408  51.8158531  67.6903963  54.0366602
  50.4776669  68.3694506  54.2344618  33.2020855  27.7751660  13.9452553
  33.9426112  28.1139922  14.4482982  32.9076719  27.0095491  14.4385958
  47.3683691  32.9547930  56.2366676  46.8246126  32.1799660  56.3788128
  47.5108767  33.3115125  57.1134090  27.6539636  30.2768683  62.0506430
  26.9608665  30.9367776  62.0698833  28.1413460  30.4176879  62.8623438
  73.9626932   4.8926872   3.2109395  73.6935568   3.9831388   3.0824146
  74.5746994   5.0647712   2.4953486  18.8434243  59.0862322  26.9489908
  18.4836876  58.9222622  27.8207326  18.5809934  58.3231306  26.4341712
  59.3643951  43.3089733  39.8995733  58.6716461  42.9061651  40.4230928
  58.9081621  43.6832333  39.1459060  55.8907938  46.5978289  17.4372685
  56.2311745  46.0315657  18.1298888  56.3371372  47.4340343  17.5705659
   6.4450854  56.6426229  25.2675796   6.9501179  56.8948364  24.4945574
   6.3692546  57.4490023  25.7777119  66.3286495  61.4597368   3.3517176
  65.5941772  61.8758726   3.8029563  66.7880774  62.1827745   2.9246625
  41.4438868  62.7042294   1.5896806  40.9178162  62.0205116   2.0044193
  41.8159580  63.1969547   2.3211300  56.3904953  25.5690694  63.5012341
  57.1437311  25.0743961  63.8239813  55.6437016  25.2060938  63.9774513
  56.3311577  62.8014374  37.5058365  56.6675234  62.0957899  36.9534326
  56.9206047  63.5371494  37.3399758  72.6040649  10.1839316  45.0107861
  73.5180235  10.0083613  45.2345800  72.2073507  10.4723465  45.8327770
   1.5516824  16.6521704  43.4989595   1.4289190  15.9993553  44.1881561
   2.1618111  17.2862816  43.8756275  10.0238419  12.2357905  53.5504818
  10.5445361  12.9987097  53.8016081   9.2899096  12.2339344  54.1649532
  32.1759367  49.5000839   1.6097510  33.0641460  49.7302485   1.8824047
  31.6121650  49.8842478   2.2811747  54.9108601  45.5675125  11.8731213
  54.8717117  45.0122547  11.0944104  54.4925547  46.3857079  11.6051507
  70.2573681   7.6396537   6.0340881  70.9461880   7.6938659   6.6965234
  69.4527340   7.8513372   6.5073586  11.6060162  55.9831381   2.8932631
  11.6875744  55.4898930   3.7095276  12.4202299  55.8041573   2.4228883
   2.6414937  17.4810362  22.3820019   3.5165808  17.7351725  22.0889688
   2.6041713  16.5361679  22.2334695  76.3278770   5.8926606   5.8461815
  75.4480743   6.2692839   5.8279920  76.3874483   5.3840375   5.0374877
  24.0272284  29.7939301  10.0076282  24.1581082  29.1009998  10.6548917
  23.6328745  30.5123138  10.5022371  16.5820777  60.3255606  45.2739477
  17.3502421  59.7548246  45.2942276  16.8548274  61.0755682  44.7454262
  37.2481036  63.3543968   7.7397561  38.1687880  63.6088991   7.8014094
  36.8083096  63.8833284   8.4053737   4.2137450  22.1145368  36.8806005
   4.4038358  23.0526137  36.8909407   5.0707400  21.6956091  36.9599104
  47.0963669  69.0917778  38.3908653  47.4347830  68.8459969  37.5298810
  46.1511183  68.9565229  38.3242154  15.9992969  67.6607656  12.0798373
  15.6323409  66.9289923  11.5837693  16.2799227  68.2862139  11.4117813
  43.2466221  69.1283846   7.4453193  43.7183094  69.7893429   7.9521507
  42.5574303  69.6177816   6.9961643  20.0802588  38.2708240   5.8829087
  20.6185913  37.7534175   6.4818412  20.4437351  39.1546750   5.9369665
   3.9861435  17.6768422  36.0668635   3.7919134  18.5445762  35.7125401
   4.2585930  17.8421760  36.9694543  58.6788559  32.7882290  53.5641527
  59.0943241  32.9988694  54.4003677  58.4488106  33.6387300  53.1900454
  76.1880636  50.5502939   0.3828005  75.2907228  50.2890205   0.1760513
  76.5909958  49.7597647   0.7418784   5.5659324  72.5292158  55.8591413
   5.2824956  72.3783207  56.7608738   5.0814140  71.8836927  55.3445768
  22.6503396  16.6963685  60.3773308  21.9633007  16.1031151  60.6810713
  22.9677272  17.1228099  61.1733484  29.6219182  50.5699730  14.1514361
  28.8019323  50.0762224  14.1432595  30.1950407  50.0728321  14.7350574
  32.0470595  14.8257828  35.8301544  31.1300802  15.0863206  35.7435584
  32.5422382  15.6102896  35.5944037  76.6906643  59.6204519  59.9974394
  76.0026503  59.5175314  59.3399668  76.9874048  58.7279654  60.1753283
  23.9061975  47.6364565  58.0874634  23.2365918  47.5670719  57.4069881
  23.4242225  47.5384998  58.9086437  75.9281254  21.6817522  47.2652292
  75.4691505  20.8895159  46.9860601  76.3797379  21.4260769  48.0695343
  29.2017371   0.6035336  63.6518440  28.4093482   0.2354868  63.2608334
  28.9275271   1.4550574  63.9923549  17.0951080  11.7418444  36.1752605
  16.7902291  11.2376904  35.4208660  16.2945890  12.0792961  36.5771651
  20.8425593  33.2795215  53.7877703  21.2301183  33.2487369  54.6624565
  19.9619269  33.6274123  53.9280987  15.1987791   1.3837154  39.9134350
  15.4523981   2.2360262  40.2676582  14.9556720   1.5644398  39.0054321
  75.8200312  54.3243837  60.2902460  76.5871954  53.8083839  60.0424004
  75.8874321  54.4122124  61.2410259  -0.1285482  13.4594023  59.4890881
   0.1276380  14.3671536  59.6521521   0.0523110  13.0077267  60.3134108
  57.9843664  50.4327393   9.2663074  58.5371733  50.9781933   8.7067407
  58.3490324  49.5521545   9.1779006  30.7015228  65.6073284  20.2848172
  30.2515817  66.3219976  20.7354045  30.3411198  64.8121643  20.6773233
  23.3322597  43.5452986  10.9119499  22.6484084  44.0828180  11.3115191
  24.1514730  43.9236021  11.2313330  65.9360361  62.8960085  50.1848221
  65.2303028  62.3535728  49.8327732  66.5798712  62.9398203  49.4778681
  13.1475711  67.4101782   7.8275740  13.4281516  68.1698751   8.3378375
  12.1973407  67.3839378   7.9398489  32.8790951  29.8845792   6.2795234
  33.2834339  30.1134253   7.1164054  33.6175108  29.6959090   5.7004052
  21.1038303  70.7251167   2.7837375  21.4994121  70.3192520   3.5551140
  21.0353661  71.6527367   3.0097112   9.3927115   5.1093942  53.4274673
   8.9124197   4.6297508  52.7525616  10.0863433   5.5645686  52.9500532
  68.4408045  19.5547414  42.3753023  68.7203836  19.4972658  41.4616442
  68.7934208  18.7641907  42.7838612  40.3133059  73.4998655   6.3368863
  39.4026399  73.7345886   6.1584866  40.5916739  73.0133963   5.5609405
  19.0443075  31.9470501  52.2670698  18.1163144  32.1778655  52.3093271
  19.5034063  32.7635217  52.4641371   7.3490340  36.2197351  43.2586193
   7.0824790  36.6231275  42.4325132   7.6193070  35.3340006  43.0164242
  35.6608319  66.6367531  50.2772236  35.0730801  66.1138439  49.7319269
  35.2373910  66.6561556  51.1354494   8.3022946  63.5525990  47.4359798
   9.1061604  64.0602732  47.3250818   8.6035275  62.6770306  47.6786137
  12.5477529  13.7439990  41.1731434  11.6429603  14.0499008  41.2364340
  12.5159931  12.8374004  41.4785957  11.9500136   8.6017770  39.0547776
  11.1689734   9.1507232  38.9850163  12.6680863   9.1705167  38.7770391
  66.8177938  64.0362978  14.9341226  67.6005363  64.3771172  15.3670073
  66.2144232  64.7790146  14.9107718  76.7058849  26.3445067  62.8687906
  76.3401985  26.1015964  63.7193823  76.9220829  27.2727609  62.9572964
   9.9144626   7.2789109  18.5433316   9.0840662   6.8455070  18.3462667
  10.5474401   6.5641201  18.6114872  74.8570156  18.5791171  57.6996803
  74.3003416  18.8925755  58.4124851  75.7453871  18.6203730  58.0536938
   7.3395109  67.1078682  60.5153608   7.3677641  67.6272488  59.7118187
   6.5130240  66.6280270  60.4614592  57.1756554  57.1254539   0.9898248
  56.4793396  57.4907351   1.5356705  56.7557001  56.9580603   0.1461133
   7.6166046  17.0774436   2.2778539   7.1748120  16.2420940   2.1254002
   6.9778061  17.7384472   2.0109405  33.0942082  51.4867544  15.6840503
  32.5162911  50.8013010  16.0193074  33.9544630  51.2724543  16.0449767
  15.0877631  32.4479580  50.7101822  14.2739558  32.4539685  50.2062893
  14.9303687  31.8161631  51.4118195  58.7278461  52.1796894  55.5291510
  59.4998837  52.7414322  55.4610872  58.8386917  51.5345907  54.8307276
   0.0400357   9.0631115  29.3788099  -0.7163807   9.4106370  28.9062738
   0.7139353   8.9572018  28.7073398  62.7265644   6.0630625  19.9930394
  62.5554609   5.2621895  20.4885769  63.6771441   6.1691809  20.0301194
  44.9870539  66.9435787   6.0105884  44.9483204  66.0373402   5.7048792
  44.1712666  67.0677948   6.4956635  40.0887823  69.3034077   9.7211832
  40.5977058  68.6150455  10.1494181  39.3107772  69.4026279  10.2699077
  62.5406933  46.0593462  45.7944584  63.1379795  45.4465103  45.3656101
  62.2501898  46.6415787  45.0924301  69.3962860  44.8754835  64.2251968
  68.4518147  44.9929428  64.3272257  69.7307348  45.7568979  64.0594149
  34.2282081  52.9247189  62.0257139  33.9252234  52.0955706  61.6556597
  34.8208833  52.6691675  62.7325821  19.6532226  23.8069320  31.8373632
  19.8422015  24.0653229  30.9352827  20.1329327  22.9873347  31.9572401
  78.5297632  25.5379796  59.7526741  77.9073203  25.5719185  59.0262842
  79.2346389  24.9720621  59.4378424  18.4975004  35.0811577  49.7373438
  18.4351313  35.9869456  50.0404787  18.2588959  35.1215577  48.8112402
  63.2153606  56.7825794  25.1964664  62.8926706  55.9619093  25.5687642
  62.8359556  57.4632692  25.7522917  31.7266226  32.3639154  62.0966053
  32.6132822  32.6729774  62.2824717  31.2074995  32.6622987  62.8434038
  66.8174839  18.8150525   3.8188493  67.2517872  18.4442544   3.0506566
  66.1475706  18.1713462   4.0492579  25.1287484  50.7698584   6.5015811
  24.4245005  51.3036633   6.8694383  25.4608274  51.2851095   5.7664102
  37.5896168  63.0146551   1.7508785  37.1122766  63.6793900   2.2473693
  36.9060850  62.4625587   1.3711315  19.3517315  29.0549564  49.2639112
  19.6446013  28.6467576  50.0786734  18.5802710  28.5499859  49.0068388
  39.7385812   6.5203547  30.6695151  40.6463289   6.5999389  30.3764415
  39.6971655   5.6616044  31.0903049   5.9103197  20.8309293  46.7689037
   6.0155588  21.4015079  47.5302172   5.9058154  21.4280939  46.0208321
  20.3630733   5.2429926   6.7358422  20.2693367   5.2194995   5.7835329
  20.4684663   4.3258676   6.9888353   3.4558019   8.2575804  57.6378107
   3.1322110   7.7105111  56.9221020   2.7177507   8.3199936  58.2441235
  18.9975488  25.8669710  48.5909128  19.2407548  26.7340899  48.2665873
  18.3430028  25.5528450  47.9671097  56.9938612  13.7083101  20.7900310
  57.1721697  14.5968962  20.4820514  56.0465097  13.6873138  20.9253693
  16.9813418  63.4271765  36.9169378  17.7398491  64.0048218  37.0019484
  16.5355003  63.4914303  37.7615261  13.6612999   6.1853403  25.4515433
  14.4444478   6.1170322  25.9976602  13.2202196   5.3426284  25.5588579
  15.1593959  26.1170363   4.0841147  15.3107023  26.7444587   3.3772352
  16.0366321  25.8609104   4.3688765  77.1550989  11.9131565  22.3756266
  76.7562246  11.7298031  23.2262230  77.5176001  12.7944314  22.4660540
  41.1750126  66.9304895  34.6265221  41.6976833  67.7238274  34.5096397
  40.7145166  67.0668840  35.4545140  66.3582897  31.8165207  55.0834370
  66.2320614  31.6043305  56.0082483  65.7772207  31.2147665  54.6181583
  28.1215715  24.7858477  62.0602798  28.3513927  25.6518388  62.3971415
  28.9540172  24.4131970  61.7697716   4.7173098  43.3581018  11.4846325
   4.9518105  44.2108536  11.1184919   3.7627244  43.3249474  11.4221871
  29.9478483  49.5381355   3.4255943  30.1194310  48.5964727   3.4338480
  30.0176883  49.8023653   4.3429470   9.4954157  14.0736353  60.0628996
  10.1421666  13.8488603  60.7317924   9.7027767  13.4984958  59.3263865
  72.0486546  20.0862670  55.5513287  71.3905430  19.4651151  55.8632374
  72.0958042  19.9316525  54.6078777  69.8931265  22.1041322  36.3026404
  69.0078640  22.2101355  36.6509247  69.8872232  21.2392116  35.8926296
  50.7586670  40.8432102   0.4825941  50.5777550  41.5755510  -0.1066288
  50.5109549  41.1660528   1.3489927  63.0317354  64.2551470   5.0736982
  63.4650040  63.8525867   5.8263326  62.1603012  63.8593960   5.0590658
   3.5375604  25.4566383  11.3697255   3.2108071  26.3518023  11.4599860
   4.2280710  25.5191231  10.7097840  67.8979635   8.7624651  43.3419085
  67.2998142   8.8418519  44.0849733  68.7669039   8.7040049  43.7390900
  24.8686528  56.8160582   6.3108349  23.9914083  56.5167665   6.5497863
  25.4321265  56.0592842   6.4721555   2.5977808  58.6820412  59.8114824
   2.2534774  58.2514095  59.0290213   2.6674527  57.9810905  60.4595947
  73.2626057  15.1281607  53.1021261  73.7721777  15.4155636  53.8597345
  73.7211704  15.5015373  52.3494387  12.2301030  22.7137923  19.5786166
  11.3573110  22.6943851  19.1860735  12.6309335  23.5109401  19.2320275
  58.9185667  65.2622938   0.2001495  59.4072104  64.9703884   0.9697255
  58.2765245  65.8827209   0.5452432   0.9164291  21.8149209  58.6280489
   1.5280546  22.3720336  58.1466198   1.4534368  21.3939452  59.2993402
  65.1823950  70.3685665  47.9301834  64.2291355  70.4107141  48.0060053
  65.4945707  70.3618908  48.8350248  39.6758080   2.6860234  50.7039833
  39.0582347   2.2690688  50.1031637  40.5383444   2.4403541  50.3694630
  62.3371696  14.7417104   5.8859372  61.7356205  14.8635018   5.1514030
  62.4246645  15.6136739   6.2709767   2.2850180  59.7513390   6.7029327
   1.5463425  59.2513943   6.3555968   2.5083867  60.3656721   6.0036945
  18.5330033  30.5156326  56.7349195  17.6417553  30.4607844  57.0797396
  18.8198757  31.4025116  56.9525909  53.0603933  66.8675184   7.1510571
  52.4607849  67.3820353   6.6107130  53.3102846  67.4588203   7.8610903
  44.7080803  16.6275418  59.4067478  45.6075668  16.9548702  59.4029713
  44.6148157  16.1737657  58.5691214  16.9338214  27.6038909  50.1232529
  16.4010274  28.3773613  50.3079319  16.4917552  27.1783924  49.3885708
   6.9258201  63.5184097  61.3121700   6.8220484  62.8518820  61.9912910
   6.7369533  64.3447781  61.7567730  42.9271507  63.5908031   9.2468476
  42.5302362  63.5092545  10.1140487  42.9640818  62.6937246   8.9150190
  11.0801625  32.0201731  44.6651649  11.4876151  32.0846272  45.5289125
  11.5627873  32.6462007  44.1253567  65.1489353  10.1031339   5.5548608
  64.3763781  10.6681275   5.5419797  65.6522512  10.3680301   4.7849682
  15.4837048  44.4836998  49.5820093  15.5631852  44.0687752  48.7230873
  16.3847458  44.6837378  49.8356724  16.4529109  41.0664272  16.6669977
  17.4024045  40.9452438  16.6641796  16.3206530  41.9120359  17.0955765
   6.3461924  46.5321445  52.5036240   5.5700874  46.9036341  52.0842314
   7.0353532  46.6099930  51.8439054  45.3207541  31.9485831  63.4838533
  45.7164288  31.2945318  62.9077530  46.0618162  32.3403549  63.9459991
  54.1355133  47.4173212  59.8122406  54.3763638  46.6199970  59.3405437
  53.5514975  47.8827000  59.2134285  33.3241925  50.6833910  64.0959070
  33.2458440  49.9930118  63.4375226  32.4463460  51.0607027  64.1529425
  12.3711646  13.8600886  13.4383976  13.0626619  14.2639947  12.9140663
  11.8002081  13.4372687  12.7969444  36.5542459   0.0967677  37.2672558
  35.7409954   0.6010469  37.2435856  36.6163659  -0.2153079  38.1700182
  60.3936720  65.9789419  17.4264467  60.6367016  66.0199785  18.3513713
  60.7857513  65.1644230  17.1116972  46.0262775  61.9462824  12.9906952
  46.2347126  62.7182817  13.5168159  46.3912249  62.1393156  12.1271086
  27.4557161  29.7728896  58.8332367  26.8964720  29.3612695  59.4920588
  28.1854606  30.1386046  59.3331957  11.7644131  32.1531343  28.4453630
  11.7720151  31.8392229  29.3495941  11.2452185  31.5039301  27.9708099
   2.4200556  64.5460415   7.7431053   2.4271140  64.5209026   6.7862618
   1.5093467  64.3715429   7.9805732  23.4531713  37.7880764   6.3760334
  23.4002471  38.3741236   5.6210649  24.3891191  37.7279067   6.5673852
   9.0348482  54.0726662  54.5157576   8.9030868  53.2365179  54.9626684
   8.1799453  54.5015812  54.5532036  63.8986254  70.2734232  30.5506802
  64.8127222  70.1137495  30.7855535  63.7654734  69.7676897  29.7489715
  75.9870100  18.3202672  34.3465495  75.2555799  18.9279783  34.2373180
  75.5856085  17.4523199  34.3043804  71.0043955  61.0460806  61.1374617
  71.5932131  60.3435898  60.8617163  71.2002945  61.1722136  62.0658684
  65.7559109  48.5987997  14.3480062  66.1048794  49.4698191  14.1588473
  66.5125322  48.0990410  14.6545982  69.3234730  26.1770964  19.1985893
  68.8905001  26.0738039  18.3511829  70.2556801  26.0787487  19.0048206
   2.8687719  66.7072105  49.6552658   2.7323768  67.1008348  50.5170584
   2.0144208  66.7651987  49.2275333  17.5387096  47.7654600  56.0040474
  17.2738445  48.3684158  55.3094053  18.2378161  47.2416115  55.6128120
  33.8371468   4.1620883  26.6916442  33.5590172   3.2595724  26.5356302
  34.6559882   4.2481580  26.2034607   9.8291993  54.0346003  51.7474365
   9.7872502  54.0749359  52.7028656  10.7638979  54.0816069  51.5465307
  70.0356531  10.9730446  16.7504227  70.1978064  11.4005601  17.5913560
  69.9862337  11.6928446  16.1213923  31.6024137  69.5319462  37.3513341
  32.5385928  69.3747139  37.2285438  31.1757851  68.8087511  36.8917561
   8.7336189  66.1365986  57.8191757   9.6213794  66.2426090  57.4773073
   8.4367722  67.0293093  57.9957628  55.3487349  72.3255062   3.5704294
  54.7504568  73.0010653   3.8896763  56.2175083  72.7204037   3.6447579
  19.5844734  55.7535410  56.7350483  18.9074004  55.8252716  57.4078465
  19.4035697  54.9197388  56.3011360   9.8982215  38.2372761  51.7510509
   9.2423570  38.8310671  51.3856936  10.6721532  38.3690643  51.2034273
   5.7379186  69.0364122  17.9939997   6.4487761  69.6376657  18.2162881
   5.8806038  68.2773638  18.5594332  15.3998923  46.3134146  53.9078140
  16.2169111  46.6249561  53.5183859  15.6279147  45.4710054  54.3009901
  52.4215984  54.7313452  18.3198881  53.0181360  55.2934265  18.8142955
  52.1737814  55.2560616  17.5586462   3.3820650  66.6385174  35.6520391
   2.9676118  67.4563646  35.3771043   4.3062645  66.7519665  35.4301929
  19.5825064  69.7144699  59.6579218  18.9609468  69.9524879  58.9699936
  19.1077399  69.8708105  60.4742432  28.2949471  61.3505554   2.2024681
  28.7837529  62.1735287   2.2062510  28.2301784  61.1062050   3.1256849
  51.5999222  69.1341686   5.7964146  51.8415833  69.9679136   5.3930557
  51.5804052  68.5127497   5.0686187   2.0002005  61.0508966  58.0659103
   2.4247558  60.5572176  58.7675285   2.6101404  60.9944725  57.3303699
  18.1325507  44.2434311  16.4707041  18.4675431  43.3716965  16.6807020
  18.3606946  44.3723154  15.5500686   1.3408384   0.5522744   8.9353675
   1.3669062  -0.2410455   8.4003949   2.2535056   0.8360896   8.9875120
  44.2976570  65.0879669  19.2645288  44.6983480  65.9551001  19.3258023
  43.4153938  65.2546978  18.9327955  51.9596815   2.7193704  53.7426329
  51.4800978   2.1427648  54.3374109  51.6324854   2.4914958  52.8724337
  32.2654605  22.4071598  17.2927487  31.6932917  22.9280758  17.8562224
  33.0887365  22.3471284  17.7773571  53.8296175  13.7821305  24.9075508
  53.4916735  13.1050074  24.3214393  54.6023512  13.3862376  25.3105211
  56.9113016  10.2167940  23.8852334  57.6718330  10.2049232  24.4663453
  57.2298384  10.6290853  23.0822515  67.5284910  50.4689598  40.8401299
  66.8161106  50.2345085  40.2453375  68.1548262  49.7496891  40.7589293
  17.0756960  47.6092482  61.0926151  17.0890832  47.1885729  60.2329111
  16.1912394  47.9668760  61.1705208  62.9099131  20.9203005  25.7653141
  62.8865242  21.6400647  26.3958883  62.1721363  21.0907865  25.1797748
  75.3893471  61.1676836   1.7359494  74.7159243  61.5064001   1.1460321
  75.4750395  60.2447939   1.4968532  15.1635265  26.3651276  48.2385635
  14.7635281  26.2986875  47.3714876  15.7422328  25.6047153  48.2942724
  30.3260517  17.9742193  16.4038503  31.2479234  17.7727509  16.5644574
  30.3125525  18.9164627  16.2358403  27.2097015  36.0471201  20.9669375
  27.7574039  35.9919620  20.1838613  26.9219732  35.1474237  21.1218333
  46.7449617  38.2236814  59.8959064  47.4898291  38.6734390  59.4970036
  46.3461447  37.7355480  59.1755581  32.2791219  41.9773722  57.0599079
  31.5414929  42.1273804  56.4686108  32.3447323  42.7843475  57.5705147
  68.6480713  54.2494583   6.4803278  68.9085770  55.0656843   6.0535455
  69.4425106  53.7155104   6.4812481  12.7826190  39.6309519  61.2283373
  11.9191623  39.4777799  60.8446550  12.9562688  40.5579853  61.0649872
  69.5911551  32.0034719  42.9860973  70.3134918  32.6315284  42.9832411
  69.0845299  32.2246695  43.7675238  75.1803780  40.5473518  30.6787157
  74.3395042  40.9151697  30.9505153  75.5534840  41.2081432  30.0952935
  63.6535454  67.2267103  48.6483240  64.3104458  67.0215464  49.3136215
  64.1630220  67.4879742  47.8812456   2.5637227  15.8280420  60.6564903
   3.0797508  16.5525150  60.3028202   2.5569502  15.1748514  59.9568272
  33.7492800  41.4218140  60.9552288  33.0603266  41.8326807  60.4329634
  33.7244725  40.4992771  60.7011700  63.8389254  16.4632952  33.6844373
  63.5025263  17.1085489  34.3063021  63.4857416  16.7390490  32.8385901
  15.1437819  38.7683487  59.7521544  14.8889029  38.1005812  59.1154766
  14.3145525  39.0977693  60.0987005  42.7062130  25.7824039  59.5900393
  43.2579041  25.8752251  58.8133478  43.2762623  25.3735304  60.2412653
  30.1074815  54.6322489  60.8536959  29.4071770  55.0878191  60.3865099
  30.3422928  53.9023447  60.2806902  77.4738329  23.5917521  53.8226700
  77.9194919  23.0092955  54.4377851  76.7079570  23.0951023  53.5345650
   5.7878166  58.1154156  46.6989613   5.6995952  57.5689125  47.4798536
   6.0291886  57.5029945  46.0040426  68.0535316  28.8162374   1.4124781
  68.9468336  28.8136148   1.7563272  68.1514788  29.0641975   0.4931556
  58.4108782  16.5578032   5.3820610  58.3040428  15.6298327   5.5910778
  58.1445885  17.0151663   6.1796451  54.2515707  19.3790090  23.2924175
  53.4924507  19.9108255  23.0533743  54.6354294  19.1193783  22.4548769
  52.2742033  60.8815384  24.3392968  52.9910469  61.2162638  23.8004732
  52.0814657  61.5927887  24.9502039  27.4784422  25.5322385  59.6023083
  27.7269459  25.2606130  60.4858780  28.1823182  25.2026939  59.0435648
   4.2856577   6.8203300   1.6472860   4.3114862   6.5353978   0.7338428
   4.6973577   6.1055350   2.1328804  12.0105410  13.9260006  51.3924217
  12.8816056  13.5458636  51.2785244  11.9285727  14.0582895  52.3368883
  66.1246109   2.1838179   5.1766384  66.0702562   1.9810329   4.2427459
  65.4703236   1.6158651   5.5835366  26.1801917  73.7748723  30.1586843
  25.8032519  73.7444637  29.2793560  26.5761620  72.9118308  30.2795100
  22.6924337  45.1043694  63.4107916  22.0032371  44.8552124  62.7950297
  23.2782473  45.6639783  62.9009985   2.0181490  71.6630125  23.8420844
   2.1418850  72.1109200  23.0052471   2.1832991  72.3371220  24.5012760
  24.4269037  58.5573912  49.7200489  24.9065042  57.7998257  50.0551796
  23.9540648  58.8968325  50.4799414  19.3022585  59.0440702  23.1754208
  19.9551451  58.3490944  23.2589626  19.8018599  59.8548603  23.2716107
  69.2618132  45.5165100  40.2794886  69.7700596  45.2666855  39.5077968
  68.3493185  45.4285288  40.0040770  66.1535406   4.7311509   7.2902864
  65.8940506   3.8110876   7.2414911  65.6802511   5.0735998   8.0485457
  54.8894930   8.7677383  34.0113521  55.2902985   9.6174490  34.1945982
  55.2632236   8.1800336  34.6679783  15.8059442  58.2969522   4.1254157
  15.3037536  58.4622908   3.3274812  16.4214444  59.0282154   4.1768849
  74.2700148  17.2637129  15.8131242  74.8377419  16.5019333  15.6964791
  74.3976450  17.5199282  16.7265213  47.9430914  10.2251959  21.6715646
  47.5697470  10.3397644  20.7976532  48.1797886   9.2985755  21.7113042
  32.8728867  43.6821985  54.4155741  33.4840012  44.2867994  54.8365593
  32.4301744  44.2120790  53.7526560  21.1676621  42.9863596  62.4365044
  20.8894205  42.1302366  62.7618837  21.6323781  42.7936220  61.6221809
  66.0415888  39.3440008  43.9157343  65.9969234  39.0890098  44.8372650
  66.1126804  40.2983713  43.9344788  47.9716492  10.8396423   2.8213423
  47.9751587   9.9346817   3.1332156  48.8643599  11.1492276   2.9745111
  29.1166782  42.0953846  58.2780552  28.2488728  42.2204542  57.8939962
  29.7244453  42.3657274  57.5897503  17.3900092  34.6820545  60.4039431
  18.0350816  34.4508457  61.0722637  16.5465188  34.6128988  60.8511257
  58.7235498  60.3936720  17.9750526  58.2933092  59.5427179  18.0587220
  59.5997238  60.1880455  17.6490569  63.7200642  23.9698076  57.6907253
  63.1140804  23.5605192  58.3083820  64.2879057  24.5134115  58.2368755
  70.8266395   1.1693355  15.1613748  70.4070609   0.3419086  14.9256909
  70.1763909   1.8376991  14.9452698  37.2062182  65.8153868  56.1894560
  37.5462389  66.1613798  57.0146275  36.8123436  66.5727091  55.7563734
  55.0830397  55.1306342  64.0116393  55.7946167  54.7155069  63.5242402
  55.1280031  54.7369443  64.8829708  48.8287735  49.6253300   8.6391187
  48.2467318  48.9570045   9.0007806  48.9077997  49.3981743   7.7126271
  10.3164864  43.2740688  60.9814835  10.5690980  43.8966036  61.6632938
  10.8425570  43.5241985  60.2219343  73.9480379  73.3205632  14.0148807
  73.9755609  73.1034432  13.0830359  73.1362798  72.9227924  14.3296158
  34.6760297  66.2989569  62.4164581  35.1131535  67.0584917  62.0314121
  34.4596577  66.5733957  63.3075809  29.1305470  14.3427742  41.0012293
  28.3132839  13.9464140  40.6992102  29.0139604  15.2800405  40.8457613
   9.5333827  56.5579939  47.2573853   8.8853973  57.2488594  47.1193504
   9.0516388  55.8643150  47.7079058  18.5105217  43.7692690  61.6048574
  19.3527055  43.5747576  62.0161057  17.9758084  44.1290569  62.3125792
  14.7049046  49.7338533   0.2776471  14.0559947  50.1349926   0.8557762
  15.5365443  49.8429537   0.7388450   2.7627209  49.0193367   1.4651591
   2.4528438  48.5095072   0.7166398   3.6169982  49.3526983   1.1907271
  43.4093666  18.7022281  46.0209608  43.9568090  18.7621760  46.8038654
  44.0282869  18.7453628  45.2920485  39.2870545  30.1824284  62.0556450
  39.4944310  30.1393962  62.9891205  40.1247120  30.0333452  61.6170835
   4.0298563   6.0890681  22.7410579   4.6457195   6.8163234  22.8307438
   3.2751396   6.4684653  22.2908449  21.6872692  27.7315021  62.5441265
  22.1535993  27.5974321  61.7190266  21.4407229  28.6563301  62.5323677
  58.9593410  49.3524218  37.5334001  58.8733387  48.8043642  38.3134437
  58.0594683  49.4925737  37.2387505   4.9775144  -0.0812175   3.9653802
   5.0464517   0.3725566   4.8053613   4.4246855   0.4881785   3.4302166
  43.4847975  64.9981642  35.0954080  42.6801682  65.4737854  34.8890352
  44.0468884  65.6492710  35.5153465  38.0714154  23.7694025  52.9956722
  37.7467203  23.8308406  53.8940191  38.2979584  24.6692634  52.7608061
  71.3466501  54.4993305   4.4901314  71.8553400  54.7486162   3.7185588
  71.4645624  55.2274084   5.1002389  53.2961750  10.8060408  44.1092587
  52.9464817   9.9179536  44.0368271  53.1196976  11.0597944  45.0151825
  40.0880337  69.5477533  62.4974871  40.2205086  70.1331377  63.2431412
  40.7240295  68.8445950  62.6290512  67.7009869   8.0067360  50.9928322
  67.9538441   8.0080134  50.0696325  67.6448441   8.9331335  51.2270689
  40.0852156  68.9555502  19.7659433  40.0336838  68.0499315  19.4602787
  39.1816115  69.2700005  19.7366738  22.2906995  73.5956812  45.8759165
  22.4873877  74.4712067  46.2090778  21.3822627  73.6507511  45.5793667
  76.2507534  15.4633164  15.0498652  76.8753576  14.8730099  15.4713440
  76.1857748  15.1410663  14.1508842  50.6300497  45.9724283   7.8798312
  50.2951384  46.2763786   7.0362198  50.3982258  45.0441885   7.9091841
  74.4199467  61.9409609   8.9092636  75.3285837  62.1223402   9.1495043
  74.0299892  61.5774918   9.7042811  69.4118023  15.2267444  21.4970446
  69.5818138  15.8793151  20.8177233  70.0065613  15.4618609  22.2092366
  40.2423477  34.0588713  56.2018967  40.6740952  33.9350605  55.3566170
  40.0127029  34.9879432  56.2197399  10.4366064  13.9290082   2.1934462
  11.2215960  13.8088453   1.6590461  10.7493556  14.3719494   2.9822573
  58.4234047  13.4323382  32.9679346  58.9733601  13.9218676  33.5796046
  57.5273085  13.6356699  33.2360792  52.1600151  73.8736773  11.1300600
  52.8626776  74.0888453  10.5167103  52.4326515  74.2728710  11.9562232
  37.3625660  22.8862190  34.3337107  36.7410779  23.2624197  33.7104464
  37.5434041  23.5961676  34.9497485  76.9298410  52.9795170  21.3289618
  77.5756073  53.5922575  21.6807652  76.1059046  53.2358170  21.7433000
  12.5957394  64.4938183   0.6681769  13.1239653  65.2103996   1.0199111
  11.9735646  64.9213743   0.0796836  18.3047020  43.6270618   0.6587461
  17.7214563  43.4089279   1.3857090  19.1118503  43.1483221   0.8473077
  33.6605167  36.1017919   1.9235265  34.1621852  36.7561793   2.4096732
  33.0390668  35.7530856   2.5626153  51.8864155  13.9143550  33.7052131
  51.2166214  13.7460899  33.0424166  52.5029325  14.5084834  33.2772541
  28.3716893  60.3411579  49.9343967  28.7668490  59.7033644  50.5287838
  29.1145396  60.7326174  49.4748688   8.5146207  38.8076925   5.8394873
   8.8933969  39.4171429   6.4729941   8.0422074  39.3665314   5.2224344
   6.2888300   3.6782229  43.8906908   6.0925478   3.4864682  44.8077154
   5.4926419   4.0914416  43.5566759  44.2223740   6.5308934   4.4736615
  44.3058395   6.6012746   3.5227084  44.7958612   5.8022368   4.7111523
   9.1701996  12.9372048   6.2594968   8.9706337  12.9928458   5.3249872
  10.1226163  13.0204856   6.3063926  62.0902920  -0.0984807   6.5831286
  61.9969749   0.8187766   6.8403506  62.8058815  -0.0973466   5.9473938
  14.7185457  64.5115471  29.6845341  15.2770078  64.4950771  28.9073086
  15.3064537  64.2898273  30.4066396  14.1067386  36.8043756  45.6677341
  13.8079393  37.0803976  44.8012686  15.0486696  36.6690326  45.5643892
  11.8014717  38.2881737  54.8158264  11.4453864  38.2369375  53.9288044
  11.1845326  38.8458705  55.2897358  13.0818188  30.8814001  41.8336868
  13.2113326  31.6210628  42.4272871  13.8168967  30.9330153  41.2227631
  17.1695399   2.9338929  17.5391495  17.4166799   3.6271635  16.9271612
  16.9721293   3.3938277  18.3550668  76.0943556  54.1086912  30.6991816
  76.8411732  54.1506863  31.2964535  76.0986567  54.9542141  30.2505088
  60.7116652  15.1255906   3.8933674  59.7872353  14.8835170   3.9487115
  61.1236858  14.3941140   3.4335721  43.4950829  41.0945034  53.4909916
  44.0563536  41.6137552  54.0668249  42.6919794  41.6092300  53.4114933
  61.2210274  26.2662745  10.5122614  60.9527683  25.8343315  11.3232446
  60.7591867  25.7892919   9.8227507  57.5257206  62.8165960  25.3286219
  57.7012062  62.3184681  26.1269331  57.0529222  62.2052240  24.7638893
  12.0016193   0.9273819  25.5738664  12.1298981  -0.0139343  25.4568195
  12.3096836   1.1023480  26.4630890  76.6676521  52.7723885  47.9294252
  76.7956495  51.9216061  48.3489752  76.5087700  52.5639629  47.0088005
  76.1350441  14.5200551  29.3634319  76.3405323  15.3820896  29.7252369
  76.8887663  13.9773035  29.5948505  38.6001635  46.6168976  11.1209691
  37.9796386  47.3444271  11.1643183  39.2900038  46.8532038  11.7410612
  28.0939770  48.6032820  54.1391659  28.1650949  49.5006704  54.4645405
  27.4112940  48.6447191  53.4695005  65.5970192  43.8580513  17.0189381
  65.1848364  42.9954290  16.9718719  65.0563049  44.3484020  17.6381457
  32.9378390  25.1912022   3.7000787  33.7354898  24.8080873   4.0650561
  33.1928611  26.0779572   3.4454018  23.2066822  18.0429924  15.8637595
  23.3016968  17.1979976  16.3032937  22.3048639  18.0460095  15.5429065
   9.3798411  51.5371323  28.8015914  10.0843835  52.1691322  28.6586666
   8.8525617  51.9206619  29.5023847   5.9045339  50.6220961  51.7795372
   6.4291692  50.7965803  52.5609112   5.4504263  51.4468431  51.6068602
  41.6098928  46.4488506  56.2416315  40.7440662  46.1609221  55.9523773
  41.9748783  45.6901121  56.6969728  48.7262440  69.5346355  16.7654681
  48.4750414  68.8681555  17.4049461  47.9222393  70.0291443  16.6065121
  54.9201584  70.2588749  62.7846098  54.8139334  69.6456718  62.0573330
  54.5751190  71.0873413  62.4517107  11.9552398  55.4256868  48.0764961
  12.3228550  56.1786556  47.6137638  11.0181475  55.4607296  47.8845024
   9.2365170  61.0910988  33.7983131   9.2573684  61.9523239  34.2155504
   9.4427568  60.4780579  34.5039153  34.8783875  44.6678877  55.8929300
  35.3802061  45.4287004  56.1854601  35.4628563  43.9243364  56.0404253
  22.5524807  65.2870798  56.0215139  23.1016421  65.2120352  56.8019152
  22.8828788  64.6107483  55.4302073  26.1531878  29.7056198  35.3672743
  26.1371422  28.8660049  35.8266425  25.6397080  29.5543361  34.5737481
  50.5053663  30.2397943  61.3383579  51.3190079  30.3497195  60.8462858
  50.0593138  31.0825992  61.2549973  34.7973490  13.2700837  59.4721842
  34.5618653  12.3554933  59.6280861  35.6085515  13.2256091  58.9660215
  35.9518290  61.7238665  59.2852259  36.8547297  61.6326427  59.5896530
  35.5126715  62.2128153  59.9811411  14.0143001  28.4219933  56.2190914
  14.6360028  29.1460562  56.1452675  13.1571412  28.8282657  56.0908222
  31.5479755  36.8057609  18.5319269  31.2263489  36.1434388  17.9202759
  32.2585726  37.2414374  18.0613220  58.5660744   7.1139216  49.7065592
  58.4774256   6.5800840  50.4961109  57.9337883   6.7403722  49.0926313
  28.0129147   9.0238321  47.2029257  28.0064201   8.1873912  47.6682806
  27.4479842   8.8799298  46.4437294  24.3950644   0.9829320   0.0981136
  24.7755184   0.1620711  -0.2144150  25.0061407   1.2905659   0.7675739
  22.5903559  42.3712063  60.2618694  23.2365823  42.6537752  59.6147394
  22.9597855  41.5712261  60.6357479  74.7647810  10.4697967  13.2992661
  74.1525030  10.6181681  14.0199149  74.2409563  10.6013668  12.5089943
  33.0829597  50.6502867  61.0319138  33.0700994  49.8049688  61.4808035
  33.3866739  50.4470778  60.1472139  65.8183432  63.5092020  24.5869470
  66.7243528  63.8180399  24.5867801  65.5783129  63.4705305  23.6611366
  11.8286347  56.0678244  55.2044916  12.2343218  56.4906406  54.4476032
  11.8087077  55.1381683  54.9773788  53.0400419  14.0960395   5.0936717
  53.5847187  14.6386063   4.5234230  53.4113073  13.2173514   5.0142902
  61.1714077  12.8503633  20.6365085  61.6610146  12.0637453  20.3961968
  60.5411243  12.9667091  19.9255633  17.6391959  18.4395349  20.9379125
  18.2350254  18.2485318  21.6622996  17.0546544  17.6823735  20.9025812
   9.0596259  40.5362701  47.6349640   8.2152247  40.1147890  47.4750519
   8.9081246  41.4598608  47.4343014  27.0252872  30.8923435   1.1812519
  26.4731288  30.2157164   0.7894219  27.9053545  30.5159283   1.1761955
   9.7107613  19.1642463   8.4761232  10.2734411  19.1966343   7.7024472
  10.2412605  19.5480406   9.1743380  71.2232208   2.7044666  10.9472859
  71.7788315   3.2672518  10.4080236  70.8374453   3.2965797  11.5928936
  14.6216452  42.6873827  31.6771626  14.7248030  42.3102665  30.8034492
  15.0462854  43.5433483  31.6202426  66.3388205   1.7672534  31.7900777
  65.5823231   2.1088661  31.3133764  67.0345306   2.4029818  31.6225362
  17.3865736  53.6934757  42.9464865  17.0304632  52.9520369  43.4360647
  18.2548499  53.4019947  42.6683378  77.5423241  51.8033075  33.1063819
  77.8280020  50.9065437  32.9319167  78.2233381  52.3516893  32.7168560
  66.9967413  26.4130974  11.7867112  67.4281216  25.7625890  11.2326539
  66.0705757  26.1726213  11.7617345  11.0460615  15.2527761  31.6609263
  11.8908262  14.8226297  31.5283442  10.5750382  15.1139665  30.8392811
  60.8467388  30.5050540  17.2874463  60.7355404  31.1527824  17.9833746
  59.9621439  30.1807117  17.1185517  15.3083968   9.9518633  12.6998234
  14.4493759   9.9289680  12.2781706  15.3396297   9.1511548  13.2233906
  20.2447319   8.1269318   7.6449579  19.2876458   8.1153089   7.6541936
  20.4953933   7.2031885   7.6350588  26.6346455  12.7915001   2.8079298
  27.1228242  13.0520189   3.5889828  27.1430898  12.0701981   2.4372011
  74.2830133  19.1367686  13.6358643  75.0293684  18.6336219  13.3102429
  74.3173265  19.0282452  14.5862734  20.9219384  52.8268290  53.3970833
  20.2090907  53.3372498  53.0129623  21.2334871  52.2736692  52.6807165
  62.9310894  36.9467258  56.3718462  62.4934149  36.2078428  55.9490871
  62.6604795  36.8928790  57.2884178  60.2518654  61.3711882   7.9944354
  60.9401083  61.0767651   8.5909820  59.5625162  60.7126760   8.0804199
  77.6189232  16.3979566   4.7927845  77.4908447  16.3118160   5.7374579
  77.8728580  15.5212080   4.5045784  36.1228371  22.3010516  60.7820845
  35.3006530  21.8899179  60.5152273  36.7618418  21.5884733  60.7702732
  36.6149950  23.8127685   7.9212999  37.2580290  23.8203478   8.6303014
  36.2422061  24.6943760   7.9266232  37.6705003  14.3814814  40.3484631
  37.9362297  14.0646410  39.4851971  37.5117660  15.3168988  40.2218533
  32.0489597  55.6710577  52.8155947  32.0434546  56.0288191  53.7034035
  32.1403384  56.4372492  52.2491741  16.7646551  22.9568148   6.1973882
  17.3184645  22.8844357   5.4200286  17.3816907  23.0495310   6.9232684
  18.6775279  44.5098972  24.3355179  19.1431499  45.0509119  24.9732733
  19.3356085  43.8896513  24.0217352  10.4369736  35.7871962   8.9898318
   9.6539122  35.3197169   9.2805386  11.1658430  35.2534151   9.3061525
  31.1937952  18.8354623  11.5640056  30.4580665  18.4741664  11.0696352
  31.8311334  18.1222296  11.6004992  32.7928209   5.2806461  44.7622252
  33.5004163   5.8675194  45.0289106  32.0201707   5.8435839  44.7138166
  27.4266815   8.7548900  34.4817591  28.3664060   8.5821247  34.5392060
  27.1445823   8.2862693  33.6962366  36.3828492  39.8273849  14.8166203
  37.0951200  40.1744461  14.2795455  36.8031526  39.5777440  15.6395781
  75.7067633  71.4874887  22.2268319  76.1089182  72.3555899  22.2569418
  74.7708607  71.6604948  22.1249199  47.6298904  56.5196133   6.1060393
  46.8121433  56.4619398   5.6118751  47.3790264  56.3213396   7.0082510
  39.5064926  69.2109871  57.7101755  39.7519374  69.7872257  58.4340096
  38.5528350  69.1499853  57.7653790  67.2508144   6.0699832  10.1495278
  66.3799906   6.2782794   9.8111343  67.3937893   6.7058975  10.8505297
   2.6332581  23.3141041   8.0367464   2.2731271  23.1615829   7.1630901
   2.5567415  22.4683189   8.4783584  58.4137106  57.5337124  61.8714857
  59.2943954  57.8799248  62.0155621  57.8367615  58.2872438  61.9961929
  42.8927374  10.2000046  23.2088947  43.1172276  10.0525153  22.2901559
  43.3685064   9.5187563  23.6840510  27.0724416  25.6682634  19.1882348
  26.9072914  26.3190532  18.5060096  27.0415092  26.1651587  20.0057721
  22.3665333   6.0604697  10.0981617  22.8363228   6.2412697   9.2840111
  22.8497171   5.3373468  10.4979837   5.1413983   7.5739449   8.9980602
   5.4636407   8.4304309   9.2788160   4.4437829   7.3650944   9.6193057
  42.3318005  51.1693048  61.8448782  41.5083170  50.9910297  62.2991085
  42.2601843  52.0830679  61.5689468   2.9672554  12.9601729  19.2974353
   3.2509071  12.7087367  18.4184849   3.7037349  12.7270055  19.8626447
  64.8354435  49.0977526  11.4921844  63.9385509  48.7831211  11.3789427
  64.9866104  49.0556431  12.4364328   8.7897557  30.0029540  12.7235317
   8.7595212  29.7659898  11.7966199   8.5401773  30.9268427  12.7428198
  65.0755167  19.2374694  16.7453563  64.7958040  18.4140539  17.1453297
  66.0278034  19.2394578  16.8422222  18.7955451  54.7501516  38.3719897
  18.9803720  54.3629932  39.2276645  17.9313838  54.4117403  38.1376028
  53.3567476  19.1849935   9.1407025  53.7677050  20.0477028   9.0852034
  52.8914070  19.0874708   8.3099306  30.7368708  68.8735485  41.3369370
  31.5101266  69.1042042  40.8220530  30.3562832  69.7152758  41.5877056
  44.2383718  70.0349236  63.1517792  43.9791632  70.9055376  63.4535694
  44.9178553  69.7604418  63.7675619   6.7393726  12.4499738   7.7741706
   6.0170543  12.3201501   7.1596521   7.5198787  12.4895048   7.2214693
  70.7370663  67.9565859   4.6906152  71.5934992  67.8322363   4.2815948
  70.7954502  67.4795198   5.5184025  26.4493966  15.5456150  62.8386164
  25.6731534  14.9874389  62.7925968  26.1020088  16.4297366  62.9564381
  21.3049674  12.6966274  10.7684958  21.2398481  12.4117899  11.6800106
  20.8334804  12.0263624  10.2738464  46.9356585  62.3196983   1.9741175
  46.8436098  61.7458582   2.7346849  47.3132038  63.1256437   2.3264575
  36.8823814  27.5210309  55.6330919  36.6903210  27.7839184  56.5332270
  36.0262084  27.3233962  55.2534342  16.7822421  36.7821479  12.2543728
  16.9234991  37.7103162  12.0678735  16.3305128  36.4481711  11.4793682
  75.5439615  47.2731495  17.4293840  76.1274338  46.6326666  17.8362870
  75.8533859  47.3390436  16.5259767  75.8627796  28.2900071  60.1510811
  75.7695246  27.3450613  60.0302029  75.0866556  28.6627245  59.7328186
  57.5642347  31.6963792  60.5225468  57.1139002  31.5364575  59.6931791
  58.3815002  31.2033367  60.4502869  25.0945377  51.5325975  32.8107953
  24.8062015  51.9749784  33.6091661  24.2965436  51.1472082  32.4489784
  70.7089281   2.3134051  44.7647333  70.8689976   1.3972628  44.9912119
  69.7632980   2.3639421  44.6252251   9.2324281  51.5769053  24.0240860
   9.4591045  52.3450136  24.5483565   9.7025645  51.7023182  23.1997824
   8.9882112  44.7358704  43.7136984   9.1701692  45.6450558  43.9514160
   9.3289346  44.6482754  42.8234911   8.0913156  13.3298671   3.6792183
   7.7240241  12.5360858   3.2903233   8.7669092  13.6088729   3.0611891
  15.2036998  45.3990905   1.3177391  15.3730867  44.7787569   2.0267721
  16.0209081  45.8893691   1.2281128  75.4341173  25.1403236   2.7489895
  75.4491329  25.8111286   3.4316522  76.1514568  24.5493960   2.9780424
  59.4216728  44.5363331  59.5774031  59.0148211  44.8576450  60.3820515
  58.6880016  44.2331076  59.0425968  13.3114696   2.7288923  14.3286073
  13.2077026   2.8131610  13.3807874  13.8720310   1.9611675  14.4408631
   1.2533092  40.5492020  25.0551629   2.1879122  40.7531595  25.0890827
   1.1652887  39.9520302  24.3122840  55.0605106  11.2391353   1.0227917
  55.7145071  10.6934869   0.5859983  54.3898201  10.6217372   1.3147286
  14.7865701  56.4774942  49.6859217  15.3667223  57.2173262  49.5062017
  14.7227025  56.0147429  48.8504457  76.6545868  38.1945419  28.1130433
  76.0416269  38.3622956  27.3972416  77.4010229  38.7643695  27.9276776
   8.7850952  55.0915194  34.1531253   8.8692403  54.7481441  35.0426435
   8.6526263  56.0321474  34.2710280  25.9951234  39.6322417  58.6899137
  26.2873244  40.1154709  57.9170370  26.5751767  39.9287558  59.3912363
  35.9499461  72.7809745  50.9120560  36.6518123  73.4093699  51.0815763
  35.3248507  72.9225244  51.6230059  35.3678823  41.6155529  53.2231617
  36.1516619  41.1670780  52.9056835  35.3563929  42.4449015  52.7453756
  61.2832594  21.8878555  52.1261644  61.6483784  22.7120018  51.8041420
  62.0307207  21.2907290  52.1573925  41.6942549  24.5794988  62.6082659
  41.4493036  24.3279099  63.4987354  41.1485147  25.3420472  62.4161291
   0.8033326  57.9194164  12.5230920   0.2068666  57.2848129  12.1259284
   1.6055331  57.4237680  12.6875401   2.9872558   0.6492493  25.6177402
   3.9217326   0.8473846  25.5567098   2.9474113  -0.1658228  26.1180377
  68.7173653   7.5603390  12.7072346  68.1877995   6.8090123  12.9742563
  68.6314821   8.1826782  13.4294188  69.1096210  69.5176697  61.2627697
  69.3191624  68.7997341  61.8601704  69.9317741  69.9987841  61.1688185
  70.9880781  70.4043198  25.8090854  70.2721024  70.3211212  26.4389157
  71.7395496  70.6773090  26.3353968   3.6267629  66.6183615   5.0990492
   3.4082177  67.3019361   5.7324535   4.3007189  67.0119476   4.5448780
  17.7955341  55.1657104  58.7122059  17.5726402  54.2349863  58.7298059
  17.0088542  55.6065035  59.0332460  55.6360245  28.6898422   5.8974743
  55.7299757  29.0459681   6.7809784  56.4674997  28.2469034   5.7281071
   3.0022258   2.0156589  29.4101095   2.7908596   2.8955257  29.0980363
   2.5836664   1.9592147  30.2690935  73.3038664  18.6571121  50.0387573
  73.0697775  19.4275713  49.5212364  72.8588820  18.7868917  50.8762407
  76.7266464  11.3831639  59.3236780  77.3664761  12.0836818  59.1967154
  76.6165209  11.3285279  60.2729511  75.0494432  15.3558016   0.3098633
  75.7623577  15.9752333   0.4657243  74.4357252  15.5113900   1.0277567
  61.1387634  35.4959345   0.7530911  60.8736849  34.8760414   1.4325753
  61.6263771  36.1723971   1.2230496  77.8349257  49.9790001  13.8671410
  77.0670033  50.2180243  14.3861699  77.7381659  50.4746532  13.0540025
  11.9571006  45.5328846  30.1518869  12.0678079  44.7799873  29.5712662
  11.0914910  45.8783579  29.9337149   6.5120149  71.9560385  16.2977195
   5.9621370  71.5119743  15.6522179   7.2747785  71.3860321  16.3952494
  49.7905111  69.3752623   7.8786731  50.4271173  69.2690039   7.1717972
  48.9510536  69.1425085   7.4819779  43.0440950  36.4303946   2.1231006
  42.9210472  35.4873991   2.0142238  43.4793997  36.7097068   1.3176668
  23.4348869   6.1533785   7.3914278  23.0895567   5.2641755   7.4707800
  23.2960916   6.3831151   6.4726299  50.6988668  16.1109197  38.6723447
  50.6643009  17.0600057  38.7918139  50.6475258  15.9867871  37.7246189
  29.2184734  17.1568048  28.9619637  29.2780662  16.3047850  29.3940997
  29.5587039  17.7768278  29.6069789  38.8568950   1.9823663   3.1102130
  39.2607498   1.7238615   2.2817752  38.5788870   2.8873584   2.9690325
  18.1377864  50.0119781   7.1640962  18.4108961  50.7278919   7.7377754
  18.6394060  50.1449060   6.3597709  11.8510890  20.7629132   7.1472102
  12.7497315  20.9987664   7.3775274  11.9257736  20.3432178   6.2901747
  26.1507654  37.1672010  24.2376041  26.8584871  36.6572094  24.6316481
  26.5884948  37.7322817  23.6009669  38.2229018  38.2122993  58.1512022
  37.5970125  38.8795924  57.8697538  38.7474012  38.6448789  58.8250017
  66.3786840  48.6330080   4.6704477  67.1248007  49.0786934   4.2693147
  66.0137796  49.2763567   5.2780485  64.5316648  47.9700422  22.5379848
  65.2889490  48.5521889  22.6001167  64.1109419  48.0319977  23.3955312
  32.9750729  26.2435031  20.7420611  33.9162040  26.2160230  20.9145498
  32.7351832  25.3317523  20.5765533  18.3042932  48.2987118  30.9606433
  17.6875889  47.8839779  31.5638876  19.0224135  48.5961819  31.5192533
  62.1280766   2.6375273   5.4758388  62.8576803   2.6235580   6.0952818
  61.7530537   3.5134512   5.5672026  73.9434140  70.3790824  -0.1641516
  74.3245214  70.0614612   0.6544491  73.5880893  71.2403480   0.0553842
  12.5014102  57.8193903  50.3362703  13.1019700  58.5408545  50.1490641
  12.8533125  57.0800495  49.8405170  24.5960879  32.5500488   2.9177392
  24.4657826  31.9695568   3.6675936  25.4675078  32.3268008   2.5906020
  20.4101634  59.8541832  41.4379072  19.6765828  60.3090191  41.0241270
  20.3519034  58.9570951  41.1091566  27.7306342  51.6017246  31.4275575
  28.4322834  50.9695816  31.5834832  26.9658327  51.2222576  31.8603539
  56.3149118  43.8116026   3.3957958  56.5270090  44.5948458   3.9035118
  57.1614218  43.3959436   3.2318434   3.7176347  50.5621910  26.8195820
   3.9450496  50.0697470  27.6082587   2.8844726  50.1867819  26.5347290
  68.6127281   8.0160677  33.8012719  68.4366703   7.8838360  34.7328043
  68.0150414   7.4148262  33.3568525  29.9394464  57.9664373  32.8989267
  29.8785782  57.1727943  32.3672748  30.8779669  58.1463337  32.9541540
  33.4465098   3.7586448  63.2689381  33.9266253   3.2635805  63.9327383
  33.3445191   4.6315134  63.6483192  36.4803529  33.6445284  58.1887150
  36.5456438  32.8585815  58.7311697  36.7389536  34.3592715  58.7705183
  60.8753252  63.9800406   7.3009157  60.7385063  63.0680466   7.5574040
  60.1592684  64.4568729   7.7205884  31.4869523  70.8743048  24.3217897
  31.1548066  70.2132607  24.9291897  32.4370980  70.8473825  24.4346118
  51.0227537  74.2040157   5.9285223  50.7983112  73.6000872   6.6364223
  50.1956606  74.6323252   5.7078320  19.8628151  46.7097616   4.0713820
  18.9600003  46.7530155   4.3864796  19.8747206  47.2765255   3.3001056
  28.8716102  35.8667970  23.4983158  28.2397795  35.9389091  22.7828956
  29.3511295  35.0591612  23.3138704  38.3061171  63.6904335  34.5755720
  38.9762044  63.6168671  35.2551341  38.7010813  64.2533112  33.9096856
  33.6042118  65.2665758   8.0587387  32.7539515  65.6937027   8.1629276
  33.4027624  64.4321060   7.6352853  32.8935838  10.3824115   0.3738054
  32.4719262   9.7557765   0.9618241  32.4194193  10.2917254  -0.4527386
  45.8388615  46.9248009   2.2371003  46.6964912  47.3376322   2.1357335
  45.7912493  46.6963196   3.1654102   0.6221001  64.5454931  25.9822130
   1.4514095  65.0195694  25.9211469   0.1934602  64.7033739  25.1410389
  31.0547788  72.8705431  19.4679797  31.4619739  72.9395345  20.3314996
  30.6820971  73.7377474  19.3089366  68.6747456   0.7916958  55.9634161
  69.5124435   0.3296686  55.9954071  68.9103031   1.7182559  56.0106659
  45.2687073  38.2368612   3.3844429  44.4259453  37.7885842   3.4554210
  45.7164764  37.7924919   2.6645333  33.1254673  24.5753622  60.3940487
  33.3038187  24.7844720  59.4771528  33.9520550  24.7489238  60.8444548
  48.6935091  19.4722211  43.5614586  49.4262457  19.7376668  43.0057001
  49.0573597  18.7929118  44.1292429  59.7512102  58.2659531  31.9511342
  59.6038342  57.3322821  31.8002343  59.7138596  58.3636189  32.9026055
  12.1854913  32.3020220  10.3521550  11.3363528  32.0255613  10.0075340
  12.1646166  33.2576895  10.3021920  17.5874436  17.8694880   0.9521350
  17.4855781  18.5811627   1.5840963  18.2528138  17.2998214   1.3381311
   7.4734712  47.1342564  36.5849757   7.3356587  46.7726040  35.7095051
   7.2473007  46.4180088  37.1783280  10.3816068  23.0138803   8.6630577
  10.9440994  22.2537446   8.5146374   9.5295268  22.6408434   8.8889706
  21.9041014  13.8572323  30.2757525  21.7720246  14.3974924  29.4967103
  21.0492086  13.4586191  30.4385376  41.1428642  31.8481135   1.4952534
  40.9418058  31.1527610   0.8689222  40.4254675  32.4740911   1.3966228
  16.9923854  61.7429781   0.3827804  17.4997759  61.0290909   0.7689835
  17.5232172  62.0420170  -0.3554772  69.7907829  57.5688219  43.4459448
  70.2076626  57.7040482  42.5949717  69.1695595  58.2926273  43.5260439
  12.6602125  57.8480864  47.1059513  11.7998922  58.1365299  46.8011856
  13.1559002  58.6581516  47.2256136  73.6616516  73.1226349   6.7913097
  72.7958822  72.7162457   6.7523015  74.2477608  72.4758387   6.3984209
  50.4457331  26.4869189  11.1697829  50.2258348  25.6598735  10.7409787
  49.6015549  26.9156456  11.3104486  40.8108950  69.0801287  22.3652530
  41.3071108  68.2642078  22.2999215  40.6535292  69.3381357  21.4570117
  78.4113703  34.0291262  60.3598499  77.8136673  33.2830429  60.4082537
  79.2809269  33.6352301  60.2895117  19.0053523  23.9078593   1.2042597
  18.2655811  24.0059042   0.6047961  19.4396329  23.1038594   0.9192792
  14.7642827  70.0923586  57.4670887  14.8954403  69.3429708  56.8861866
  14.2327607  69.7486591  58.1851339  11.8290210  14.6056402  20.3545523
  11.0887623  15.0837171  19.9808002  12.5622165  15.2185476  20.2997661
   8.7813765  31.6724634  16.5410268   9.0520406  31.6392517  17.4585605
   7.9439402  32.1358609  16.5549695   5.7876176  25.0965953  19.1971707
   6.6148907  25.1436210  19.6763778   5.1171595  25.0628328  19.8795033
  32.7307963   1.9596055  51.8973494  31.8151522   2.0924756  52.1426535
  33.1487060   1.6387263  52.6964855  34.1630125  33.7296677  18.6423683
  34.4662499  34.3994331  19.2553055  33.4208918  33.3181024  19.0852034
  77.9703236  42.2288465  11.8005180  78.1730795  41.6386652  12.5263309
  77.8638124  43.0865765  12.2118509   6.7325211  70.7912970  53.1048107
   5.8114213  70.9818888  53.2822418   6.7280835  69.9061823  52.7404165
  32.6639199  72.5488615  54.8612309  32.2469330  72.1352196  55.6170464
  32.3296428  73.4457874  54.8643446  55.2726269  22.2366118   7.6510370
  55.3870773  23.0394173   7.1424711  55.9190083  21.6300464   7.2897935
  25.9732294  21.3130021   4.2235437  25.2462268  21.9155884   4.3803537
  25.6481504  20.4630685   4.5204756  65.0436974  68.7772608  54.2385244
  65.1889277  68.7997389  53.2926750  64.7144222  67.8948689  54.4093800
  33.3969021  45.5152512  14.4491088  34.3448138  45.6393433  14.4970322
  33.1664872  45.1057720  15.2830541  49.7762632  49.4892550  61.7280769
  50.2837944  49.1186476  61.0060692  49.4418430  48.7275219  62.2015285
   6.0002702  60.5619335  22.2171593   6.5952557  60.5215693  22.9658866
   5.6450933  59.6759653  22.1454430  47.7172726  53.8028089   0.9791990
  48.0874961  53.1585853   1.5826412  47.0255535  53.3287923   0.5176111
  32.7906394  54.2263508  59.4767952  33.0490470  53.3210897  59.6498775
  33.2130527  54.7328234  60.1705456   1.7208554  44.4062281  11.1480951
   1.3072143  45.0588465  10.5830979   1.4393616  43.5650587  10.7883334
  70.6198311  71.5858698   2.5318629  70.2892733  71.0638857   1.8007724
  70.9325695  70.9399223   3.1652451  47.3877621  42.6538372   5.3161144
  46.7912674  43.2353163   5.7876104  46.8185806  42.1408987   4.7423893
  76.9514942  50.6328344   8.6911929  76.9815826  50.9224796   7.7793652
  76.6309738  49.7320318   8.6458999  21.4942980  19.1113198   2.0494935
  20.9553146  18.5462916   2.6030940  21.4027691  18.7432873   1.1706269
  25.3297853   9.6168882  10.6503308  26.2675023   9.4447148  10.5650473
  24.9838734   9.5029795   9.7651172  15.7065117  14.4049096  49.7956610
  16.1674130  15.1360512  50.2070427  15.3311288  13.9159560  50.5279493
  51.1544657  32.6659179   7.4281502  51.4006567  31.7494202   7.5532722
  50.4589033  32.8166080   8.0682445  14.8344219   4.4126445  59.3006897
  14.1381299   5.0121140  59.0322733  14.6047378   3.5793254  58.8895226
  61.3100665   0.2406094  59.9487066  60.9074848  -0.5053404  59.5040512
  60.9967964   1.0051271  59.4653749  71.9366980  34.2592287  10.8710968
  71.3843727  34.6450686  11.5510190  72.8248835  34.5329475  11.1000872
  31.2589979   8.2184005  27.7160692  30.3401208   8.3498949  27.9497528
  31.3428688   7.2723275  27.5971437  70.5773067   9.1333359  54.3704319
  69.7188330   9.2387086  54.7805023  70.7190084   9.9532795  53.8973093
  72.2159147  44.0269041  32.7853847  72.3140574  43.4375143  33.5331941
  72.3079157  44.9038363  33.1578898   9.3123889  17.3995411  62.6809311
  10.0815761  17.5086749  62.1217585   8.9397347  16.5591455  62.4142933
  73.7519979   0.5854661  60.0795841  73.2814598   0.1489100  59.3694782
  73.9324236   1.4632720  59.7432280  58.5955095  39.0756059   4.4794556
  57.8113842  38.8760567   4.9908850  59.2892838  38.5636163   4.8951140
  22.4613833  45.8715916   1.6399308  23.1535935  45.6532478   2.2639515
  22.1491003  46.7319822   1.9200003  23.5609770  24.7420979   3.7440419
  23.6514091  24.5765281   2.8056175  23.6604595  23.8809156   4.1498744
  12.2066665  21.6153169  37.9082131  11.2881231  21.3792825  38.0378199
  12.5558352  20.9209871  37.3494458  62.9813957  35.3479385  43.4845781
  63.3820868  34.7542334  42.8496027  63.0569363  36.2138486  43.0836725
  28.0260968  26.1158466  13.9871943  28.7026334  25.5444503  13.6238253
  27.2199750  25.6037784  13.9224744  65.1045179  72.4427319  57.6607418
  64.6149635  71.6636133  57.3970318  65.4680109  72.2186327  58.5174084
  34.6911144  69.2787790  48.8980675  34.9444866  70.1391077  48.5635948
  35.0126863  68.6619616  48.2405233  37.2124076  17.3229754  57.7750301
  38.0786395  17.6954997  57.6104021  36.6757345  17.6331353  57.0456409
  33.8090086  44.4364214  17.3373687  34.2753935  43.6901617  16.9607925
  34.1897345  44.5415974  18.2092738   1.3865408  27.1471429   6.4678597
   1.9591781  26.7489314   5.8123088   1.1094952  26.4158225   7.0198119
  19.6539748  41.4076805   2.4991448  19.5321119  42.0198441   3.2248420
  19.4677007  40.5481672   2.8769928  76.2417698   4.0488559  14.5735931
  76.5568447   4.7031718  13.9500308  76.9104958   4.0288475  15.2581596
  14.5859423  16.4072336   1.0212513  13.7326780  16.8293871   1.1210390
  15.2190581  17.1138967   1.1478325  59.1287088  33.4296608   5.7391220
  58.8301516  32.7177572   6.3050622  59.2432308  33.0214477   4.8809397
  73.4675932  20.5418634  18.7195182  72.9778576  21.0397291  18.0649042
  73.1939411  20.9143233  19.5577419  45.5662441  62.6421690  55.2673769
  46.4996338  62.4705982  55.1425648  45.1313686  62.0771837  54.6287060
  74.4746685  24.3770552   0.5006678  74.6912479  24.8746657   1.2891527
  73.8186741  23.7429833   0.7902538   8.4714013  24.9650288  17.7979422
   8.4487343  24.5743346  16.9243991   8.7513047  24.2520523  18.3720076
  13.6300683  56.6185427  30.3823733  13.1720376  55.7813835  30.4572439
  13.3393085  56.9764614  29.5435739  19.4965947  19.5119488  11.6325545
  19.7674549  20.4297733  11.6109896  18.9844811  19.3944919  10.8324456
  16.8519247  43.0760336   2.8654858  16.1245632  43.3248425   3.4358129
  17.5985873  42.9816294   3.4569371  41.0344219  52.5704241   3.0310181
  40.1881075  52.1563196   2.8622028  41.3225937  52.8845024   2.1739623
  20.4418230  33.3553433  12.8825450  20.0661516  32.7791357  12.2168982
  20.7635474  34.1111517  12.3911381  38.4445477   1.9048581  16.0432053
  38.1919837   1.0076335  16.2609935  39.2058802   1.8072474  15.4712975
  66.9871998  13.5411894  40.3840399  66.2993240  13.6030090  39.7212911
  67.0320702  12.6089299  40.5964327  26.2611389  62.0787048   9.1801643
  25.4669452  62.1337366   8.6486936  26.2375402  62.8632545   9.7280306
  49.0248203  10.6812072  48.3238983  49.8554802  10.9098589  48.7409782
  48.4485865  10.4456139  49.0510082  27.4648166  24.1878009   3.9332369
  28.0217028  23.4680772   4.2300642  26.8903708  23.7916398   3.2780254
   8.8468212   0.9146427  55.8727169   8.9717567   0.8007903  56.8148756
   9.3631381   1.6906002  55.6546831  41.5272141  24.0140367  14.5122731
  41.2469769  23.0993390  14.4801962  40.8177471  24.4969058  14.0883303
  27.7912879   9.2372733  51.3080454  28.3897543   9.7144377  51.8828344
  27.2501326   9.9177909  50.9076929  30.7626820  57.9388762  61.1294699
  31.1548281  58.2829666  61.9320011  29.9120545  58.3741379  61.0728216
  37.5223756  54.6479464  10.2016044  37.4137330  53.8079643   9.7556627
  37.0091891  55.2645063   9.6793747  24.2389924  73.5776353  42.1583700
  24.3107135  74.4676863  42.5031853  25.1441581  73.3060686  42.0061874
  65.0227499  39.7726440   2.5349587  65.8784914  39.3465614   2.4860620
  64.9216938  40.2050638   1.6870013   8.9825636  73.5889435  34.7763062
   8.1025231  73.2369232  34.9098706   9.4402772  73.4073925  35.5971408
  64.7091007  25.0930953   3.3789223  65.3323221  24.8229218   4.0533328
  63.8938618  24.6505284   3.6150491  38.3945751  58.3839273  57.2461176
  39.1686487  58.7683916  57.6574898  37.8054094  58.1929350  57.9759407
   3.2152930  21.3814545  13.3500171   4.0335977  20.9400010  13.1225801
   2.5298321  20.7792473  13.0606735  70.3238678  43.7144661  38.1120324
  70.6149435  42.8100157  37.9959297  69.6652269  43.8435841  37.4295712
  70.8641243   0.5262144  39.9636936  70.2294207  -0.1314151  40.2481318
  70.9811354   0.3575249  39.0287685  76.9949055  15.9056222  63.2795429
  77.4496603  15.7620347  62.4495983  77.2817469  16.7738116  63.5627460
  69.8064852  63.8173771  62.0706797  69.9342251  63.0195856  61.5574121
  70.3306437  64.4790411  61.6193581  63.1214380  58.5038233  58.0462408
  63.6235952  58.7168217  57.2596645  62.2325850  58.8002586  57.8505230
  45.6867409  67.4308109  46.8390083  46.3837433  67.9899120  47.1822643
  45.2812672  67.0484591  47.6172304  40.6927567   1.5968677  24.5134187
  41.1261707   1.1087343  23.8133407  40.2945393   2.3467705  24.0714884
  77.0971831  27.5538278  14.7728968  77.0874024  26.6237736  14.9990249
  77.4034025  27.9903817  15.5678070  67.3646450  69.9705648  17.8392780
  66.8117571  70.1591682  17.0810080  66.8657494  69.3298244  18.3460236
  62.5768518  38.5300016  30.8109212  62.6276875  39.4856715  30.7924485
  62.6975441  38.2660532  29.8987842  72.1843863   4.4652700  62.8013992
  72.1500969   3.6172721  63.2440662  71.2813663   4.7821566  62.8205919
  57.6974392  35.0557542  52.4443197  57.8091812  34.8952293  51.5073156
  56.8530750  35.5015326  52.5119305  12.5987411   8.6727083   4.5257139
  13.1898785   9.1397429   3.9352334  12.3699701   9.3176162   5.1950336
  50.5117416  54.5095158  61.5840960  49.9283504  55.1756477  61.9476318
  51.1083984  54.2963362  62.3015785  45.0926876  59.1300631  14.0308702
  45.7143545  59.7703838  13.6848140  44.3596697  59.1512060  13.4156740
  51.4001942  33.9086032  17.2981501  50.8881330  34.3356133  16.6113555
  50.9596395  34.1526270  18.1121516  45.2931595  52.9443407  17.1639717
  45.5143070  53.8279343  17.4582338  46.1019230  52.4449158  17.2766924
  17.7990139  47.7450132  48.4759140  17.7417743  47.8565168  47.5269556
  16.8955815  47.5950003  48.7543726  65.3435135   4.5366260  61.0610819
  66.2710190   4.7731307  61.0671568  65.2793789   3.8030747  61.6726542
  29.4463539  52.8928900  24.8246121  30.0604296  52.8363895  25.5567002
  28.7942314  52.2161436  25.0062275  34.1573739  41.3235331   0.8886705
  35.0654244  41.0698795   1.0540066  33.8504863  41.6738415   1.7249334
   1.9159114  34.6509147   6.2294102   2.7243310  34.7954464   6.7211419
   1.9577692  35.2802372   5.5093884   1.5276687  34.0577531  32.8910732
   1.3241816  34.9684119  33.1044364   0.6791854  33.6640024  32.6879263
  23.9866519  36.2898254  56.5287876  24.6792245  36.3774872  57.1836853
  23.1862712  36.5367484  56.9920921  72.6625347  17.7748120  21.1621213
  71.9314671  18.3804095  21.2846804  72.7247238  17.3032153  21.9927597
   2.6960322  54.9476242   9.8231560   2.2383431  54.6414518  10.6061053
   2.6906815  55.9016943   9.9003023  36.7533207  67.1357155   3.6010170
  36.7542791  66.3599825   4.1617912  35.9189725  67.5657606   3.7885094
  53.6866140  13.4840298  47.7507782  53.7110233  14.3539894  47.3522711
  54.4857359  13.0568039  47.4423695  66.0621643  73.4118795  46.7165613
  65.3458786  72.8937626  46.3495111  66.1188507  74.1792965  46.1472702
   3.2260337  52.7130938  48.2273817   2.4772137  53.2517862  48.4829378
   3.5051113  53.0745363  47.3861265  55.8393049   4.9426386  41.6459799
  55.9273863   4.8693341  40.6956625  55.2504635   4.2277783  41.8877888
   2.5397044  47.2567415  26.3745165   3.2446358  46.8015385  26.8350530
   2.3784129  46.7232704  25.5962968  57.8900862  36.7449141   9.2262572
  57.8487301  37.4885058   8.6249334  56.9774151  36.4819884   9.3451518
   5.4477054  21.1825657  57.8353167   4.6375126  20.7187080  57.6239967
   5.6389129  20.9311938  58.7389088  75.1266384   5.0196254  10.4144359
  74.7040224   4.2398527  10.0544572  75.8088017   4.6772578  10.9920752
  53.1689644  66.7192125  37.5590730  52.5508213  67.1892405  38.1187177
  52.8214741  66.8284130  36.6738868  78.4209538  41.6363525  27.8284860
  78.6839962  42.3626137  27.2631717  78.6944962  40.8517361  27.3533106
  16.3878584  27.1021152  56.9061565  16.9277811  27.5271988  57.5725031
  15.5239952  27.5018525  57.0070601   6.1086357  18.3619702  24.2002273
   5.8991498  17.4304056  24.1328835   6.5295786  18.5736465  23.3670211
  43.4740067  68.0737925  52.4403429  43.7192726  68.5873079  51.6706800
  42.5502777  68.2808685  52.5820160   4.9010536  48.1345654  48.6978149
   5.0104833  49.0258884  48.3664465   4.4868413  47.6602125  47.9769516
  73.8820219  66.7800951  36.3275194  72.9468441  66.8165255  36.1266541
  74.2319584  66.1272383  35.7212567  43.2633114  61.9336081  50.4863882
  43.1622601  61.5772724  49.6037531  43.0477667  62.8618383  50.3960705
  34.7361469  69.3076372  42.4630404  35.5344152  69.3423986  41.9359827
  34.4188428  68.4106541  42.3582792  26.0093236   2.7391484  61.4790487
  26.7207718   2.0998782  61.4415407  26.3323593   3.4867930  60.9761524
  54.3587923  22.1423101  62.1128511  54.3722439  23.0987954  62.1472883
  53.4300947  21.9177604  62.0551062  59.6220064  19.8418176  42.9962778
  59.1502571  19.8003483  43.8281202  58.9674902  20.1392365  42.3643112
  43.8710451  71.3148117  14.2853510  44.7945690  71.0637474  14.2679107
  43.7033749  71.5477705  15.1985037  44.9424553  65.4600239  48.6752462
  45.2679777  65.0247002  49.4631290  44.0148258  65.2267981  48.6386585
  21.9054842  12.0520568  62.1737766  21.4737701  11.4184511  62.7468348
  21.5118361  11.9043636  61.3138580  13.7073660   3.5834864  34.3360567
  13.3180773   4.1532338  34.9994373  14.1138244   4.1850966  33.7122869
  73.5847425  38.1510901  41.6444778  72.7067757  37.8295112  41.4395523
  73.9635181  38.3720851  40.7936430  69.8537779  50.8023691  52.0115185
  69.6590376  51.0598803  52.9126215  69.0753222  51.0569334  51.5161085
   8.8348532  67.5014210   1.3643692   8.2925177  68.0411434   0.7892123
   9.5792329  68.0608702   1.5860555  59.2829847  40.9164381  17.6269245
  60.1760197  41.1422825  17.3666966  59.3925571  40.3352833  18.3795762
  64.6556044  52.6165295  18.4194195  65.1360798  52.1804571  17.7157021
  63.8738441  52.9682207  17.9935122  16.0457575  27.2100949  18.6007047
  15.5512834  27.4594712  17.8199744  15.5388296  26.4961290  18.9873660
  62.2117376  36.4233518   4.9335670  61.2675714  36.5449429   5.0335300
  62.5378752  37.2846746   4.6728197  38.2689619  16.2205684  10.9481812
  38.4502864  15.5976319  10.2444053  38.7796593  15.8982360  11.6908264
  66.9361973  31.2840438  41.4399719  66.2387037  31.6041589  42.0120430
  67.6222849  31.9484401  41.5039539  72.3075008   8.3197838  40.0783920
  73.1658077   8.7239355  39.9511361  71.8944788   8.3580333  39.2157316
  69.0121984  59.6936655  47.6193905  69.0953684  58.9399624  47.0352221
  69.4492960  60.4068041  47.1539783  52.3858541  -0.0233200  57.1175432
  52.0133751   0.6548807  57.6810408  52.9506438   0.4538891  56.5096664
  42.2841358  14.6462762  11.2344766  43.1981564  14.4868231  10.9991598
  41.8015003  14.5239747  10.4169583  51.1016035  61.8888235  55.1716280
  51.5196991  61.4039040  54.4600964  51.8304157  62.2195530  55.6966829
  34.1620803  10.4529226  33.6406827  33.2119465  10.5467188  33.5722780
  34.5075512  11.2976015  33.3518910   8.4884727  20.0839663  50.0477743
   8.7658942  19.1699862  50.1102972   8.6874086  20.4540205  50.9078407
  12.4017370   1.4910541  56.3031578  11.5978134   1.2775671  56.7768288
  12.1433485   2.1802735  55.6912422  49.0461588  65.3709984  18.5407412
  48.2027864  65.5151510  18.1115842  49.1356468  66.1068964  19.1462755
  75.0474262  69.1280365  37.2285366  75.7054329  69.2631721  36.5466285
  74.6995926  68.2531738  37.0557284  36.0374045  49.0119886   1.8149602
  35.5604577  49.7884464   2.1079874  35.3859305  48.3108568   1.8300395
  52.8336620  10.6709051  46.6991472  52.4347401   9.8026383  46.7557621
  52.5197792  11.1299634  47.4782324  47.5512457  62.7416468  18.7308097
  48.0676556  63.4975529  19.0103793  46.9907570  62.5437689  19.4810963
  11.4509380  37.8517771  46.7456913  10.8299422  37.8257704  46.0177326
  11.0737383  37.2673774  47.4032831  30.7539964  44.0569067   2.3954852
  31.0219073  43.2370043   2.8104651  29.9694586  43.8279581   1.8971699
  64.3184951  16.7450960  64.5966781  64.6859267  16.0437878  64.0587289
  64.4211283  17.5340326  64.0644392   9.7207898   1.7571737  42.6767874
   8.9030224   1.3387795  42.4076509   9.9459404   1.3325721  43.5045862
  49.4576502   1.1396510  26.6673613  48.6894369   0.9683707  27.2121000
  49.0978193   1.3574159  25.8075190  -0.2224305   2.7524516  12.4826992
  -0.0262002   2.1424100  13.1937373   0.3155630   3.5213247  12.6714563
   4.7747922  20.1594448  28.4617949   4.6835098  19.2520463  28.1710625
   5.0400132  20.6372213  27.6759076  16.8441069  28.0705333  59.6258879
  17.1837294  27.8604650  60.4958057  16.2794530  28.8305807  59.7663307
  31.9470501   5.0123745  37.6234484  31.5688062   4.2651772  38.0869794
  31.2463808   5.3157765  37.0461798  59.4014835  65.2864981  34.0282941
  59.7730970  66.1128426  34.3369794  60.1488066  64.8060608  33.6720395
  22.1907449  55.6582880   2.1271762  22.5205851  56.2020016   1.4117655
  21.2409663  55.6562948   2.0082240  32.8580689  17.3100376  50.9156132
  32.5065112  17.1234822  50.0450754  32.0974422  17.2678423  51.4951801
   7.1742183  48.9799786  29.1228819   7.5288004  49.8287678  28.8581944
   7.3298937  48.4100008  28.3698082  72.6137209  50.9958792  57.7161169
  73.5447073  51.2077427  57.6481819  72.1673346  51.8315506  57.5796461
  64.4528580  60.2830267  14.4596100  64.2755985  61.1103725  14.0120506
  64.9971485  60.5274391  15.2081037  45.9851646  12.1115565  40.5387020
  45.7552719  11.4233899  39.9143553  45.9714222  11.6760564  41.3909817
  75.3433228  63.4081697  29.6267223  75.3608513  63.2404804  28.6844897
  74.4355392  63.2443428  29.8823047  60.7026577  47.9510546   4.1817841
  60.9401608  48.8742828   4.2682019  59.7926950  47.9092979   4.4758156
  37.6794887  21.8846965  55.8678341  37.9178572  22.8106880  55.8236361
  36.7570853  21.8867636  56.1235619   4.1204485  69.4388199  34.2213058
   4.9728128  69.1359091  33.9083290   4.3286151  70.1111984  34.8700023
  28.0421448  13.5653281  54.1461039  28.5310650  13.2563078  54.9087906
  28.4077215  14.4305360  53.9617109  48.3268309   3.0372137  57.5158405
  48.1993866   3.9001811  57.9098940  47.5390768   2.5473917  57.7519703
  27.8445029   4.5171094  52.1069956  28.5111833   5.0239384  52.5705576
  27.5750446   5.0817829  51.3825846   7.2430903  64.5031977  44.2473125
   6.9462156  64.3417645  43.3517504   6.4863777  64.8947191  44.6835804
  14.2129672  56.3445807   1.8726601  14.8621619  56.7317438   1.2853952
  14.7196102  56.0520697   2.6302758  56.7216539  14.4954860  64.0981531
  57.6727152  14.4549870  63.9977932  56.3827276  13.9434075  63.3934736
   7.6225197  52.8672695   6.5684843   7.6111472  53.0424786   7.5094438
   7.2719836  51.9804192   6.4857352  68.7479925  71.0355043  13.4161747
  68.7701035  70.2575159  13.9733791  67.8177881  71.2466955  13.3365095
  75.2898121   0.6410050  44.2966175  75.7262421   0.0135142  43.7204075
  74.4571400   0.2239914  44.5179462  29.1322756  49.9006510   8.9532882
  29.5275497  49.0404224   8.8118976  28.8590741  49.8908520   9.8706198
   3.3702597  47.3691797  38.0519032   3.8867629  46.8037701  38.6261606
   2.7191460  46.7850685  37.6631927  40.6923437  55.5140209   1.4350623
  41.0911608  54.6773148   1.1961132  39.8882270  55.2733421   1.8951727
  39.7311401  34.9856424  59.9895287  38.8825798  35.2920508  59.6697044
  40.3718519  35.4461980  59.4476700  41.0860157  69.4762135  14.7591746
  41.8544531  69.9891806  14.5089841  40.3452158  70.0607634  14.5987058
  20.8020544   7.3697931  62.9230642  20.2738690   6.6868937  62.5096655
  20.7344890   7.1900922  63.8608122  35.0884199  19.8201561  10.7430506
  35.8984613  19.6085036  10.2790809  34.9601912  20.7557249  10.5865204
  41.2546110  17.5887334   2.7532807  41.4218378  17.6182377   1.8112631
  41.1128521  18.5026324   3.0001107  66.3887548  28.1001997  47.4931669
  66.3597631  27.4931097  48.2326460  66.1698246  27.5618505  46.7325830
  56.0705042   4.3685669  38.8507295  56.0204744   3.4234020  38.7079287
  55.7582378   4.7515175  38.0309296  69.0501308  62.6457214  54.4445801
  68.5561275  63.1848335  55.0622797  68.4736538  62.5625467  53.6849833
   2.1277280  27.8609943   1.9064014   2.1292055  26.9038248   1.9138430
   3.0534956  28.1016660   1.8708612  36.9903081  53.6831705   0.7548376
  37.4855655  53.0163328   0.2791496  36.3794451  54.0351479   0.1073881
  49.9618196  56.1486340   1.5787375  50.3798151  55.7110405   2.3203743
  49.0439367  56.2331009   1.8367781  63.0998898  59.8827457  53.2281637
  63.5196829  59.0812588  52.9157019  63.5854435  60.5891657  52.8022099
  36.1170125  25.5293751   3.0441713  35.8403802  24.6975803   3.4286481
  36.4591360  26.0327125   3.7829787  46.2788820  46.3172960   4.8323679
  47.1999216  46.0584831   4.8017502  45.8618164  45.6538630   5.3820449
   7.0804429  50.0695610  55.6316423   6.3204837  50.5444145  55.2951717
   6.7292559  49.2253208  55.9147596  73.2881355  20.8386588  39.0196252
  73.7954140  20.3653240  38.3601928  73.0154991  21.6438270  38.5796189
  36.5817904  67.9487038  54.5865536  36.6600251  68.7973022  54.1506720
  37.0221972  67.3356247  53.9979887  33.5277820  43.5299730   9.3821150
  32.7842903  42.9311275   9.3125784  33.8405347  43.4202433  10.2801001
   5.8795023  63.7233448  48.8611937   6.6261321  63.3977175  48.3584595
   5.4132545  64.2970657  48.2531738   6.6622223  48.4484850  63.9978150
   5.9172453  47.8739344  63.8213778   7.3998226  48.0263840  63.5573475
  20.6210279  69.8669434  41.2056589  21.2373757  70.3824377  41.7258692
  19.7626221  70.0780296  41.5728283  23.0777574   9.2283481  32.2965121
  23.6080909  10.0248933  32.3187542  22.1803474   9.5412028  32.1824479
  32.2666836  22.3112988  63.6581755  31.7712164  21.4928055  63.6866808
  31.6414475  22.9796457  63.9385748   5.5841392  56.7497349  16.8120515
   6.2779468  56.9488049  17.4407268   5.9770465  56.1125326  16.2155378
  73.2954836  65.3380108   8.6491549  73.8386679  64.8915482   9.2986530
  72.8885746  66.0578680   9.1313052  78.3377075  12.0414424   9.0607011
  77.6243401  11.8445694   9.6678090  78.4506464  11.2367260   8.5548282
  56.9788647  63.4895468  47.1151590  57.7436352  63.7780714  46.6170549
  57.3441458  63.0070448  47.8567743  50.5156851  27.8880930  42.2725010
  50.5193090  27.8413057  43.2285500  51.4414454  27.9117918  42.0303488
  40.9874249   3.0930334  38.2064629  40.4622078   3.8624397  38.4264469
  40.4863214   2.3542380  38.5518718  38.3523917   1.7493443  48.7362862
  38.9585233   1.8483894  48.0021000  37.4866271   1.8889204  48.3526182
  67.9114199  71.9268131  63.5357618  67.4862766  71.0780716  63.4127712
  67.1927786  72.5289583  63.7286520  16.9495261  33.0147696  53.5926342
  17.6258230  33.5547137  54.0016794  16.1596990  33.5545111  53.6255598
  12.5322092  13.1047344  30.5287218  13.3872676  13.4812868  30.7368493
  12.7222872  12.4168527  29.8908186  46.7443419  48.9581299   6.6488266
  46.3364458  48.1199455   6.4313465  47.5891972  48.9371252   6.1993712
  66.5434885  52.1756172  49.6365976  67.4795485  52.2404051  49.4473219
  66.2660742  51.3701344  49.2001629  58.6820412  54.6118593   1.6321623
  59.1677761  54.4335938   0.8268581  58.3402920  55.4981995   1.5145126
  30.6061792  11.6639996  32.0071197  30.1446509  12.3342991  32.5110269
  31.5322042  11.8851364  32.1061397  30.8638835  19.4064629  43.0785465
  31.3165474  19.5060110  42.2410393  30.0170970  19.8323870  42.9452372
  72.8740168  22.1672082  25.0278449  72.1835423  22.2669792  24.3724632
  73.4894419  21.5481853  24.6350455  70.8234692  15.3489029   2.4447861
  70.3010178  15.4603195   3.2390523  70.9012365  14.4006038   2.3403198
   1.7871530  74.2973050  41.7120790   1.1583526  74.9340699  41.3724136
   1.6036732  73.4951976  41.2230062  38.7174804  73.4285710   9.7092849
  38.7237031  72.6815036   9.1108847  37.9199893  73.3147085  10.2262676
  41.5813446  65.3599167  63.3259678  40.7588005  65.5295420  62.8667450
  41.9438696  66.2291527  63.4969378  16.4710450  38.7818646   7.4668759
  15.5257773  38.7141180   7.3323023  16.5668893  38.9768672   8.3990878
  21.2536335  30.0148153  33.5162187  21.7215800  30.8398581  33.3875179
  20.5458975  30.0378823  32.8721619  29.2492986  13.3488953  33.8983536
  29.1369820  14.1014123  34.4791603  28.5306644  12.7597618  34.1279626
  27.6745939  21.4885283  24.1794205  27.1821856  22.1802783  23.7375522
  28.2683921  21.1513257  23.5086513  54.0146875  61.6592312  22.2167277
  54.5263577  62.4058342  21.9052744  53.1063366  61.9586563  22.1783066
  29.8111534  18.1631434  63.0862188  29.4403076  18.0678916  62.2089338
  29.3271255  17.5334835  63.6205196  16.6199291  41.5476322  25.7279778
  16.5885913  42.3763704  26.2059379  16.3551128  41.7750168  24.8366880
  50.2293634  70.7925129  60.0306892  49.7163105  70.1324797  59.5644712
  49.5800495  71.3024998  60.5149841  46.9776201  41.3427401   1.3189493
  46.3770771  40.9365892   0.6939533  46.9658852  42.2727394   1.0926893
  55.9313774  28.6464167  53.8075161  55.1463890  28.9301729  54.2760229
  56.1304665  29.3700814  53.2134533  62.8693724  23.6994696  53.6674643
  62.6223087  24.1097260  54.4962502  62.0544052  23.6611223  53.1668806
   8.3212394  73.5331869  41.9711733   8.9017510  72.7864885  42.1183968
   7.5970846  73.3977318  42.5823069  51.4336443  61.6954422  39.1963029
  51.8112755  61.4242744  40.0330162  51.8375492  62.5441122  39.0150476
  26.4844227  16.3718092  40.2306366  26.7462540  16.5083015  39.3201160
  26.6842055  17.2014487  40.6642437  67.8250408  59.3908215   3.3245781
  67.2745228  60.1668406   3.2198712  67.2275019  58.7145472   3.6436850
   5.5139321  52.4413538  44.4001436   6.4022523  52.6002264  44.7193241
   5.6329119  51.8977547  43.6213112  20.8260965  16.0425174  15.6034899
  20.5735064  16.7170119  14.9730253  20.0253224  15.8634293  16.0963583
  39.4991579  36.1891140   0.1534458  39.8381272  37.0606769  -0.0507835
  39.2082110  36.2523950   1.0631605   4.5308402  18.2171309  53.5183048
   4.5034176  17.3694146  53.9619875   5.3366876  18.6264431  53.8334322
   9.7995365  71.5148830  41.7176914   9.6291894  70.9057236  42.4361229
  10.4528415  71.0709095  41.1770344  53.3812809  18.7906945  60.8106756
  52.4906683  18.5503662  60.5551672  53.6594296  19.4206822  60.1458549
   5.5212963  71.4907885  61.1827803   5.1345444  71.9683743  61.9166517
   6.4400548  71.3793325  61.4271021  70.6812000  11.8077779  53.8079309
  71.4863443  11.8633199  54.3226051  70.3397036  12.7019560  53.8002062
  26.0824156  51.7688847  29.1881585  25.4473686  51.0589838  29.0933323
  26.3688755  51.7138004  30.0998259  10.4025972  24.5105577  11.3221848
   9.5145679  24.2470074  11.5633798  10.6724799  23.8693786  10.6647027
  58.7295771  69.7959805   9.7532719  59.5095587  69.8278236   9.1993338
  58.6370993  68.8715696   9.9837935  33.7544560  21.3534260  34.2716193
  34.3215895  21.4034653  33.5021472  34.3580294  21.2554908  35.0080562
  44.3217468  16.3121843  50.7499218  43.7185192  16.8741441  51.2362814
  44.1902494  15.4404235  51.1227083  15.7515967   6.2083751  47.5040245
  16.6223371   6.2518412  47.8991842  15.2130115   5.7649428  48.1594038
  57.8628445  67.6050234  41.2211752  58.6588669  68.1035328  41.0366106
  57.7277517  67.0710135  40.4383469  42.3809910  50.3887129  12.1418834
  43.1718302  49.8527861  12.2017348  42.3096561  50.8070517  12.9998684
  41.1843777   6.8084329  57.9121590  41.7976999   6.3386065  58.4772539
  40.5348921   7.1722513  58.5138559  32.0691490  17.9370487  20.0854659
  31.4477301  17.2216475  20.2206469  31.5202117  18.7005615  19.9067259
  18.2627010  11.3254452  48.5855913  17.9145169  11.1996901  49.4683075
  18.3557105  12.2740531  48.4977007   8.9221144  17.1063256  50.3018951
   8.6556321  17.0041990  51.2155676   9.8627704  16.9291687  50.3055239
  70.7759421   0.1524183   2.4202572  70.5776589   0.7632229   3.1300664
  71.1064570  -0.6295279   2.8624767  23.6165237  11.8567955  50.4223299
  23.6240172  11.1324298  51.0480022  22.9181695  11.6342986  49.8066759
  34.4893169  29.9831820  15.6404829  35.1460409  30.3212047  15.0316441
  33.6692286  30.3871131  15.3567100  71.1341476  25.8268666  62.8217649
  71.5623713  25.3010559  62.1462011  71.1787367  26.7240310  62.4911022
  10.1508093  54.2354870  25.1062179   9.5257634  54.6594572  25.6942654
  10.9968388  54.3372631  25.5422306  64.2748451  24.0285540  42.1571255
  64.5501709  23.4662437  41.4330864  63.3549166  24.2203641  41.9749880
   5.5304933  59.4238997  50.6043816   6.0487205  60.2239895  50.6911755
   6.1423045  58.7797308  50.2480650  58.7580109  70.7710695   3.3019057
  58.9736891  69.8558950   3.1225312  58.9659214  71.2300873   2.4880831
  76.8827820  67.5886059  53.6013365  77.8006363  67.3186350  53.5714245
  76.9154406  68.5444212  53.6411762  60.0228453  44.5209932   5.3147030
  60.2736139  44.1964293   6.1795735  60.8501005  44.7727871   4.9042463
  30.8919787   3.0364078  62.4311972  30.9092879   2.1880034  62.8740788
  31.7669487   3.3980611  62.5721455  50.1939821  31.4657545  56.8289471
  50.5937529  32.3288608  56.7218924  49.3151236  31.5616846  56.4620161
  17.5861883  13.3622563  32.8864217  16.9461942  13.2388759  33.5874319
  18.0838335  14.1362965  33.1499410  11.4271069  17.1132541  61.1604977
  11.3960183  16.6471159  60.3250456  12.3561049  17.1309841  61.3904476
  26.9420981  66.9070578  10.1613939  26.6661525  67.2466373  11.0127282
  27.8968263  66.8672323  10.2174437  55.7899857  66.7955828  36.5869784
  55.7524395  66.3653278  35.7327533  55.0409460  66.4417315  37.0665169
  34.8406076  26.5857053  34.9315810  34.7568226  27.5354743  34.8470140
  34.2033386  26.3480711  35.6051159  78.4204483  17.0533657   8.7750298
  77.5200939  16.9713986   9.0894759  78.7431479  16.1530805   8.7352437
  10.3679860  52.8987837  46.9103670  10.8611667  53.5125303  46.3660097
  10.9221244  52.7613974  47.6786661  66.8056011  64.5958185  20.3402448
  66.2412739  64.5732117  21.1130691  67.6322937  64.2146683  20.6361055
  62.6630068  31.0867500  31.7382050  63.0557060  31.9232965  31.9876242
  63.2095718  30.7706118  31.0187936  75.6012440  22.2053170  42.6233292
  75.6580734  21.3129139  42.9648256  76.4966679  22.5394654  42.6761770
   9.8102659  10.4458416  47.1865177  10.0489235  11.0327649  47.9040098
  10.4125655   9.7067297  47.2712517  42.3374605  50.4059839   4.5064500
  42.1680737  51.2233162   4.0379319  43.0923700  50.6003571   5.0619340
  78.4370260  61.0845613  34.9468255  79.1385737  61.0348415  34.2975259
  77.7634912  60.4893303  34.6177602  49.2637682   1.2342619  53.0911541
  49.4952011   0.3598420  52.7780056  49.3519354   1.1790213  54.0426826
  32.7249742  13.8775945  20.0164652  33.4374452  14.4479597  20.3050804
  32.6976800  13.1789362  20.6701946  52.2590256  10.4724765  54.4235134
  51.6425133   9.8225415  54.7607517  51.7750359  11.2978864  54.4496536
  45.2955484   1.2414461  50.5659914  44.9429798   0.3515834  50.5744314
  45.2884388   1.4931363  49.6425009  52.3234510  65.6497097  46.4061022
  52.8394318  64.8749495  46.1830807  52.3522568  65.6896353  47.3620367
  42.8198814  23.3243799  53.5137844  42.0615244  23.3352327  52.9298210
  43.3875561  22.6415110  53.1564856  22.9937077  15.1991582  42.4565601
  22.4108195  15.9504461  42.3468351  23.0933762  15.1097512  43.4043503
  32.5914478  36.9246173  25.1194954  31.8644476  37.5457025  25.1636744
  33.3071327  37.3602962  25.5823255  74.8764038  35.7569003  23.2174420
  75.7990742  35.5309391  23.3351469  74.8767853  36.4071679  22.5150323
  74.5954418  24.1881561  13.1832826  74.8602343  24.2186832  14.1026223
  74.6484947  23.2614875  12.9493964  72.1046162  72.7020168  54.6859455
  72.9783583  72.6585960  54.2974567  72.0793343  71.9691086  55.3011227
  68.6260843   6.1081672  30.9411263  68.4151888   6.5520787  30.1197267
  67.9314184   6.3753915  31.5430069  10.5153954  42.3517561   7.9687017
  11.4136374  42.1977139   8.2613879  10.6082928  42.8957367   7.1865976
  15.8961487  22.7863193  62.1830273  15.1795626  22.1883082  61.9706154
  15.9969985  23.3270907  61.3996840  60.3656054  54.8287010  37.4896383
  59.8284578  54.2295313  38.0080009  61.2623405  54.5204115  37.6202488
  67.6389456  35.2977467  22.5701928  67.5533867  34.3448997  22.6017570
  67.0378876  35.6146574  23.2443786  20.7678628   3.6040649  51.8143082
  19.9166560   3.4079999  51.4228535  20.7625437   3.1329289  52.6475143
  25.1201534  33.2453966  24.8579502  24.4017243  32.6179624  24.7778368
  25.8394575  32.7389860  25.2352905  53.3901834  55.5517673  50.8087111
  53.4536266  55.6530333  49.8589993  54.1215611  54.9783373  51.0378265
  18.4313095   6.7664814  30.3035426  18.2924688   7.3410916  31.0563874
  19.2191589   7.1099448  29.8821640  18.5131121   8.3003604  57.6498842
  19.1640723   8.0485117  56.9948626  18.0861282   7.4784672  57.8915596
  31.3979626   8.7374920  46.9402552  30.8696389   8.3936888  47.6606083
  31.4128423   9.6836472  47.0844793   1.5135668  30.5460620  19.0759742
   2.1852298  29.8757076  19.2013824   1.6463535  31.1567450  19.8010027
  26.1648226  27.9426360  21.6380906  26.3683772  28.8768268  21.5924716
  27.0122218  27.5193000  21.7756796  47.4884033  21.8555284  10.8841097
  46.5994167  22.1855974  11.0144496  47.3799801  21.0937762  10.3147149
  60.2923441  24.6912289  38.0319238  59.4981718  25.1702905  38.2686090
  60.3042078  23.9395785  38.6244702   5.3418320  63.8959408  38.1705403
   4.5207149  63.5229349  38.4912682   6.0196418  63.3139420  38.5141706
  62.6169968  40.3307438  33.6905432  61.9283772  39.6867824  33.8559175
  62.6775169  40.8310318  34.5043492  67.3162937  28.7364960  26.6455245
  68.1049395  28.6951852  27.1864152  66.6282415  29.0218639  27.2466755
   7.0192546  46.2028265  49.4624615   7.1434557  45.9392548  48.5506868
   6.2681997  46.7958307  49.4401789  37.2147465  36.0633874  59.5332718
  37.6815438  36.8078709  59.1536951  36.8662453  36.3957286  60.3605127
  56.1313343  31.7986917  42.6532125  57.0462465  32.0463467  42.7867794
  56.1135340  30.8544874  42.8093958  32.5243855  24.0846348  33.9805555
  32.3050046  23.4318137  33.3157778  32.0421839  24.8678470  33.7154293
  23.3787203   3.7695268  57.5543499  24.3016124   3.9561242  57.3820639
  23.1455374   3.1002021  56.9110250  41.0882807  61.0136700  29.6495390
  41.3504457  61.3923836  28.8104463  40.6838846  61.7398977  30.1241851
  74.3943551  73.2857038  59.4249821  74.9336984  73.3394969  60.2139330
  74.9185899  73.7119475  58.7469482  16.2807757  73.1463551  51.9641161
  16.9946773  73.1891912  52.6003122  16.1271817  74.0576494  51.7147493
  34.1061044  49.7072649   3.6770970  34.2896605  50.5263376   4.1371644
  33.8152862  49.1069412   4.3635842  52.6449347  12.3092592  30.3325105
  52.9367733  12.0100093  29.4713974  52.9567814  11.6367924  30.9381270
  18.5437858  12.1441412  30.5115294  17.7382827  11.6280901  30.5445242
  18.5053730  12.6982009  31.2911296  57.9976273  65.0983429   6.0236722
  57.8104973  66.0006666   6.2825674  57.3648739  64.5726299   6.5130407
  23.5883498  38.7640071  29.1345549  23.0423236  38.4914923  28.3971119
  23.7956715  39.6807146  28.9531755   8.0665147   4.7653869  32.5269771
   7.7027899   5.3123093  31.8306923   8.8947117   5.1875585  32.7552176
   0.7254495  49.2130947  42.2769213  -0.1946239  49.0811396  42.0482635
   1.1608960  48.4101343  41.9907951  28.2751727  12.7530968  51.4202166
  28.1275272  13.1969249  52.2553492  28.3569622  11.8279481  51.6518211
  11.6038454   9.4337869  54.8893070  10.7265425   9.7509980  54.6749496
  12.0230699  10.1707268  55.3336096  71.4459944  72.7115011  44.8249435
  71.1947536  71.7956734  44.9448347  72.0689344  72.6958227  44.0983534
  76.5087652  38.6702394   5.1472110  77.0473719  39.0517306   5.8404654
  77.0065546  37.9091454   4.8485881  14.2146719  18.1988049  37.9305601
  13.2736635  18.0258226  37.9590511  14.4944227  17.8621197  37.0793176
  71.3635015  71.2341642  22.2168875  72.2206497  71.6323566  22.3684502
  71.0686827  71.6089439  21.3869143  64.5102232   0.9809181  37.8571916
  63.8973921   0.3023216  38.1403422  63.9665835   1.7595169  37.7368927
  46.5920019  21.1068463  54.2698002  46.9554901  21.7306995  53.6413765
  45.6907272  20.9702969  53.9777613  35.3157258  24.2273283  33.0874205
  34.4690776  23.8697720  33.3549476  35.3295755  25.1109290  33.4552383
  71.1019421  32.5124049  53.9758587  71.3985634  32.9781199  54.7577524
  71.4042330  33.0529404  53.2460117  54.6087074  62.1875381   4.9862832
  53.7541866  61.7574024   5.0180846  54.5907593  62.8099394   5.7132804
  27.3736262   0.7874931  28.2960629  26.9969463   1.6068068  28.6171079
  26.6163540   0.2540975  28.0546904  17.4315619  53.3488226   5.5993187
  17.6626444  54.2430687   5.8506215  18.2415366  52.9830456   5.2438182
   2.6672301  24.7698236  31.8830776   2.4549544  24.2226458  32.6392293
   3.2919487  24.2490125  31.3783860   6.6504812  39.1271186  14.1520500
   7.4538010  39.0763807  13.6340404   6.1618024  39.8538208  13.7656176
  27.1140814  17.0996583  26.8078017  27.0602202  17.8809822  26.2574697
  27.9830170  17.1469510  27.2064853  25.9332824   8.1018597  56.2354183
  25.7400632   7.8330344  57.1335459  26.0028148   7.2802830  55.7492018
  19.2249906  59.3026066   8.8724828  18.8463843  59.1646338   9.7407299
  20.1556444  59.1081190   8.9833480  10.3351331  22.0664692  62.2736549
  11.1242557  22.3125434  62.7563238  10.6375873  21.4241409  61.6316509
  22.2107983   6.2497574  57.9571486  22.0173812   6.7905849  57.1914291
  22.6118112   5.4588878  57.5966692  71.7418718  61.1910152  46.7720222
  71.6431189  62.0745897  47.1266747  72.2922373  60.7369423  47.4101019
  36.0887313  23.5706758  37.6258445  36.5643430  24.1462207  37.0268655
  35.1707935  23.8203573  37.5196314  11.3462067   4.4055140  51.7057562
  11.8559301   4.7475162  52.4402285  11.2095392   5.1624382  51.1360025
  57.0279837  39.5996666  19.8323572  56.6036510  39.0478420  20.4893708
  56.5561199  40.4312754  19.8771286  70.2884912  62.0463228   9.6765906
  70.5974436  62.3395300  10.5338001  69.6658754  61.3463116   9.8729807
   6.1148889  72.7834809  32.5093365   5.4438002  72.1367636  32.2910976
   6.3856322  72.5568050  33.3990264  62.0422935  16.5428805  60.8737183
  62.5565290  16.8278539  60.1183462  61.1497736  16.4592707  60.5380774
  52.5046873  11.9768000  57.7974796  51.9171429  11.8465149  58.5418224
  52.2051716  12.7923870  57.3958063  39.9155688  66.9749641   6.4522481
  39.1605330  67.0690060   7.0330298  40.5546474  66.4831781   6.9679552
  40.4679298  10.5578566  54.4672251  39.9122524  10.2869272  55.1980162
  40.8354759  11.3971746  54.7441483  31.4055077  38.0594395  62.8606882
  31.5150866  38.5563918  63.6714056  32.2939727  37.9602873  62.5185909
   1.3180104  12.2596943  57.2031927   0.8524831  12.7818930  57.8565121
   1.3154083  11.3715982  57.5602818  50.7865477  71.4717627  52.0565653
  50.1638508  71.5398359  51.3327885  50.2489996  71.5577793  52.8438854
  33.6709499  16.4815009  34.6096826  34.3454432  16.2498975  33.9712095
  33.8800406  17.3804200  34.8635674  26.5736628  16.2747788  15.0859809
  26.8118548  15.6542075  15.7747376  26.9779110  17.0992780  15.3561938
  58.5530996  71.1121655  17.1964490  58.6221504  72.0386791  16.9661427
  58.4476328  71.1090660  18.1478155  73.4250736  41.3085413  28.4210134
  73.8328123  40.4489040  28.5259414  74.1605473  41.9204378  28.3911800
  57.9744482   3.5531217  28.1567907  57.0232868   3.6077952  28.2491517
  58.1088400   3.1326169  27.3074698  30.8890390   1.0346223  55.0750494
  31.4615488   0.2972071  55.2864313  30.0320578   0.7777410  55.4153872
  49.7740316  21.6508436  57.0158052  50.5069733  21.8417621  57.6011086
  50.1680422  21.6086245  56.1444807  38.1934690   6.2002683  54.4672918
  38.5962105   6.3307339  53.6087990  38.3575177   5.2795804  54.6713877
  60.6958771  67.5616169  35.1232195  60.1507950  68.2502937  34.7426414
  61.5465117  67.6664543  34.6970057   0.1518533  49.6924019   3.0674803
   1.0361314  49.4411564   2.8007230  -0.4147140  49.0289927   2.6736268
  19.5884836  23.1438231  28.8866091  19.3436801  23.7744522  28.2094026
  20.3948045  22.7436996  28.5610676  78.8124657  54.2617989  18.3895969
  78.8553238  53.6566401  17.6492083  78.1942511  53.8545132  18.9963579
  22.9746389   5.2335411  15.2637851  23.3416390   5.8610910  14.6411097
  22.3931003   4.6854666  14.7368515  42.6262140  44.3549681  53.7938452
  42.4809361  44.4121027  54.7382307  41.9914722  43.7048197  53.4927750
  56.7502451  58.7248421   3.6562333  55.9194613  58.3197117   3.9050266
  56.5008879  59.5629311   3.2667905  13.3092582  15.0653911  59.6893167
  13.7683403  15.7443833  59.1949034  13.6021197  15.1873326  60.5924177
  35.2211547  14.9261701  20.7395768  35.8143520  14.2754817  20.3641391
  35.4200482  14.9196017  21.6758633  40.6671906  37.5009465  61.8353081
  41.4767504  37.6861715  61.3593483  40.9262133  36.8795156  62.5157213
  32.5617552  17.9569089  57.3437262  31.7217731  17.8447390  57.7887869
  32.7748680  18.8822949  57.4640465  51.8702078  25.6050968  40.5444717
  52.1622992  24.7492003  40.2308464  52.6466322  26.1612773  40.4807425
  78.2263489  28.4787822  19.7804272  78.3783996  29.4211817  19.8511255
  77.4906446  28.3100510  20.3690720   1.6397220  19.2725611  11.9718301
   1.3305467  20.0465894  11.5011692   2.0470905  18.7290025  11.2974226
  62.3319674  42.0983505  38.2517242  62.6163864  41.8813944  37.3638797
  62.1616411  43.0399036  38.2253027  21.0785651   5.0176877   1.4650342
  21.3858533   5.0401437   0.5587765  20.7053995   5.8866417   1.6130114
  29.2086744   8.9754856  41.9915867  29.7866917   8.2730198  42.2893620
  28.8269377   9.3284315  42.7952909  57.1496868  37.4260211  56.5826797
  57.6301813  37.2094297  57.3817062  56.7424393  36.6014767  56.3171434
  47.9168558  12.8099859  46.3625526  48.2873678  12.2181702  47.0173120
  46.9706631  12.6841748  46.4341164  11.7124426  41.8730545  50.7206488
  12.2786474  41.3586998  51.2960482  12.0502269  42.7661276  50.7881451
  13.3700335   6.7011940   6.2763911  14.1113806   7.2974187   6.3819975
  12.6829994   7.2403383   5.8845496  19.9861574   2.7253997  61.7713547
  20.8006001   3.0701920  61.4052534  19.8823106   1.8678683  61.3589382
  30.9732556  46.0942125  60.9477234  30.5784678  46.8097782  60.4493809
  30.2831936  45.8108044  61.5474939  33.6255026  23.5399985  36.2503672
  33.3567405  23.3913374  35.3437805  33.3383060  24.4327617  36.4419961
  19.9877977  72.0742655  24.4619703  20.0264359  71.9451809  25.4096389
  20.0504708  71.1914921  24.0972519  20.8006597   4.0986031  13.0557930
  20.1058531   3.4419245  13.1032312  21.2848330   3.8779584  12.2601020
  28.4625769   6.0369933  58.1663847  28.3718705   6.4223421  57.2948885
  29.3536377   5.6877261  58.1822729  74.1006851  40.8542490  41.7933321
  73.7173700  39.9795294  41.8578672  75.0080109  40.7395887  42.0759010
   6.1834365  67.6097345  35.4044175   6.9002867  67.1289921  35.8182383
   6.4387381  68.5294342  35.4765797  65.2319431  69.9457598  15.9987736
  64.7656107  69.1201210  15.8680475  64.5625877  70.6199789  15.8820760
  47.7317715  33.4163141  59.2073584  47.9685116  32.4890924  59.1863060
  46.7751741  33.4185553  59.2413139  73.5030127  15.9982157  50.1509857
  74.3111324  16.0090339  49.6380949  73.2623482  16.9205475  50.2382374
  59.3894958  28.1828856  57.3366737  59.0305519  28.8722110  56.7779064
  60.3318834  28.3502340  57.3480415  41.6217089  37.5835586  52.9654217
  41.1926556  38.3865023  52.6697493  41.3624954  36.9229698  52.3230362
  66.7061949  21.5251255  45.0644445  66.3225651  22.3456383  44.7548914
  67.6482010  21.6937804  45.0846815  73.5769606  29.6136189   3.3126777
  74.4222546  30.0493932   3.4213534  72.9469919  30.3297162   3.2315993
  59.2383718  66.7247438  21.2537289  58.8538885  65.8611870  21.4043260
  58.5225725  67.2453737  20.8893013  62.2642851  41.9010830  55.9446049
  62.0570040  42.3229933  55.1107836  61.9664383  40.9978390  55.8365583
  58.2025290  72.2719955  44.2946672  57.4710035  71.7989826  44.6913576
  57.9429817  73.1924248  44.3356323  49.0086460  24.9173951  54.4327784
  49.8826265  24.6155596  54.1852188  48.4171820  24.4445968  53.8472319
  56.7517900  30.8939505  52.5284147  57.2411823  31.6351938  52.8851843
  57.1976805  30.6853890  51.7074919  27.3975730  43.5672474   6.9400382
  26.4471769  43.4611034   6.8986344  27.5507855  44.0350866   7.7609432
  40.4073811  40.6885052  40.6725979  40.7212162  41.2540054  41.3782454
  39.5695019  40.3518295  40.9901524  44.9914360  40.2349091  44.9021912
  44.9303246  39.7480488  44.0803289  44.5330143  39.6873641  45.5395889
  12.2018576  65.5700207   5.4873443  11.4352226  65.9774208   5.0841975
  12.9441285  66.0740566   5.1538515  54.2455339  38.7114000  63.2095480
  55.1257801  38.3713460  63.0490494  54.0884686  38.5406995  64.1382170
  34.8547125  38.6383557  59.8883963  33.9991665  38.3007216  59.6233034
  35.2122974  39.0349913  59.0940142  14.6466446  71.6354275  50.4649353
  14.4327164  72.2916412  49.8017216  15.0046563  72.1405602  51.1949348
  47.6925135  48.1019735  59.6137333  47.9039431  47.6253414  60.4164505
  46.7421627  48.0227232  59.5313835  43.9596272  36.3266015  59.3739271
  43.1650686  36.1557984  58.8682318  44.6534681  35.8814216  58.8874769
  11.6411877  66.1009216  49.3036413  10.9133387  66.2488174  48.6998224
  12.3473132  65.7670021  48.7503672  76.5003061  45.4126501  47.8867817
  76.0996628  46.2151098  47.5524616  75.8306694  44.7403049  47.7611971
  18.8279068  29.2796421   9.6054012  18.8044643  28.5452628  10.2188921
  18.2179439  29.0310788   8.9108545  14.4253671  22.0577240   7.0649266
  15.2538776  22.3311901   6.6712028  13.8498676  22.8157330   6.9626820
  61.6052151  49.3612003  33.1583738  61.1445475  48.9568377  32.4231815
  62.5315428  49.2938709  32.9268122  67.4270439  41.2200069  63.4272480
  67.7749062  41.4267683  62.5597954  66.6132307  40.7473421  63.2525206
  59.1194439  28.2569671   2.8445628  58.3558989  28.7516475   2.5470322
  59.5211363  27.9294991   2.0398021  64.1643238   4.5014742  33.5193253
  63.3379269   4.7503996  33.9332533  64.0488768   3.5794890  33.2894373
  47.6323795  64.5684528  28.9372969  47.4140453  65.4576349  29.2164350
  46.8265438  64.2371845  28.5409141  54.2836380  61.8157625  52.7085400
  54.5042276  62.2866917  51.9049263  54.0522051  62.5031805  53.3331394
  64.9998045  53.2322121  47.1086788  65.4128838  52.8421354  47.8790236
  65.5801535  53.9533710  46.8650389   8.4836513  23.4573627  48.6188698
   7.8287488  24.1363764  48.4567785   9.0539575  23.4863973  47.8506660
  55.5551100  42.6491594  55.1299191  55.7639170  43.0880594  55.9545374
  55.5359650  41.7183208  55.3521776  14.7650802   1.2076852  10.5943036
  14.5402896   1.9286263  10.0061321  15.6676769   0.9850795  10.3662753
   2.7241072  35.0104833  11.1149871   3.2303450  35.1473117  10.3142166
   1.8124741  35.1163602  10.8430552  44.8537111  33.0725145   6.6242611
  44.1130495  33.6745238   6.5519124  45.2712965  33.3051157   7.4535698
  43.2851362  31.0710502  58.2670879  42.4908829  31.5427899  58.0163908
  42.9681396  30.2429843  58.6277151  54.9025440  61.6577482  28.6176348
  54.4795418  61.1012220  29.2715359  54.8800182  62.5352716  28.9993072
  24.6594167  23.3941317   7.0840168  25.3233576  23.9875841   6.7329776
  25.1586175  22.7328038   7.5632614  26.4278507  73.1751537  45.4367828
  26.6434360  73.6659908  44.6437883  27.2592640  73.0993843  45.9050179
  65.9461451   2.9833320  39.5114231  66.8043089   2.8857410  39.9240541
  65.3601933   2.4497320  40.0482321  11.3574672  14.6617270   4.7248709
  10.9405088  15.4876828   4.4795629  11.4506817  14.7137284   5.6761014
  75.2250051   1.2805384  46.9087172  75.4824972   1.1200184  46.0008860
  75.8311892   1.9555749  47.2138309  25.9016562  43.9004517  22.9309535
  26.6627979  43.9825869  22.3563695  25.9435916  43.0014706  23.2570004
  77.5474853  15.3589320  56.3550806  78.2642564  15.8457506  56.7618704
  76.8815329  15.2963674  57.0397902  20.5265117  10.1575077  31.3224268
  19.8005903   9.5445132  31.4386487  20.1042867  11.0056579  31.1860442
  63.2432461  25.2547932  24.7089672  63.9829397  24.6996999  24.9558544
  63.6195278  25.9057784  24.1166329  25.7532454  21.0810685  21.1210871
  26.3642836  21.6826224  20.6956482  26.2998748  20.3520370  21.4142442
  55.4309130  73.3556128  50.1285648  56.0751486  72.9188061  49.5714426
  54.6600056  73.4557867  49.5700836  52.0419359  -0.1420060  12.6777124
  52.8345442   0.0539116  12.1780944  52.2103596   0.2223812  13.5466695
  27.3426805   0.9873554  47.5156021  27.9743856   1.1673233  48.2118750
  26.7222554   0.3730842  47.9079962  63.6692875   1.3290617  58.9893198
  62.8946584   1.1898491  59.5341110  64.4055574   1.1025402  59.5574999
  38.7383103  12.5577784   2.3705739  38.3394718  13.3823407   2.6485258
  39.6403480  12.6095164   2.6866171  44.8102331  66.0477304  29.3334460
  44.0356970  65.7999086  29.8383307  45.3548288  66.5331841  29.9531078
  31.5976167  70.0298738  58.9711571  30.6942821  69.7868776  59.1740704
  31.6396236  70.0187063  58.0149460   7.8230244  52.2477484   3.1174424
   8.3265823  52.6126385   2.3897624   7.8445232  52.9293442   3.7891558
  31.9466567  10.1541233   5.7009286  32.4338031   9.7986245   6.4442605
  31.1304927   9.6541739   5.6882811  56.0715294   2.6953608  51.9711637
  55.2544260   3.1475344  52.1811914  56.7363644   3.3838844  51.9837761
   9.9974364   6.2596440  48.4457207   9.9783778   6.4205259  49.3891144
  10.7954764   6.6941196  48.1447315  50.9957695  23.5451531  43.6096096
  51.5672445  24.1563940  43.1448126  51.5157843  22.7456355  43.6907959
  74.0945482  51.4257431   3.2434744  73.5818958  51.4679861   2.4362367
  75.0054216  51.4328384   2.9493806   1.4746928   0.9756000  54.9950647
   2.1331729   1.3899493  54.4374371   0.6385748   1.2057947  54.5899105
  38.6292338  64.0754461  59.5598507  38.6535430  64.1592598  58.6066341
  38.5367441  63.1355000  59.7153568  76.9005108  32.0907664  23.4480739
  77.7663183  31.7719936  23.7030125  76.8907118  33.0063844  23.7269592
  61.7752361  42.3227072  62.2228432  61.7167902  41.8899107  63.0746078
  61.0119772  42.0054722  61.7401171  35.3883123  52.0001030   2.0506693
  34.4864726  52.2430992   1.8412219  35.9188676  52.7039671   1.6774176
  49.5739889   1.3024801  55.8177757  49.0173721   2.0096868  56.1437607
  50.0167274   0.9673703  56.5974712  59.0366697  59.0919352  58.9330721
  59.5227718  58.3095407  59.1934443  59.6236801  59.5493269  58.3310461
  42.5784874  61.3744831  47.6998520  41.6608524  61.6105509  47.5640202
  42.6846933  60.5465698  47.2313309  66.3852406  16.0920334  34.5432234
  66.6193438  15.1639724  34.5546985  65.4588699  16.1024129  34.3024659
  20.0666833  55.8838749  24.8378873  20.6831050  55.3015661  25.2819276
  20.6117821  56.4052582  24.2486024  43.0795908  72.2715473  40.1161528
  42.5059271  71.6753149  39.6348596  43.9168549  71.8103075  40.1659346
  53.7594509   4.4350898  52.6047659  53.0798435   4.0046710  53.1235218
  54.3315697   4.8457319  53.2530594  67.4438286  23.0648208  15.7926619
  66.7607784  22.4205780  15.9787321  67.8304291  22.7724051  14.9672747
  77.6720667   9.8018396  55.4418421  78.4885645  10.3009629  55.4626942
  77.5169182   9.5581871  56.3544178  25.3514147  53.8378477  16.4004195
  25.5285525  52.9510260  16.7141044  25.4907751  53.7896681  15.4546452
  56.5461636  22.3373580  64.2199659  55.8125544  22.8915310  63.9536095
  57.0178127  22.1571612  63.4067583  32.9967713  62.5274515  56.3831663
  32.3384547  63.0754185  55.9558678  32.5113106  61.7581749  56.6811085
  19.5488667  31.0718012  11.6175866  19.3328226  30.4909921  10.8880532
  19.3733823  30.5490446  12.3999965  61.7801094  31.9739437  55.0701714
  61.2115049  31.2290549  55.2652550  62.5416374  31.5872359  54.6380043
  14.4340110  68.8304186  18.9644480  14.4183695  68.5486937  18.0497813
  13.7553012  68.3052588  19.3884611  49.9050617   9.3473393   8.0723280
  49.7737122   8.6970103   7.3823631  49.4195890  10.1159179   7.7725983
  58.1079674  67.7684641  53.8959694  58.8428164  68.0232239  54.4539356
  57.3592567  67.7254391  54.4907951   5.1821661  13.1539273  11.3943899
   5.0920856  12.3175418  11.8510914   6.1250997  13.3178043  11.3785005
  11.4794970  61.0307837  37.4593186  11.9547236  61.8511343  37.3273420
  11.9920158  60.5601692  38.1166458  64.2376471  48.9721060  32.5930405
  64.3678331  49.0218973  31.6460419  64.9182510  49.5373631  32.9584146
  50.6668234  43.8584948  10.2055597  50.0027514  44.5278311  10.3705800
  50.1896811  43.0302143  10.2557182  57.3128939  52.0792532  62.5727749
  57.2864103  53.0159426  62.7680635  56.3931847  51.8219423  62.5082684
  50.1097012  72.0732212   7.4216169  49.9579430  72.5486040   8.2384479
  50.3027582  71.1774063   7.6981622  48.3798552   1.3866827   5.4948735
  47.7058125   1.9561920   5.8657593  48.2948160   0.5666924   5.9813052
  26.8816423   4.8916852  60.1027441  26.1809397   5.5376947  60.1917410
  27.5575256   5.3399438  59.5943356  19.3783519   0.5341074  50.5222082
  20.2137325   0.8535549  50.1811409  19.4335506  -0.4177883  50.4380274
  31.2741280  25.2655220   5.8755946  31.6044998  26.0144711   6.3717431
  31.8849969  25.1743913   5.1443177  21.8338776   8.3009166  22.4822378
  21.0686564   7.7290243  22.5422931  21.5235376   9.0662283  21.9982767
   7.4398339  41.1427689  59.2525864   7.0227653  41.4141321  58.4348774
   6.8135679  41.3878775  59.9337196  47.2599259  29.7250856   0.4198833
  46.7398968  30.4213108   0.0185390  47.7677813  29.3580116  -0.3037027
  28.7167978  26.1649084   5.1727432  28.4695506  25.4497075   4.5865795
  29.6127319  25.9578657   5.4385763  30.2449560  14.9651539   6.6371542
  30.5925941  15.5961764   7.2673839  30.5697632  14.1180575   6.9423765
  28.9067054  71.2758207  14.0070212  29.4098258  70.8288622  13.3263361
  29.5107770  71.9279099  14.3621421  73.6268187  -0.0314754  30.7760644
  74.2771149   0.6466626  30.5930901  73.5246897  -0.4957754  29.9452639
  44.0456820  64.7809124  61.2099981  43.4008932  65.4123020  60.8908987
  44.6624136  65.3056049  61.7204571  26.3391995  68.5115337  53.9109802
  27.2448969  68.8036823  54.0139246  26.0122347  68.4249020  54.8064232
   2.7286309   4.6729848  58.0458784   2.1082512   5.3893435  58.1807518
   2.9888183   4.4119507  58.9292765  77.1321058  61.6754436  61.7452288
  77.0518589  60.9284735  61.1520767  76.5220833  61.4825487  62.4571943
  76.7961264  44.5626593  12.9028630  77.4692059  45.2382231  12.9853761
  76.8465757  44.0727758  13.7236559  48.3158302  71.5557766  53.4632111
  47.8909111  72.1785593  52.8734541  48.2459688  70.7138443  53.0132055
  53.5625553  20.5542016  42.1250343  53.8241053  19.8121178  41.5799332
  53.4426069  21.2750220  41.5067625  31.4223766  73.1302357  40.4080009
  32.3085380  72.7932262  40.2761889  31.5145993  73.7807465  41.1041069
   0.5405752  43.7755775  56.5383530   0.4449598  44.4606209  55.8766890
  -0.3562673  43.5724688  56.8041563   1.9478825  66.5869331  46.8648052
   1.1264475  67.0453644  47.0417690   2.4608876  67.2063923  46.3458347
  58.3683586  61.7821074  35.5401063  58.8181019  60.9425068  35.4450512
  57.8011990  61.8384218  34.7710896   1.4000493  58.2932234  55.2472305
   1.9711010  58.7304640  55.8788586   0.5146201  58.5416651  55.5127907
  77.7429914  44.1092443  53.2661343  77.3398113  43.2411861  53.2787132
  77.6819372  44.3884706  52.3526049  69.5551300  54.8821688  43.9925146
  70.4786253  54.6949720  44.1608763  69.5444679  55.7947969  43.7040186
  33.0177069  34.8006511  62.0693445  33.2457542  35.5531931  61.5235424
  33.8433838  34.3308091  62.1865606  19.8528612  53.2122135  59.8902273
  19.1659570  53.5353518  60.4733038  19.6687472  53.6296892  59.0487719
  66.9076633  21.0016656   2.0480508  66.9054747  20.2128577   2.5902778
  67.7585697  21.4061475   2.2170949  52.4437523  26.7760253  52.1667004
  51.9052601  26.9423008  52.9403973  52.1608067  27.4342895  51.5319872
  27.0006824  46.3948965  24.0887570  26.9645238  46.7091084  24.9921918
  26.5625572  45.5442047  24.1133261   5.5424130  36.2478995  19.0381563
   5.8051622  37.1496582  18.8536990   5.6209326  36.1651874  19.9885380
  64.4304943  22.8907728  62.3669434  65.2583742  22.4462128  62.5492001
  64.1523361  23.2362294  63.2151890   2.5252971  72.7938557  10.6079698
   2.2575869  72.0125914  11.0918963   2.5793788  73.4804964  11.2726736
  76.1553097  40.9286594  45.6634617  75.9285641  40.6495428  46.5505409
  75.6817627  40.3228712  45.0933647   8.0358160  68.7916756  58.4780216
   8.3843803  69.5156813  58.9981651   7.6719546  69.2105532  57.6980352
  38.9138508  10.5509424  16.6187179  39.6968651  10.9390557  16.2282205
  39.2013526   9.6922201  16.9288313  38.7487197  31.5567446   4.2468888
  38.1233501  31.9194555   4.8742530  38.7232637  32.1622682   3.5059938
  56.1301231  60.6068516  45.2141571  56.9375753  61.1201572  45.2418280
  56.4206457  59.6986771  45.2981186  18.8539827  11.9777238  43.7648201
  17.9651427  11.6225314  43.7705612  19.3973613  11.2689865  44.1092968
  10.7130218  66.9860172  41.0620642  10.3122997  67.8542519  41.0193586
  10.1165819  66.4735317  41.6078234  10.8648312  58.6698771   9.4691318
  10.2896070  59.4001770   9.6971953  11.1411715  58.8539743   8.5713691
  57.7344942  64.6029806  49.7259808  58.1951380  65.3480434  49.3400717
  58.3750057  64.2044449  50.3151703  67.9085064  35.3625202  27.6708293
  67.2112179  34.9335957  27.1747971  67.4559641  36.0160828  28.2040215
  66.5409136  39.0322876  46.8167925  66.4245081  38.0896640  46.9357109
  67.4099159  39.2133737  47.1749353  69.4903040  40.8823824  41.0847235
  69.2310476  39.9772286  40.9123516  68.8515949  41.4099312  40.6051683
   7.5641346  52.7737474  30.7220292   6.6756755  52.4435616  30.8556294
   7.4571896  53.7210608  30.6360364  73.6323881  36.2614584  52.4390459
  74.4354725  35.7471895  52.3564863  73.5954952  36.5009880  53.3650589
   0.2290062  54.8600197   8.6352640   0.7211546  54.2425108   9.1762847
   0.0717882  55.6093264   9.2097688  71.9900703  25.4755735  18.7535429
  72.8582668  25.0845265  18.6557949  71.4973402  25.1569247  17.9972959
  14.7313011  32.2963548  28.1613207  13.7759459  32.2534800  28.1202292
  15.0020015  31.4041352  28.3778858   1.5242124  20.6913400  33.1249309
   2.1180090  21.0080862  32.4442625   2.0942879  20.4982710  33.8692236
  53.8911819  65.6670856  30.6318140  54.0910101  66.3421631  31.2803340
  54.3811703  65.9306812  29.8529315  69.1136026  11.1185491  27.4161077
  69.7362614  10.7992589  28.0692387  69.2653465  12.0630336  27.3821449
  53.0476284  35.4583430   9.1907465  53.3872986  34.9392438   8.4617805
  52.1403408  35.6450701   8.9495176  60.4126930  45.1782894  41.5842867
  60.7651663  44.3196821  41.3502216  59.5359945  45.1901007  41.2002420
  18.7871182   3.3691698  47.7436543  17.8677630   3.1090742  47.6856232
  19.0227163   3.2137829  48.6583042  39.5021677  13.9200628  22.7337432
  38.6085844  14.2630422  22.7235818  39.3941116  12.9693317  22.7079582
  10.8315885  25.5975771  26.9556069  11.2987161  25.9330535  27.7207732
   9.9309331  25.4796743  27.2575212  39.8241305  35.2992868   7.5932658
  39.0227652  35.5480027   7.1326309  39.9191928  34.3627286   7.4199033
  16.5855432  39.5556545   4.1747496  16.9397306  38.9209247   4.7975677
  15.6447661  39.3795514   4.1621828  39.7334695  15.6162333  50.6013155
  40.0735903  14.7217667  50.5794096  38.9794230  15.6002545  50.0119209
  46.1863375  19.1750014  52.1167850  47.1274042  19.1325557  51.9470072
  45.9606743  18.3008492  52.4348497  22.7648520  17.6581717  62.9250813
  23.6285830  17.8970742  63.2614231  22.2536874  17.4467933  63.7062693
  13.5622752  20.7320809  55.3605843  14.0256107  20.9044003  54.5409155
  12.6354074  20.7766390  55.1257181   9.0384966  12.0151126  57.5696611
   9.8648560  11.6786623  57.2230148   8.7213314  11.3215494  58.1481123
  60.1179314  68.8746738  55.5014658  59.8691368  68.5069704  56.3494778
  60.6009388  69.6720457  55.7185650  73.9186096  66.9948721  52.8963995
  73.7552309  66.3652945  53.5986567  74.8372030  67.2412920  53.0045652
   4.1506472  41.9203424  17.8418159   3.2354054  41.6445160  17.8916562
   4.5874858  41.2155914  17.3635566  72.8681135  23.4765148  49.7658634
  73.4576416  23.6919284  49.0431690  72.1171379  24.0573144  49.6436167
  62.0651054  70.6270838  52.6611376  61.4958143  70.5228233  51.8987322
  61.9177103  69.8363590  53.1800413  50.7340717  38.2969832  -0.1098912
  50.7828951  38.0838704   0.8220058  50.5796576  39.2413902  -0.1318445
  36.4484382  69.7086430  58.1150913  36.0052371  69.3128586  57.3646545
  35.7955527  70.2954531  58.4966993  60.3174686  10.2716219   5.4608041
  60.1939058  11.0050058   4.8582175  60.7261419  10.6624460   6.2331206
   2.3329461  33.1506610  60.3401947   2.6492584  32.3509216  59.9199581
   3.1279895  33.6362267  60.5601120   4.0812850   3.2843980  56.0001230
   4.5419002   2.5390404  56.3854885   3.7137207   3.7524498  56.7498255
   2.6366299  62.7907276  44.3250990   2.0871089  63.2652712  44.9488497
   2.0156856  62.3270273  43.7632751  12.7487552  10.7476425  52.3806715
  12.1006906  10.1654005  51.9841433  12.2288811  11.4106143  52.8350210
  49.2174530  64.8401976  63.8067150  49.0296316  64.8690653  62.8685665
  48.5622454  64.2406845  64.1638136  72.2507000   5.2688628   9.6880525
  71.6483450   5.6250769  10.3411341  73.1062174   5.6205976   9.9342251
  17.2950459  72.2362614  14.0583467  16.8653858  71.8303013  14.8112226
  17.5976944  73.0840731  14.3836999  59.4266844  35.7015371  15.2482772
  60.2297831  36.2223363  15.2536964  58.9941216  35.9197712  16.0738051
  21.4105940  16.0064089  28.7403107  21.6859555  16.3890779  29.5733595
  20.4832959  16.2324452  28.6677885  29.0695119  17.5704074  47.0373058
  29.5530033  16.9809270  47.6160812  29.7287607  17.9008543  46.4270353
  76.5526962   7.5317210  51.1965275  76.6288424   8.1648189  51.9104052
  77.1492863   7.8576660  50.5226803   1.5378028  56.9799471  57.8431892
   0.8040801  57.4538422  57.4516535   1.1449008  56.1842060  58.2018852
  24.1916370   6.1332244  50.4391670  25.1251554   6.2681836  50.6021452
  24.1485119   5.8265460  49.5334482  42.4571228  64.4840050   3.7687328
  43.1898689  64.1547918   4.2892423  42.7729559  65.3122520   3.4075055
  74.9190474  56.5409517  61.4293194  74.9151754  55.8806849  60.7363033
  75.7388353  57.0181274  61.3009262  66.1844683  57.1369886  54.1085148
  65.9683037  57.2249937  53.1802082  66.3797569  56.2067986  54.2218208
  34.8531842  37.8479958  13.8595033  35.3434110  38.5686159  14.2552507
  35.1449156  37.8319764  12.9479837  15.8554339   1.1322480  50.9621477
  15.0853622   0.9084402  51.4847660  15.9861290   0.3748073  50.3916788
  48.5879898  61.4208555  16.4224458  48.3150196  60.5425024  16.6874290
  48.5235071  61.9431210  17.2220147  69.8109961   5.4363960  37.6166344
  70.3338861   5.1758236  38.3748674  69.0980816   4.7983602  37.5866437
   3.2322946   2.0499581  62.9208517   2.4238686   2.0667067  63.4330988
   3.2591298   2.9031485  62.4877501  64.7521162   0.1835424  45.8364201
  65.5122137   0.2211752  45.2558470  64.2008257   0.9144296  45.5569267
  75.1443624  72.3839808  34.2402220  74.2955017  72.3574305  34.6817684
  75.6635475  71.7097950  34.6785736  42.3905230  16.1815417  55.5351782
  41.8331528  16.0365736  56.2997389  41.7916965  16.4979100  54.8587513
  63.9119530  34.0928626  20.3484392  63.4359550  34.5713806  19.6697044
  64.3653679  33.3946848  19.8760068  13.3291292  27.3671150  43.7013817
  13.1915367  27.4274802  44.6467161  13.0641794  26.4750361  43.4772635
  32.8939176   5.0817943  32.7945900  32.4810004   4.5996708  32.0781469
  32.4735665   4.7428560  33.5849428  67.0930052  58.4320736  49.4197416
  67.6228523  58.6069393  48.6419773  67.3901653  59.0767241  50.0618839
  29.7855383  67.2107803  64.1382269  30.5211038  67.8133260  64.0281634
  29.0913979  67.5776588  63.5906855  65.8452606  46.7465639  45.9982634
  65.8082581  45.8043051  45.8339357  65.2708721  47.1282005  45.3344393
   1.2214850   0.4497214  40.6900406   1.9724452  -0.0845736  40.4315472
   0.7879989  -0.0611844  41.3736343  71.9658947  28.3935976  11.9818628
  72.9025459  28.5874081  12.0187080  71.5470028  29.2504740  11.9010997
   8.3215761  62.9903364  10.3633797   7.6986206  63.7166977  10.3869402
   9.1764992  63.4109068  10.2714002  67.0633793   4.4012767  41.9896984
  67.7037811   5.1126707  41.9955969  66.3597393   4.7171265  41.4228058
   6.3067877  21.8004727  43.5974407   6.5358979  22.3677754  42.8612947
   5.9778911  20.9995532  43.1892920  53.8915491  36.3802528  57.0770168
  53.0867958  36.0818553  57.5007677  54.4633532  36.6348600  57.8012037
  29.7083116  47.3743868   8.2515979  30.5898571  47.0059395   8.3095175
  29.2099333  46.9098997   8.9239848  51.1662769  18.3162189  25.2702713
  51.7337608  17.5464559  25.3110313  50.4757738  18.1388211  25.9089923
  26.8588042  72.8256035  41.6878653  27.0448780  71.8900204  41.7671919
  27.3760891  73.2324600  42.3829317  67.6419067  50.4676819  59.8869944
  67.5048542  51.3789320  60.1459932  68.1170368  50.5232000  59.0578985
  12.3141253  19.1239011  32.3681951  13.0191779  18.4795237  32.3056507
  11.6718292  18.8400459  31.7177224  54.7805405  63.0362892  12.1243799
  55.1773453  62.3068810  11.6482115  54.0303659  63.2926750  11.5879703
  60.7211351  67.7439260  58.2768631  61.4029169  68.4147406  58.3145094
  60.3758383  67.7030516  59.1686726  19.2498958  55.2656031  48.0749226
  19.0427995  55.0147438  47.1746922  19.4901681  56.1903191  48.0166340
  69.0503740  25.1174021   1.8257862  69.0961027  25.6976581   2.5856826
  68.9091015  24.2466927   2.1974602   3.4601909  12.8606772  55.0073862
   2.9866531  13.0186224  55.8241177   2.7920187  12.5410044  54.4010973
  66.1335230  41.4222765  35.4524493  66.2128544  40.5346966  35.8019423
  66.4075089  41.3452053  34.5385456  53.1841421  72.8376961  56.1700249
  53.1526709  72.5651121  55.2529955  53.3517599  73.7794304  56.1343479
  77.7317047  64.7051334  62.9082060  77.9209375  64.8246765  61.9775438
  77.1679258  63.9322615  62.9406357  14.5652771  17.0409584  58.5543585
  14.0428030  17.8383696  58.4684134  14.9531817  16.9142902  57.6884985
  19.7936094  32.9129124   5.4531139  19.2903411  32.5505185   6.1822391
  19.2794561  32.6952577   4.6756148  65.0041723  41.2147522  60.5328131
  65.2079153  42.0167065  61.0140514  64.1774035  41.4049339  60.0895119
  76.8109894  41.3741922  53.2230425  76.2758684  41.3754129  54.0166855
  76.5541410  40.5755043  52.7622175  36.0860419  31.1087108  13.7728858
  36.9681430  30.9501600  13.4367466  36.0322976  32.0599294  13.8652217
  60.2792406  68.0596066  60.9881544  59.7230577  67.4955511  61.5254927
  59.6743870  68.6902666  60.5974483   6.6893423   1.3502897  20.8469510
   7.5131202   1.0167547  21.2024450   6.0119748   0.8515961  21.3037968
  76.1109209  30.1803994  50.1217508  76.9911003  30.4838514  49.8994160
  76.2542248  29.3849397  50.6345272  23.8091135  71.5199471  21.3917208
  24.7173929  71.7038870  21.1520863  23.4339237  71.1105108  20.6120896
  71.1834812  60.8692360  63.6377382  71.5786409  60.8281946  64.5085955
  70.2406788  60.8800745  63.8027906  67.7889442  18.8682449  16.1523247
  68.0915070  18.3337748  15.4181385  67.8878927  19.7705424  15.8485162
   9.8373258  69.7224951  35.2796102  10.6080735  69.3746424  34.8310804
  10.1189041  70.5739260  35.6142926  30.2949643  16.4575303  42.9111814
  30.4042792  17.4046838  42.8264380  30.3871703  16.1249554  42.0183611
   0.1227084  43.8741875  26.4013720  -0.1746688  44.7477198  26.1469293
   1.0689069  43.8920212  26.2577653  51.7223406  65.6395817  11.0392559
  52.3913050  65.7965279  11.7056549  51.5515947  66.5031195  10.6632531
  36.3580871  15.7580721  54.0544653  36.1269379  15.8235848  53.1279087
  35.8901191  14.9824774  54.3638039  62.9796457  53.2003498  61.1082745
  62.4358749  53.6010933  61.7864752  62.6670361  53.5877228  60.2906895
  64.2005825  63.0795193  43.6889029  63.4025097  62.5861597  43.8783979
  64.7814941  62.4439287  43.2708120  62.6334906  56.1870146  52.8907776
  61.9081688  55.8976603  52.3372316  63.4123182  55.8099461  52.4815416
  47.8489065  17.1330202   4.1486806  47.6404238  17.9979169   4.5018381
  48.1218243  17.3019516   3.2468998  38.2385230  18.3242369  21.4543462
  38.2295966  19.2430782  21.7224550  37.3693299  18.1748402  21.0823035
  65.4927588  53.6625671  58.6343145  65.0161314  54.4457483  58.9094305
  65.8407307  53.2960510  59.4472170  69.5134258  68.2204390  41.5315437
  69.0400124  67.9957104  40.7305384  69.0729284  69.0050602  41.8579721
  57.8131533  54.9031258  47.3925018  58.6537790  55.1784372  47.0267344
  57.6990700  54.0051746  47.0812178  13.9488900  13.5065055  45.7527208
  14.7586262  13.0186510  45.9029150  13.3465624  12.8622091  45.3808165
  61.7531252  50.0128698  41.9387960  62.2723150  50.1003218  41.1394072
  61.5508556  50.9133387  42.1927261  33.8397360  46.3496590  11.0088491
  34.6116972  46.6049623  10.5037439  33.4883261  47.1750021  11.3428366
  68.1518364  65.7981062  50.6027269  68.9808416  66.1534262  50.9232473
  68.0786467  66.1306190  49.7081280  -0.1004292  38.9751649  43.5741711
   0.3689556  39.0147996  44.4074392   0.1642892  38.1395102  43.1896687
  78.8018231  62.3424387  37.8998232  78.6994750  61.9644737  37.0263815
  77.9173360  62.3428488  38.2657671   2.1065134  13.0790675  14.0212154
   2.3699841  13.6275899  13.2823396   2.7483299  13.2730341  14.7043562
  60.5860329   5.6924379  58.0998325  60.8867311   5.9382749  57.2249699
  61.3898182   5.5139595  58.5879993  20.8285642  52.0568895  34.7239971
  21.3387728  51.3081455  35.0327063  20.3699684  52.3717546  35.5029583
  16.9910073   5.7888341   5.4358727  17.1336675   6.0207927   4.5182261
  16.7876482   6.6203105   5.8642703  75.9113836  57.5793934  13.6898744
  76.4787102  56.9424582  14.1242528  75.2981472  57.8571701  14.3703246
  48.8902807   3.8804206  48.9931059  48.6936617   4.2485350  49.8545361
  48.3902359   4.4211900  48.3817482  18.5466051   7.1344626  39.8272610
  19.2661965   7.7308631  40.0339651  18.2604063   6.8006873  40.6775045
  22.0925331  70.4679632   0.2761777  21.6568875  70.6042433   1.1175295
  22.9810119  70.1972437   0.5075842  22.1645880  10.8018708  24.3922472
  22.7769184  11.1492109  23.7436819  21.6818476  10.1201463  23.9248657
  38.0589962  48.5751534  17.3647404  38.1383729  49.5066881  17.5700915
  37.2492361  48.3028698  17.7964616  39.2382693  11.6691518  43.1043959
  39.0058684  10.7666528  42.8859520  38.5721469  12.2003198  42.6680756
   9.3348294  46.5661383  19.7346115  10.0460660  45.9256887  19.7486126
   9.7769696  47.4143124  19.6978664   1.3921042   4.8905265  28.2464480
   0.9099836   5.5617130  27.7634358   1.4577308   4.1565025  27.6356006
  10.9583950  16.3204646  23.8933063  10.4601657  16.2596691  23.0782580
  11.8741953  16.3195121  23.6148429  39.9627638   5.8182043  45.1686001
  39.3117762   6.5181386  45.1181936  39.8148537   5.2962959  44.3799496
  73.0541563  24.9470448  56.9491291  72.8256893  24.0429640  56.7330885
  73.3995295  25.3084183  56.1328173  35.7043910  11.0089982   9.0874976
  36.0629225  10.6780291   9.9109942  36.1058092  11.8714011   8.9809358
  25.0817680  64.8159361  61.9129801  25.7730913  65.0527811  62.5312090
  24.3925071  65.4624414  62.0652246  37.5781322  62.0835972  31.3838410
  37.6778507  61.2656593  31.8709493  36.8061066  61.9432926  30.8356428
  12.6037657   5.7429504  58.1442928  11.9914079   5.0074220  58.1285715
  12.3126841   6.3122106  57.4319410   9.8580039  40.4853058  22.2039223
   9.0451574  40.3609180  22.6938605  10.4757869  39.8745584  22.6058745
  72.2557259  68.7396240  40.8549070  72.1351099  68.1479883  40.1121712
  71.3761902  68.8549232  41.2145662  78.1821802  62.8622675   8.7218910
  77.9187572  62.1755457   8.1093115  78.6852494  62.4031639   9.3944824
   0.8961923  67.9165316  34.1687489   1.0574665  68.2559872  33.2884121
   0.2834437  68.5406923  34.5575905  41.2166214  12.4623358   3.6289474
  41.0940266  11.9096839   4.4008136  42.0928335  12.8324723   3.7361100
  58.1865501   6.0470307  39.7591329  58.7349749   5.2746880  39.8967886
  57.3173761   5.6931031  39.5707035  54.4484138  56.0996342   3.0938852
  53.5744190  56.2067842   2.7185491  54.7803640  55.2922487   2.7012438
  22.6516128  13.0087709  40.8472252  22.8272438  13.9195907  41.0834265
  22.3798442  12.5967765  41.6673660  14.3620253  68.6443520  22.1527624
  15.2687836  68.8989687  22.3236227  13.9866161  69.3924761  21.6884208
  19.0437019   1.0696547  29.8716354  18.8569093   0.9940726  28.9358854
  19.3864560   1.9572064  29.9765277   7.0947176  70.3717375  26.5997624
   6.8677723  69.4685173  26.8209577   8.0507451  70.3737640  26.5524507
  73.6620572  23.2173927  63.4122719  73.8470676  23.7491901  62.6381944
  74.5228389  23.0362423  63.7897274  39.7606373  72.8072691  49.9853230
  39.4024825  72.2174454  49.3219471  39.0143585  73.3399200  50.2602434
  17.3977685  55.3136778  34.4605374  17.3564911  54.4470882  34.8649597
  17.0632088  55.1802874  33.5736847  66.5956497  34.5283866  64.5578909
  67.0565844  34.4023991  63.7284946  65.7195663  34.1761446  64.4009399
  65.8874416  45.6153393  52.9549026  66.2281847  45.4965878  53.8414812
  66.6182518  45.9938097  52.4661255  56.5639067  46.4054108  43.7839603
  57.2181654  46.0842514  44.4044733  55.7446337  46.0005617  44.0687799
  11.8785441  30.6010389  30.8682466  12.8203833  30.4330015  30.8376956
  11.5598667  30.0493479  31.5826082  32.5430393  67.9079437   3.3644831
  32.1038318  68.6424923   2.9357994  32.4232125  67.1731091   2.7629128
  18.9610529  11.6571629  40.4345608  19.1586483  11.2480974  39.5920300
  19.6369779  11.3260698  41.0259438  44.8354197  66.7796898  24.8258257
  45.1180506  65.8781767  24.6721005  43.8793707  66.7332125  24.8320174
  10.8450913  47.9974842  45.4349899  10.7636094  47.3724318  46.1553383
  10.5791962  48.8354015  45.8137131  14.7873247   1.5353160  54.1134214
  14.0175915   1.3934852  53.5623980  14.7289181   0.8565363  54.7857904
  75.8031416   3.0761144  61.7370319  75.2989531   3.0260101  62.5491381
  75.1603222   3.3187813  61.0706091  25.3923774  42.1899080   1.5064301
  24.9181962  42.8075218   0.9497053  25.3788161  41.3672924   1.0171996
  57.4938631  28.0810475  62.3617315  57.3732138  27.3160815  62.9243183
  58.3536100  28.4242296  62.6052332  32.0119953  20.6632590  38.5531187
  31.8018031  20.6639433  37.6192808  32.8838849  21.0551643  38.6026597
  35.8661580  31.8426156  22.8063536  35.9842157  32.7841353  22.9321980
  36.7021346  31.5419149  22.4500465  76.4600563  46.8364286  14.8478150
  76.4829445  45.8800983  14.8814976  77.3806190  47.0985365  14.8576391
  77.3549414  11.1024225  13.8035679  76.5392113  10.8360612  13.3794570
  77.2551298  10.8208406  14.7129536   8.5546952  46.5635443  33.6288834
   8.6527091  46.2625313  32.7255464   9.4519854  46.6585255  33.9483833
  69.4256585   0.1043150  58.7559652  69.8164075   0.9549543  58.9558649
  69.9848407  -0.5281046  59.2071772  24.2902279  54.3217945  32.6433468
  23.8701391  54.0431976  31.8296266  24.2700148  53.5445356  33.2016397
   8.8219714  21.6585970  44.9046564   8.8284326  20.7349467  45.1557732
   7.9896009  21.7765498  44.4469690  19.2156398   9.7255820  35.0494003
  19.2965686   8.7727529  35.0069785  18.3150363   9.9018180  34.7772121
  18.7490296  13.9132571  35.9664583  18.1675065  13.1595206  36.0661840
  18.8285756  14.2729425  36.8499327  25.7253313  58.9611006  34.9701619
  25.7440948  58.0200148  34.7962666  24.9184823  59.0968275  35.4669523
  77.1031904  66.2812281  15.8093047  76.4890146  66.9771767  15.5754769
  77.9641199  66.6383600  15.5913830  12.7360487  50.3620625  45.4821968
  12.2727346  51.1783218  45.2943373  12.0687032  49.6817493  45.3924465
  24.5563269  59.3644810  17.9017627  25.1037169  59.2424059  17.1260726
  25.1682472  59.6338940  18.5867429  21.5359068  61.9792271  35.5755544
  20.6516171  61.7766285  35.8808661  21.7743802  62.7782536  36.0455751
  69.3286991  74.0530682  37.2866249  68.4821081  73.8206959  37.6680923
  69.1565275  74.8538589  36.7913246  56.9990158  48.4819841  59.2624140
  56.6452646  47.6114368  59.0801096  56.3631678  49.0845203  58.8765574
  70.3958797  59.1637850   2.6179296  70.5036545  58.8976336   3.5310453
  69.4480562  59.2006350   2.4894667  76.8837166   7.6992708   8.9227498
  77.3673725   8.1284863   8.2170004  76.9092464   6.7688781   8.6992556
  22.9166913   0.2718232   8.1042063  23.4625077   0.5114657   7.3552817
  22.2861075  -0.3552411   7.7501082   6.5813309  68.2190084  44.6859407
   6.9679713  67.9180098  43.8636637   6.6157538  69.1740322  44.6313477
  73.3312130  53.4665632  28.6791635  73.0864191  52.5640345  28.4748244
  73.1036901  53.9606237  27.8915262  14.0285623   8.8899326  28.6702108
  14.9343336   8.6435527  28.4828424  13.6212492   8.0831790  28.9856100
  27.1048498   1.0538766  23.3192110  27.9476023   0.6208787  23.4552693
  27.1016622   1.2852997  22.3904133  30.7778835   8.5641050   1.0652251
  29.8338866   8.4171093   1.0060947  31.1667562   7.7909172   0.6563357
  34.0130520  14.4694591  61.8316555  33.3281255  14.9903154  61.4123487
  34.1934466  13.7652278  61.2089586  13.7622976  13.6099827  17.0773602
  14.4199777  13.0113757  16.7232990  12.9273021  13.2580042  16.7689335
  28.5701966  67.0403433  29.9719405  29.1159749  67.3389626  29.2444897
  27.6724792  67.1854734  29.6731544  73.4302998  26.6637778  31.4490414
  72.6373196  26.3845754  30.9913754  74.1168976  26.0887861  31.1111093
  65.5652952  30.3757668   4.2937645  66.2148428  29.8050189   4.7043347
  65.2460718  29.8744106   3.5434520   8.3061737   5.0260544  56.2176609
   8.9796150   4.8842683  56.8829489   8.7468535   4.8428291  55.3879261
  78.1665754  13.8980317   3.9107534  78.9435434  14.2317247   3.4621978
  78.5022211  13.2242119   4.5019749  13.5590672  68.9380789  54.3740749
  13.0218232  69.5059729  54.9264288  13.9239323  68.2916927  54.9784660
  68.7196207  60.1560593  43.3856773  69.4206047  60.6633186  43.7949991
  68.4887981  60.6552458  42.6022434  71.6686296  41.9973993   1.2085615
  72.3352671  42.1058750   0.5302831  70.9359312  42.5377178   0.9128551
  12.0302236  28.8157773  27.0761657  11.8035293  28.2815242  27.8373599
  11.2020564  29.2134953  26.8074822  64.9660349  32.9863143  42.2747087
  65.6023979  33.6748123  42.4676991  64.4599056  32.8948426  43.0819893
  10.0796792   1.1644527  45.5781364  10.4993341   0.3436491  45.8358288
   9.1830299   1.0877249  45.9042740  24.5317698  15.1470137  36.6973114
  25.2870202  15.1682210  37.2850037  24.8653984  14.7499490  35.8927846
  44.1682291  13.6009359  15.9281123  44.8190355  13.0999291  15.4365063
  44.0423250  13.1026304  16.7356217  15.4489052  24.4603872  24.5475340
  15.4701602  23.5955215  24.9571538  14.7566593  24.9292064  25.0136161
  20.5243444  71.6424656  27.2056937  20.9306908  70.7860470  27.3385930
  20.6809378  72.1116304  28.0252028  47.0008326  14.5415890  39.7400451
  46.4267540  13.7757385  39.7282171  47.3254490  14.5837224  40.6395340
  17.1885693  71.1105490  54.5119953  16.8798792  70.4761600  53.8650894
  18.0141032  71.4361143  54.1532040   3.5057598  13.8707328  16.3094139
   3.4673005  14.7371280  16.7145228   4.3588811  13.8466382  15.8760130
   7.6204026  10.8985651  22.9682732   7.1642953  10.9817636  23.8056946
   8.3306837  10.2810669  23.1427121  33.1832075  12.1200395  49.7256947
  33.3145046  12.7598929  49.0259933  33.9528227  12.2170794  50.2865028
  36.1772919  64.9225283  23.1283116  36.0453343  64.2563295  22.4537778
  37.1249390  64.9441385  23.2614636  30.6907582  65.1506615  53.2523155
  31.1242557  65.5831337  52.5165987  29.9881220  65.7505798  53.5025740
  23.5958242  67.4216080  35.5117249  22.8313851  67.9434013  35.7558489
  23.2308197  66.6509104  35.0769448  43.5583544   9.9746919  20.4426742
  43.0109978   9.6406609  19.7320008  44.4284773   9.6188867  20.2623439
  29.8077297   4.2735159  14.3003023  28.9731264   4.6638650  14.0408826
  29.8217392   3.4236309  13.8601530  30.2252388   5.6873262  60.4605389
  31.1384201   5.9617382  60.5443859  30.2480865   4.7383100  60.5833340
  75.8553648  67.5011873   6.6923094  75.2457476  67.1548223   6.0406721
  76.4962912  66.8011856   6.8166035  49.1132355  62.3027325  28.9801979
  49.2705536  62.1666527  28.0458736  48.8452625  63.2192278  29.0469670
  32.4291968  19.4362664  32.8978467  32.9768896  20.2204418  32.9344106
  31.6711664  19.6479356  33.4426570   9.1681492   6.1243546  22.4309325
   9.5629072   5.8910698  21.5907097   9.3452030   7.0601016  22.5271678
  23.6731529  23.3417416  12.5547290  23.4723711  22.5571918  13.0650234
  23.1820917  23.2301641  11.7407024  25.0565600   8.3264571  45.7517767
  24.4933534   8.9228094  46.2451267  24.4495320   7.7218103  45.3249836
  15.1066041  42.8506422  13.5568953  14.5305288  42.3498249  14.1344380
  15.6245065  43.3957624  14.1492236  73.7609911  45.6821203  63.8624239
  73.7407255  44.9805641  64.5133018  72.9410315  45.5836201  63.3784866
  38.4408355   4.3247205  60.4858208  38.8368440   3.5391691  60.1085663
  37.9170609   4.0006483  61.2185335  54.8861647  65.4148436  34.5848322
  55.0152636  64.4672966  34.5433331  53.9359093  65.5282021  34.5649099
  40.5411148   9.6273893  25.5344415  40.4327154   8.6805868  25.6241465
  41.4746237   9.7768533  25.6842899  12.8255486  63.5903883  34.5201993
  12.8101182  63.7783766  35.4586315  12.9075956  62.6381397  34.4680047
  13.0662298  68.0908012  41.9894505  12.9498088  68.1808805  42.9352665
  12.2379875  67.7240419  41.6800404  59.5929480  13.3218205  58.5756063
  59.2765379  13.1242979  59.4571400  59.1282511  14.1211331  58.3278418
  34.5715690   1.1812198  13.1216967  34.5971417   1.4776193  12.2119033
  35.4621339   1.3200554  13.4439528   7.9554307  25.6113720  27.3287439
   7.4081081  25.6111288  26.5434599   7.7742058  26.4531970  27.7467370
  26.5041256  71.4571047  24.4493628  27.1725941  72.0860672  24.1777229
  25.9245396  71.9568825  25.0242805  67.9999828   8.1203014  28.8894749
  67.2244072   7.5929636  29.0808582  67.9149151   8.3437896  27.9626274
  23.4809184  59.5991898  36.2258530  22.9740000  58.7886190  36.1785579
  22.8785300  60.2363539  36.6097569   8.0644155  71.7054319  62.6026011
   8.1474209  72.5198412  62.1065378   8.3419836  71.9357061  63.4892607
  21.7397738   1.4465490  49.7165585  22.2615838   1.0367557  50.4064989
  21.9211078   2.3824327  49.8029947  22.5364852  56.3143063  54.5941401
  22.5526404  56.4683771  55.5387211  22.0883489  57.0797396  54.2342472
  16.6536403  14.4663000   1.2924710  16.6562903  14.8025560   2.1886611
  16.1065137  15.0834823   0.8067026  22.8398442  70.2908802  19.3217552
  22.4934959  70.7623577  18.5641384  23.2773542  69.5258284  18.9482474
  77.6085186  17.9086781  14.0982139  78.5022497  17.7150357  14.3810296
  77.1295261  17.0926023  14.2424917  16.6346669  14.0454304  60.9732628
  17.2532797  13.6347950  60.3691721  16.7490780  14.9850893  60.8312035
  16.7686713  46.2815857  58.4816027  16.8810213  46.6453409  57.6033688
  17.2277081  45.4420996  58.4536648   0.6012975   5.6631881  48.3008051
   1.0865189   5.5855775  47.4793625   0.6319899   6.5967840  48.5098219
  11.9888461  21.4135933  47.0403481  11.7475939  20.8585286  46.2987709
  11.4473844  22.1964812  46.9396639  14.8893523   7.6930821  23.5412264
  14.2910266   7.8238064  22.8056002  14.3590200   7.2540122  24.2062044
  20.3263116  64.3692398  25.7827258  20.3471828  64.1194344  24.8589349
  19.8495483  63.6589718  26.2121964   9.8832387  44.3786907  48.4993887
   9.2805827  44.0852022  47.8160858   9.4073385  44.2333174  49.3170786
  26.2294936  45.7881927   1.3136743  25.4907870  46.1564207   1.7983943
  25.8585405  45.5335474   0.4688183  74.1237307  13.6178207  33.3148289
  74.3832254  13.1616020  34.1153049  74.1255760  12.9383850  32.6405907
  34.7043824   4.9005836  41.2508774  34.7989368   5.8468699  41.3596582
  34.3794894   4.7935441  40.3568840  77.2851706  22.0361567   2.2479825
  76.9373894  21.5172434   2.9732487  77.2939491  21.4331532   1.5046504
  48.3308029   4.8500219  24.1876316  49.1896582   4.9512026  24.5979524
  47.7925014   4.4308221  24.8589993  70.7741117  45.9745598  52.2869921
  71.4680195  45.7991886  52.9225731  70.2216673  45.1933289  52.3138666
  61.7283010  10.4445028  62.3511744  62.0356035  10.9372902  63.1120682
  62.4167728  10.5609012  61.6964340  49.7834015   0.5758716  21.0701609
  48.8619328   0.5471585  20.8126712  50.2186632   1.0347869  20.3517079
  28.8171816  24.9409986  25.0293422  29.4582152  25.3714037  25.5950785
  29.3315268  24.3195677  24.5140719  75.8034134  67.6836681  39.8212194
  76.3311291  68.3483887  39.3786168  74.9235582  68.0591822  39.8541093
  12.4848902  27.6549459  18.3488965  12.3292232  28.5810566  18.5341454
  12.0505381  27.5022483  17.5096989  30.6900120  13.3096123  37.6802468
  31.1989713  13.0468273  38.4471464  31.2922525  13.8470817  37.1657896
   5.9753901  61.7016125  16.0017037   5.0662637  61.8868780  16.2370694
   6.2631536  62.4807262  15.5258858  70.0299025  25.1456714  45.5006218
  69.5599651  25.8524942  45.9431076  70.3458452  25.5402398  44.6877718
  57.3650789   5.6479281  52.0114756  56.4444113   5.9096712  52.0018244
  57.8181553   6.3810545  52.4279881  21.8789983  57.8514433  23.4577131
  22.5287771  57.4803972  22.8607678  22.2566295  58.6865759  23.7337232
  60.9488678  58.5913849  62.5433207  61.6192055  58.6325073  61.8612766
  61.3320160  59.0607786  63.2843304  27.5346828  22.7148247  16.5976524
  26.5839195  22.7017283  16.7077017  27.7607989  23.6447382  16.5785718
  68.0997705  49.7310305   2.7959728  68.9999247  50.0153971   2.6375917
  67.5620604  50.3561783   2.3098741  34.5706201  65.2025175  57.9129982
  35.0400257  64.4205236  57.6225281  35.2562737  65.7876062  58.2351494
  68.2876873  32.8905082  53.3106136  69.1855860  32.5605750  53.2766485
  67.8534746  32.3368812  53.9596033   6.8906760  68.5193110   5.9815127
   6.3833088  68.1895208   6.7231661   6.5698951  69.4114685   5.8496577
  67.6902866   7.2301406  36.2614059  68.0242014   6.3467288  36.4173388
  66.7449427   7.1553212  36.3916373  12.2524655   7.3581779  12.4504614
  12.3095500   8.3054662  12.3254895  13.0029261   7.1440566  13.0047119
  12.3574960  60.8379030  34.2250204  12.0290089  60.6391048  33.3482027
  12.3318505  59.9995136  34.6861839  19.7675896  18.6563730  59.7381687
  20.1676702  18.6299944  60.6073475  18.8366389  18.5016251  59.8982143
  34.6744752  13.7282968  34.5219088  34.9564576  14.1407681  33.7054610
  33.9281464  14.2536688  34.8103666  78.4309959  45.5420351   5.0934714
  78.5024738  46.0134840   4.2634967  78.3981419  46.2303400   5.7578439
  27.7408719  23.5219598  20.5399132  27.4769092  23.7407970  21.4335942
  27.5108075  24.2959642  20.0258923  14.4727004  47.6620865  25.0875306
  13.8281226  48.3448553  24.9015784  15.1148260  47.7403593  24.3819952
  40.7397795  16.5286398  53.0554485  40.3874445  16.3270879  52.1885729
  39.9680424  16.7142880  53.5904169   4.1275403  34.9462795  36.0146666
   3.2788393  34.5036387  36.0172582   4.6079454  34.5473576  36.7401338
  70.1537848  22.6459599  52.2806215  69.9542904  23.2215095  51.5422630
  69.5578051  22.9301238  52.9736519  31.0641289   6.8058068  24.3505025
  30.1332951   6.9740444  24.2039490  31.1022329   6.4139211  25.2229714
  37.7347398  38.8895202   6.9259590  37.3088670  38.0609035   7.1456397
  37.9427505  38.8124275   5.9948194  48.7244415  11.4493692  35.1596928
  49.3284082  11.8670487  35.7736897  48.2035446  10.8568573  35.7017541
  30.1030087  20.6455183  22.1204782  30.2379704  19.8016310  22.5516057
  30.4702449  20.5283141  21.2443304  63.7883043  27.2504306  22.9825950
  64.3436337  27.2580242  22.2029901  63.2386398  28.0289006  22.8927135
  16.0477722  12.8470361  28.8436818  15.9616494  12.3900115  28.0070567
  16.4618301  12.2082889  29.4240189  49.5794392  64.9069691   1.8405713
  50.0509644  64.6886253   2.6444510  50.2521896  65.2548885   1.2552653
  15.7161474  56.1021662  36.4274478  15.0395513  55.4462814  36.2593150
  16.3956058  55.9169769  35.7791638   5.7116544  16.7277741  40.4718733
   5.3405845  16.6488171  41.3506794   5.0102949  16.4374113  39.8887634
  77.8049707   7.9336250  57.3440266  78.6010122   8.3596456  57.6619244
  77.8720999   7.0331192  57.6615381  25.8762670  18.8217354  10.0320995
  25.7867122  17.9852176  10.4886651  25.4975939  18.6642849   9.1672015
  77.3163700  52.1415567   3.5280553  77.6566696  51.2860060   3.2664162
  77.9915190  52.5023222   4.1027367  23.2123542  31.7680860  32.7361584
  23.0158925  32.7013707  32.6548338  23.9056182  31.7257667  33.3948159
  75.2985811  13.7013125  55.6106472  74.8666763  14.2410445  56.2727499
  76.2299013  13.7605107  55.8236551  73.1550980  67.6188326   3.9707109
  73.3877611  67.2140503   4.8063254  73.3560514  66.9497919   3.3163089
  63.0242825  13.8966227  37.5221729  62.1805906  13.9767730  37.9671359
  63.4975243  14.6937418  37.7606606  60.2040434   6.6333759  53.0260944
  60.9334612   6.1804789  52.6029301  60.2686548   7.5357664  52.7134466
  35.2387762   7.0289499  45.3002310  35.5942106   7.7314746  45.8446169
  35.8930135   6.3320953  45.3512192  20.2994132  15.7112837  58.1090832
  20.3700399  16.6644788  58.1606817  20.3952646  15.4146743  59.0141058
  39.0782738  61.1792278  49.3349314  38.1977248  61.5149260  49.5027828
  39.2146873  61.3223934  48.3983803  49.2930031  16.6587341   6.5533358
  48.9097881  16.7964268   5.6870705  48.8155413  17.2601378   7.1248031
  32.7659416  53.8761854  25.8989406  33.5902667  53.3946562  25.8292961
  32.2016001  53.3100462  26.4254761  35.8987594  16.8806732  39.0843010
  35.4543447  17.5724471  38.5942245  35.8991742  17.1910155  39.9897957
  41.2146664  43.4822702   1.1052528  42.0536280  43.5996008   0.6596038
  40.6121111  44.0606070   0.6376131  43.1220579  11.8194509  18.2544017
  43.4932804  12.6929832  18.3783686  43.6310863  11.2577343  18.8388646
  25.4688001  44.5910645  25.6470537  24.5760369  44.5008516  25.9803224
  25.4959035  44.0221548  24.8777437  40.5292588   0.0423929  26.8108392
  41.3420444  -0.3981379  26.5627599  40.4186731   0.7291004  26.1532402
  25.0973201  27.1693969  28.0839944  26.0102916  27.3709631  27.8788543
  24.9770355  26.2691784  27.7817178   5.8253920  17.5530374  49.2308855
   6.6326916  17.7461755  49.7075367   6.0941571  17.5070214  48.3133459
  15.6097043  14.3106544  36.8184400  16.0611331  14.9936628  37.3143673
  14.8911333  14.0362513  37.3881674  39.8868322  19.4805062  35.1999760
  39.4781995  18.8067377  35.7433796  40.6978178  19.6991527  35.6590295
   7.9795492  29.0372801  32.1011043   8.4821939  28.4331203  32.6475215
   8.4555244  29.8656845  32.1596336  72.0102215   5.7835490  36.1706161
  71.4218712   5.7329404  36.9239521  71.5168238   5.3842652  35.4541230
  66.5464067   3.5082537  49.6005774  67.4064207   3.7157366  49.2351198
  66.1991167   2.8275323  49.0241718  22.3627567  26.8413734   9.1176403
  23.0917335  27.1209812   8.5638851  21.8550920  26.2482214   8.5638523
  36.8037987   8.7557560  25.1661158  37.5176430   9.2301077  24.7399139
  36.0101056   9.0953529  24.7526431  16.0871077  21.8737555  59.2945480
  15.9020245  22.8112173  59.3505859  16.0304642  21.6738701  58.3601665
  19.2899847  10.3223979  15.4200649  20.0419283  10.2650142  16.0095727
  18.5354793  10.1224124  15.9741032  10.1164067  21.4515138  30.7607484
   9.4904250  21.2965679  31.4681172   9.9714965  20.7287812  30.1500988
  25.2643633  24.1250134  27.4274898  24.3226266  24.1289330  27.5988030
  25.6123781  23.4565353  28.0176210   4.0876728  14.9354780  25.9421420
   3.9035946  14.9900937  25.0043988   3.2379916  14.7515643  26.3427043
  52.3977995   6.0386854  39.7599363  51.8849468   5.2682656  39.5156670
  52.5865030   6.4742011  38.9287019   3.8893980  69.7667027  24.4708300
   3.2282421  70.4561329  24.5323777   3.4819263  69.0918779  23.9278650
  19.6923602   5.5281788  59.3332195  20.5131984   5.9667921  59.1094446
  19.7289717   4.6962008  58.8613033  56.1997128  65.0953913  26.2298536
  55.5748034  65.2764082  25.5277467  56.7032766  64.3448400  25.9146810
  25.7892799  55.0476360  36.6829324  25.5211926  55.8091497  37.1971869
  26.7079830  55.2130318  36.4711308  12.2513211  46.9557571   7.8915441
  12.1431315  47.6585865   8.5322893  11.6993403  47.2166729   7.1543390
  33.4044719  21.9035268  60.2381706  33.2018161  22.8371835  60.2969074
  32.7029133  21.4748621  60.7283735  74.5459080  40.6174088  24.1021705
  73.7722445  41.1270714  24.3428421  75.2851439  41.1725903  24.3502259
  46.4962244  65.6337070  17.0221901  45.9175682  65.0038528  17.4519217
  46.5452290  65.3334665  16.1146188  38.6570215   3.4497085   5.6505954
  39.1175485   2.6114094   5.6131452  37.8076959   3.2747138   5.2453136
  72.5008774  37.7745390  26.9328117  72.7366400  37.7707100  27.8605127
  71.5547705  37.9197168  26.9267225  28.2519364  20.5950022  30.5436230
  27.9161716  21.4890099  30.6087422  28.3096504  20.4287672  29.6027374
  60.1705742   3.1154764  24.4860053  60.2290535   4.0667680  24.3973660
  59.2832613   2.9591364  24.8092175  38.0058551  27.8179812  58.7025881
  38.6896014  28.4628534  58.8838673  37.5707054  27.6870275  59.5450401
   0.8273747  11.8215775  27.8901887   0.0728165  11.2945509  27.6272869
   1.5200281  11.1821079  28.0561447  77.4179554  40.0728512  33.7388015
  78.3718681  40.0010633  33.7053204  77.2558308  40.9485817  34.0895772
  25.8228397   8.0782539  31.9851780  25.0586677   8.4946036  32.3838353
  25.4559588   7.4373597  31.3761759  53.2857943  25.6469321  58.1869125
  53.8903475  26.3737679  58.3367634  52.6184464  26.0070157  57.6027727
  77.4246788  42.2405577   0.6866838  78.0359697  41.5387344   0.4630703
  77.7740049  42.6136160   1.4960232  44.3231821  15.1901364  32.8900576
  44.7040033  15.8764112  32.3421216  43.5846329  15.6145287  33.3267069
  44.4570541  55.8158302   1.6849938  44.0119600  55.5464458   2.4884582
  44.3738890  55.0620937   1.1008731  28.4524441  11.6995966  47.8842926
  27.9518199  11.7426169  48.6990070  28.4021163  10.7808471  47.6204777
  65.6363440  18.1730402  36.9701624  66.3414764  18.4015548  36.3645267
  65.8118677  18.6979461  37.7511215  40.2471685  61.1748743   5.5757743
  39.5439053  60.7163906   6.0356069  41.0514593  60.8316708   5.9650749
  50.1727486  64.8251581  24.3257189  49.6640635  65.4894209  24.7907138
  49.7575998  63.9959669  24.5630479   1.3346563  72.5053596  52.7287006
   0.7166542  72.8308821  53.3831787   0.9025586  72.6669693  51.8900061
  46.8421602  31.7531610  10.4789102  47.2840643  31.3966680  11.2495375
  45.9881020  32.0388079  10.8032990  71.2186766  11.5119374  51.1887693
  70.7817793  12.2137678  50.7062912  71.0025024  11.6811001  52.1057653
  36.6790748  70.2585840  39.6251678  37.2072530  70.9508657  40.0226641
  36.5244675  70.5595064  38.7297511  40.1958370   5.9424973  39.3254352
  39.6065855   5.7694328  38.5912299  39.9310184   5.3151155  39.9981141
  61.7643213   6.5469176  35.9187698  61.2572765   6.0238421  35.2978611
  61.4574194   7.4434173  35.7833862  30.8086586   6.7486519   3.3852968
  31.2228560   7.4631959   2.9014587  30.2953124   7.1855396   4.0648824
  68.9872217  22.7670169   3.2191136  68.8723993  23.1176949   4.1023308
  69.6639872  22.0967293   3.3136579  25.7694840  37.3664665  60.5504608
  25.8905911  36.9089580  59.7184467  26.3832402  38.0999899  60.5119991
  42.9927969  14.6850598  38.8976097  42.7205038  13.7830925  38.7286615
  42.3786592  15.0004482  39.5606327  71.3289165   7.7027154  32.9208064
  70.3848267   7.8279704  33.0169606  71.4466858   7.4663234  32.0007634
  47.7288723  28.6996412  55.7544565  48.5665798  28.5793018  56.2016630
  47.0781517  28.3618617  56.3698387  50.5735350   4.5362085  16.8474424
  51.5162563   4.5541042  17.0123291  50.1899719   4.2604074  17.6799357
  58.4901571  61.2104511  51.7618847  57.9083967  60.7040596  51.1950016
  59.3587828  61.0972786  51.3759899  73.6333895  60.2667427  38.5222960
  73.8268518  60.6085014  39.3952250  73.3329773  59.3711472  38.6768699
  36.2680578  18.4017515   5.0479144  35.5027962  17.8465354   5.1973897
  36.9804215  17.7862453   4.8749343   7.0202607  61.3964987   4.4053990
   6.4359558  60.8304644   3.9009929   7.7061474  61.6455460   3.7859091
  48.4198046  28.3934450  59.0144348  48.2428694  27.4533486  59.0482616
  49.3716764  28.4553003  58.9347744  75.4170227   5.5953956   1.0664088
  75.4044962   5.4405951   0.1218920  75.8744097   6.4302987   1.1662349
  35.9335470  19.2999399  42.0320225  36.7821693  19.3734789  41.5953732
  35.7471848  18.3610690  42.0367527  70.9685612  38.6982298  59.5597696
  71.3927078  37.8914833  59.2673731  70.1663685  38.7490368  59.0400171
   0.7296549  65.3494215  36.4343405   0.9424707  64.7585440  37.1567011
   1.5664227  65.7494736  36.1976767  38.3210492  19.3560863  39.7977924
  39.1453171  19.6908438  40.1509953  37.9826212  20.0719595  39.2599964
  31.1510634   6.4529234  51.0210896  31.9039178   6.2830299  50.4548931
  30.7133675   7.2031832  50.6188917  45.7609558   1.4039022  26.1666274
  46.3239002   1.2462894  26.9245720  45.7414246   2.3566762  26.0767841
  25.1300383  13.2177329  19.1847432  25.3044772  12.3396039  19.5234036
  25.8124948  13.3615422  18.5291481  33.4168363  55.6801176   9.9777716
  34.0739560  56.2663698  10.3529143  33.8553953  55.2769041   9.2285621
  53.5140859  28.9141663  63.7892185  53.8757751  29.1965874  62.9491889
  52.5685137  29.0277680  63.6931995  36.7755413  67.0268869  28.4774566
  36.8386531  67.3207045  27.5686574  37.6840496  66.9615459  28.7716937
  21.3090491  54.2276955  62.0480871  20.7056737  54.2367697  62.7911139
  20.8646226  53.6993408  61.3850975  76.0341978  57.7090025   6.6489589
  75.0968122  57.8693390   6.7577255  76.1496449  56.7900705   6.8907547
  22.8452420  60.9585476  21.2122917  23.1191921  61.7657518  20.7768631
  23.6559367  60.5870104  21.5600944  19.4947672  73.0918932  36.4983869
  20.2682734  72.8920698  37.0256376  19.5643401  74.0291119  36.3166928
  11.8006182  60.4009295  24.6362066  12.3445034  60.6377983  23.8849974
  11.5628839  61.2387371  25.0334430  32.1921539  14.2884982  58.7242746
  32.3464417  15.1008582  59.2064571  32.8664851  13.6887836  59.0434170
  77.6551867  63.2960701  31.1055636  76.9843435  62.8274727  30.6089544
  78.1994724  63.7135983  30.4379916  18.2650495  67.6558161  53.7211609
  18.8887751  67.8791094  53.0302620  17.4177361  67.9430580  53.3808851
  36.4193749  15.7377052  36.4991403  36.0263062  15.9433079  37.3473477
  35.7625151  15.2021050  36.0542822  36.3932490   4.9755147   7.8240240
  36.2134743   4.0377361   7.8909850  37.2902822   5.0708801   8.1441289
  27.9524899  62.0417356  15.6632340  28.4647298  62.7631044  16.0285711
  27.9300785  61.3865900  16.3607347   0.6694655  56.6920853  40.6443310
  -0.1958032  56.7677259  40.2420568   0.4991869  56.3236713  41.5112257
  20.0157142   3.7208104  28.6232495  20.3608704   3.7844685  29.5137811
  19.0652037   3.7061456  28.7352562   3.5225147   0.0487167  34.7343802
   3.3862382   0.4816355  35.5771399   2.7229553   0.2295305  34.2401719
  62.1002722  13.4095657  59.7777081  61.2505817  13.5013831  59.3466330
  62.1396112  12.4886715  60.0358534   3.2341847   5.2194685  26.0936117
   2.6986551   4.4261399  26.0852432   2.7125120   5.8656257  25.6176186
  12.5269282  69.3428087  44.5970774  12.8098786  70.2352095  44.3976068
  12.2636628  69.3749475  45.5167961  36.5556669  62.4894762  49.4314146
  35.9927535  62.0670414  48.7826395  35.9837055  63.1181526  49.8717117
  47.1052074  31.5286326  38.8321567  47.5033998  32.3467207  38.5348225
  47.7992964  31.0890794  39.3233490   1.7059769  57.3556662   0.4140425
   2.1334377  57.8794098  -0.2636020   0.8045767  57.6771927   0.4322583
  65.8724594  52.6458979   4.2324287  65.7097483  52.0735836   3.4826177
  66.7585516  52.9793358   4.0913990   2.5412109  24.4071150   4.6172887
   1.9937626  23.7384367   5.0288749   3.3663830  24.3722177   5.1011330
  47.9469442  21.4569497  48.5344601  47.2290993  21.1525750  49.0896988
  47.6099968  21.3769865  47.6420975  47.3890448  35.0254321  49.0892601
  47.8802824  34.2081356  49.0059423  47.1922445  35.2795720  48.1876421
  56.9397783  61.2746859  54.0939713  56.3275003  61.6166592  53.4425116
  57.7944469  61.3174725  53.6650801  52.8766441  23.1956029  35.1122427
  53.5183525  22.9565001  34.4434595  52.9740763  22.5250030  35.7882881
  67.9998112  33.4064937  47.9408407  67.4101067  32.6548600  47.8814793
  67.6924038  33.8922477  48.7061977  75.5049515  50.8528137  61.6594028
  74.6844959  51.1943817  61.3038492  75.3678226  49.9069452  61.7119694
  49.7953176   5.4087526  43.0031824  49.1002035   6.0649419  43.0528021
  49.8740578   5.2133918  42.0694447  22.3860621  24.4648981  27.6266813
  22.3108411  24.4399571  26.6727662  22.0154381  25.3120446  27.8740954
  23.2029080  15.3048456  19.1257274  23.8334036  14.6046054  19.2941678
  23.0965185  15.3076327  18.1744623  78.1321812  56.3004398  10.9298801
  77.7011156  56.9616938  10.3884459  77.5041866  55.5793047  10.9725738
  34.4833827  23.8120699  30.1804638  35.0424933  23.8988733  30.9525347
  33.9973164  23.0005455  30.3267550  33.1447840   9.0920705  42.2662020
  33.0754733   8.9293098  43.2069111  33.1432033  10.0460219  42.1874237
  45.3911924  19.4146597  57.0225382  45.3160524  20.3559422  56.8657875
  45.1033545  19.2989171  57.9280710  56.4487457   6.1799997  19.9046052
  57.0290375   6.7653966  19.4179809  56.1568213   6.7000967  20.6532788
  61.7487478  69.5052433  32.2073507  62.6052999  69.6661854  31.8115616
  61.9450235  69.0505314  33.0264640  26.4132547   4.7025272  37.6458526
  26.6080213   5.4008561  37.0208430  25.7122493   4.1991580  37.2317934
  15.2349114  58.6975813  37.1166420  15.6364036  57.8348303  37.0132041
  14.7683382  58.8448286  36.2939286  33.4978962  44.6197128   2.2233017
  33.3193874  45.4521513   1.7857875  32.6320863  44.2561197   2.4087729
  49.0293026  25.6905985  40.1090431  49.9172735  25.9696293  40.3323841
  49.1315556  24.7900844  39.8010588  48.7349749  42.0571947  43.6556816
  48.0820417  42.6612329  43.3020592  48.2504511  41.2472200  43.8150787
   2.0877255  15.8913732  35.6462002   1.5061916  16.4386261  35.1184082
   2.8115711  16.4708495  35.8838701  59.2454147  41.5747690  43.0237103
  58.4859610  41.6628790  42.4477768  59.0411139  42.1300650  43.7761307
  42.4455786  53.7476635  60.8892441  42.8907681  54.1828775  60.1621771
  42.6017141  54.3182850  61.6417360  61.9124174  25.2179050  56.0060549
  62.2566223  24.7249937  56.7508984  60.9709215  25.2728939  56.1697245
  34.4277859  28.7885642  53.8572502  34.1035771  28.5370374  54.7220373
  35.0818896  29.4646788  54.0340185  50.6230402  16.6697454  50.8904982
  50.7421780  15.7775915  50.5647707  51.2663174  16.7557406  51.5940809
  53.2588577  53.4617138  52.9343557  52.6904535  54.0739107  52.4670601
  54.1304827  53.6196423  52.5716496  38.7192488  24.1039515  61.2897539
  39.0804052  24.8844934  61.7099333  38.6526346  24.3392396  60.3643131
  34.9279761   4.2150825   0.4436553  34.1701913   3.6796230   0.6787715
  35.2292871   4.5818114   1.2748909  64.0930510  31.2373734  53.3851671
  64.5142889  30.5331135  52.8924084  63.6829424  31.7856407  52.7162504
  65.7738686  46.8235779  17.8984070  65.1406288  46.1873388  18.2307422
  66.2176895  46.3683987  17.1828163  60.1034880  45.7475901  38.0057168
  60.9940290  45.4127073  37.9007006  59.7954750  45.8935881  37.1112680
  53.1163168  48.0700970  35.6080770  53.4661674  48.9201117  35.3410411
  53.8708782  47.6021862  35.9657574  54.9365997  34.3846607  47.0668554
  55.6045103  34.1806316  47.7214527  54.7236729  35.3050971  47.2207737
  46.8141031  43.2566833  42.2179604  47.4317169  43.6609316  41.6085672
  46.2478065  43.9760208  42.4974155  63.6267090  38.4448695  38.7070680
  62.7402639  38.7720370  38.8600707  64.0145111  38.3865142  39.5802450
  65.1526546  46.5307951  33.6705875  64.4516802  47.0575619  33.2866788
  65.7723141  46.3974237  32.9533267   7.9039162  31.3673615  50.4725933
   7.3383576  31.6348863  49.7481585   7.5446379  30.5278230  50.7595158
  71.8319750  23.1080294  37.7821946  72.5366020  22.7602911  37.2355628
  71.0284042  22.8299212  37.3426890  55.2323103  33.8487267  40.7912254
  55.5986691  33.3375835  41.5128517  54.2870188  33.8307261  40.9406853
  22.3038816   3.4030640   8.2700801  23.1116343   3.4374410   7.7576476
  21.7476535   2.7825892   7.7990663  64.3207884  58.5219955  55.5053139
  64.9184799  57.8969383  55.0950766  64.6232510  59.3776751  55.2010775
   7.2651112  44.5036030  60.8142376   6.8510920  44.9194956  61.5704441
   8.1270814  44.2339420  61.1312914  71.7165899  26.1830759  58.8569641
  72.0336628  25.6864619  58.1025934  70.7757092  26.2734270  58.7059307
  23.1314421  61.3181305  16.3119709  23.4630179  60.4674435  16.5994084
  22.4263883  61.5205956  16.9269013  70.2465773  38.2041383  16.1558962
  71.0029793  38.7154245  15.8683598  70.5840826  37.6539302  16.8627155
  52.1531963  40.2129316  51.6171217  51.3914919  39.6374011  51.6863918
  52.1566296  40.7055140  52.4378443  60.2793694  57.6702118  44.1103792
  60.0982571  57.5158644  43.1832314  61.1310625  58.1070042  44.1185617
  70.1042366  29.3273544  36.9610739  69.7992706  30.2151012  36.7736340
  69.3739033  28.9157629  37.4230695  73.3468008  54.9934244  32.7965760
  73.9472389  54.3252802  32.4659824  72.8020954  54.5316553  33.4339929
  64.9909401  24.9264550  52.2446775  65.1570082  24.2345810  51.6043901
  64.4022322  24.5250249  52.8838205  76.3786125  35.1456785  30.4550505
  76.2457657  36.0903883  30.5331826  75.6113911  34.7601223  30.8780766
  76.8875313  56.6993237  39.5135570  76.3286304  56.5347433  40.2730179
  76.2809324  56.7408037  38.7742662  60.6123972  36.2593746  42.2698450
  61.3761616  36.8346286  42.3143435  60.1196909  36.4533234  43.0672503
  53.5097551  43.1144667  40.1047277  53.6177206  43.5934734  40.9263897
  54.0368176  43.6024046  39.4719958  75.5894947  12.1810424  16.8790770
  74.7048855  12.4705529  16.6557503  75.5562162  12.0140576  17.8210104
  65.2577066  36.5930343  24.0549827  64.9028730  36.7688036  23.1835294
  64.9040937  37.2934127  24.6033072  59.2856026  24.4151664   8.9664882
  59.4687033  25.0037098   8.2341474  59.1544962  23.5591125   8.5587960
  59.6919250  35.0602531  29.0002203  58.8094854  35.1742721  28.6473250
  59.6532726  35.4515219  29.8729420  49.4029856  36.6655159  46.5677643
  48.4727097  36.4663148  46.6732931  49.4525385  37.1477413  45.7423925
  51.5606880   8.0194688  62.4724865  50.8154869   8.1852794  63.0499029
  51.4834642   8.6816508  61.7856216  69.3930817  62.3014641  34.3467760
  69.9993134  62.6040649  33.6706471  68.6635494  62.9199696  34.3085527
  54.6823978  42.0466423  58.0828714  55.5976534  42.1993303  58.3178759
  54.1841698  42.3903751  58.8243866  67.1507311  13.7507510  43.8403177
  67.2001553  14.4884789  43.2324123  66.2128592  13.6056626  43.9651251
  39.8332047  43.7050056   3.4399179  39.4209623  44.5582008   3.5753933
  40.1942492  43.7513161   2.5546309   8.2854396  21.0748196  24.0730548
   8.6195105  21.8155551  24.5789576   8.4198111  20.3164887  24.6414852
  35.8623171  69.9093056  23.2233119  35.2097487  69.8176956  22.5290513
  36.4806938  69.1956949  23.0664515  42.2601366  64.6007442  23.8981175
  43.1078243  64.1564798  23.8813233  41.6306067  63.9251184  23.6462045
  62.2961426  60.8647919  29.2291093  61.6023016  60.2060556  29.2587376
  62.9571676  60.4903793  28.6467910  69.3112707  48.1270599  44.8002291
  69.2198086  47.6290798  43.9878941  68.4116840  48.3048153  45.0747728
  72.1887398  63.4932089  59.5044947  73.1140566  63.2618999  59.4237614
  71.7920637  62.7429867  59.9472666   0.8477867  61.4690113  42.7587509
   0.2000780  60.8574724  43.1090736   0.9193010  61.2376642  41.8326855
  63.3202171  49.1219616  48.8947725  64.1860151  49.4360542  48.6340570
  63.3776569  48.1696129  48.8175535  70.7214212  48.8912487   2.7726531
  71.5345430  48.4046793   2.9079944  70.3393602  48.5047722   1.9846821
  39.5494628  53.2399321  12.7587235  39.6721220  54.0881681  12.3324776
  38.6068177  53.0811501  12.7093482   5.5725324  53.5513783  37.1575427
   5.7244647  53.3827877  36.2276363   5.9339041  52.7845860  37.6021457
   3.4622505  36.1323309  48.8627863   3.9168629  35.3103137  48.6788177
   4.1100678  36.6666961  49.3221521  71.9141674  55.4326725  56.2683725
  71.0197783  55.6189919  55.9827328  72.4352646  56.1497068  55.9070492
  13.2149231  51.4707041  59.4664383  12.8414261  50.7477999  59.9705553
  13.8269341  51.0503483  58.8623047  73.4983587  15.2710426   2.8903595
  72.5656700  15.4198909   3.0458087  73.9365816  15.9704483   3.3751515
  76.7725563  47.3079205  33.5737586  77.6979971  47.0780230  33.4904695
  76.6891670  48.1389141  33.1060743  10.1137102  13.9832222  41.9854355
  10.1510131  14.5610940  42.7476072   9.1868311  13.7604105  41.8989325
  74.9130487  43.4174109  50.6950426  75.7085085  43.8997841  50.4696703
  74.3689919  43.4722424  49.9094057  14.3615746  61.4559460  27.9342365
  15.2997172  61.5364456  27.7620792  14.0741265  60.7416821  27.3655248
   4.1307959   7.8276432  27.1333265   4.8257911   8.1472152  26.5579247
   3.9358616   6.9487208  26.8081665  13.0672467  43.6053705  28.0541682
  12.6915884  43.0721807  27.3535848  13.5009861  44.3273497  27.5993609
  65.8154774  28.2518959  61.6330051  66.2409115  28.4345841  60.7952309
  66.5389490  28.0957365  62.2399950  57.4810457  39.9074316  40.6827688
  56.7741442  39.2792749  40.5346537  58.2759762  39.4370270  40.4316902
  43.7194300   6.3413519  38.1883001  43.1490183   6.2748921  37.4225044
  43.2264853   6.8788993  38.8082027  41.5352488  67.9009771  11.6432953
  41.5694523  67.5240707  12.5225019  42.3207569  68.4448814  11.5851462
   8.5975617  54.5298862  22.9243469   8.9573526  53.6992550  22.6131678
   9.2356825  54.8419333  23.5659552  55.2834797  39.0712667  52.8559113
  55.0264072  39.8073840  52.3006868  55.0777864  39.3588972  53.7454033
  70.4378414  73.2159185  52.6135302  70.9536362  73.0518579  53.4030056
  70.9837294  73.8007927  52.0880222  66.5037680  47.2644186  57.0247126
  65.7957172  46.9989061  56.4378595  66.1063290  47.9193735  57.5985670
  76.5690756  53.2488632  41.6270590  76.9132900  53.8736486  40.9887838
  76.7065287  52.3925018  41.2221098  76.7976856  50.0154543  49.2826033
  77.6244259  49.6183920  49.0086126  76.7609644  49.8646164  50.2271318
  51.6908693  54.4391298   7.8537333  52.4054861  53.8087845   7.7630776
  51.9253588  54.9580193   8.6231500  58.8276243  65.4067326  43.1449413
  58.5010004  66.1415529  42.6257277  58.2280350  64.6876144  42.9459429
  49.4194174  52.5127745  39.0856051  50.2520037  52.0887280  38.8777065
  49.4669867  53.3620453  38.6466217  71.1707332  72.2004791  36.2867141
  71.2650612  72.3949382  35.3542352  70.5040219  72.8150777  36.5933013
  16.1316192   8.0915236   6.6184312  16.8062651   8.5643125   7.1058279
  16.2097514   8.4188873   5.7223511  40.2996874  27.7875328   0.9931017
  39.5580459  27.3185015   1.3754702  39.9155807  28.5828257   0.6240461
  22.2289109  10.4425561  44.1536331  21.9528270  10.0698721  44.9909639
  23.1779790  10.3190625  44.1377926  54.6153593  56.7238379  48.7669230
  54.2504930  57.5265503  49.1394234  55.5379534  56.7394447  49.0215111
  63.3707428  48.0630255  17.5114131  64.2016554  48.4370852  17.2183251
  63.4947062  47.9085255  18.4478927  20.5846477  71.0406256  44.6284151
  20.3942132  70.1045609  44.5671797  21.3586259  71.1640310  44.0789080
   1.7669427  40.9609652  51.3915825   1.0877589  40.3368139  51.1358976
   2.4565105  40.4201698  51.7766428   9.2580557  65.6808281  28.9600658
   9.9804384  65.6318808  28.3339691   9.3719769  64.9113178  29.5178413
   5.9720397  54.7594547  57.2539234   6.3298601  54.9824762  56.3945866
   5.1106298  55.1765156  57.2702646  21.6480875  55.4834175  31.2566066
  21.1580181  54.6843767  31.0626984  21.8993115  55.3931808  32.1758318
  61.8677616  61.2336493  41.5496254  62.2307014  61.7297745  40.8158922
  61.1378813  61.7681170  41.8624401  10.6623137   7.3473936  56.8996382
  10.8926916   7.8531873  56.1203241   9.7260457   7.5059897  57.0199776
  61.3712120  53.5554695  48.8487101  62.1686554  53.7329245  49.3475389
  61.6171455  53.7181950  47.9380703   0.4897804  62.8515577  13.7628484
   1.4099485  62.8276825  13.5002601   0.0632625  62.2053432  13.2000673
   1.8846963  58.7964201  29.1317749   1.3225503  59.4372559  28.6963987
   1.3461563  58.0074120  29.1923523  16.3321018  39.4534969  14.5211399
  15.5581307  38.9509439  14.7753835  16.4409316  40.0965357  15.2217734
  61.1689758  73.2573795  35.6513453  61.1246204  72.3483610  35.3547788
  61.7159414  73.6955929  34.9994063  24.5449400  69.6488571   0.8934035
  25.0476336  69.0333557   1.4269637  25.0161362  69.6845675   0.0609787
   2.6085398   1.9207825  23.1281972   2.6956210   1.1538548  22.5620961
   2.6266310   1.5657544  24.0169382  63.1898069   4.0357122  59.2445660
  63.7066793   3.2306188  59.2145252  63.7507343   4.6635956  59.6999311
  20.3872657  29.4454646   1.1126550  21.1907625  29.9016309   1.3627264
  20.0415015  29.1006064   1.9359115  27.9958105  69.9294138   7.4703157
  28.3934259  70.3824949   8.2138556  28.7068224  69.8410940   6.8355763
  64.1140842  65.6450272  42.0093441  64.4220352  65.3089619  41.1676455
  64.1801310  64.8979855  42.6041555  60.3404236  56.2360907  46.8216562
  60.7587481  55.5238676  46.3379431  60.7620287  57.0296240  46.4918280
  46.4217281  26.9841313  53.7065268  46.9131708  26.8881536  52.8907394
  47.0617819  27.3209500  54.3335104  60.8036297   0.4609415  10.1944351
  60.3520649   1.0638115  10.7850850  60.1958292   0.3401491   9.4649011
   4.6342775  65.6262684  60.5319023   4.5503885  65.0131416  61.2621546
   4.8536491  65.0752878  59.7805500  64.9826622  12.3269284  34.2879128
  65.8253813  12.7728248  34.3729448  64.9820328  11.9844127  33.3940911
  54.0042639  50.5646467  38.6950397  54.6286297  49.9750376  39.1178393
  54.2262363  50.5215788  37.7649307   9.3131095  55.4131269  37.1389818
   9.4324327  54.9717522  37.9799247   8.6201209  56.0533190  37.3006964
   0.1088654  13.6943972  35.3751016   0.4783954  13.0896640  34.7316909
   0.8194736  14.3074477  35.5633473  30.1546550  11.3567245   2.0213740
  30.4705954  10.5351400   1.6453248  30.7784963  11.5561616   2.7194276
  63.5249424  36.9819331  51.7143679  63.3542395  36.7569351  50.7997799
  62.6804447  37.2846103  52.0481968  77.0980120  41.7548561  39.7581959
  76.8690014  41.2611151  40.5456018  76.5268803  42.5226116  39.7823453
  38.9079428   1.8531404  32.3367977  38.7321997   2.4550460  31.6135716
  38.8401842   2.3961315  33.1221652  64.0783024  66.3991880  54.3342400
  64.1171694  65.8752632  55.1343775  64.3325281  65.7930040  53.6384344
  11.9372213   3.2500768  45.9015369  11.7739451   3.6147827  46.7713404
  11.1301827   2.7847391  45.6815767  29.1726017  49.7666656  62.2667345
  29.5095143  49.2236410  61.5541009  28.2349512  49.8404108  62.0889566
  65.2022600   2.2172400  62.5594664  65.6277609   1.8066382  61.8067503
  65.3760529   1.6207744  63.2876539  55.3000593  25.9235907  44.3245935
  55.4219627  25.3377342  43.5775042  54.4558382  26.3449097  44.1633177
  66.0655499  13.5084522  51.3339615  66.0908508  13.4079134  50.3823948
  66.5714788  14.3029439  51.5044022  16.3808715  35.0678515  28.4884262
  17.0281613  35.0945568  27.7837729  16.7981732  34.5508957  29.1775179
  69.4442463  57.3772812  46.0906076  69.5532513  57.1656227  45.1634884
  70.2738142  57.1214437  46.4938354   4.5064923  70.3158712  21.3444757
   3.7289435  69.9956512  21.8017578   5.2072048  69.7253323  21.6210508
  34.7456574  11.0122716   6.4009994  35.0334215  11.1852157   7.2973889
  33.8269687  11.2807596   6.3883621  61.4195490  54.5709324  43.4501410
  61.1538219  53.9359856  42.7849627  60.7700539  55.2711201  43.3858967
  17.7725122   1.0189125  41.2313557  18.2682035   0.9383938  40.4164743
  16.8656299   0.8467838  40.9780502  76.5107012   1.2267782  31.4465261
  76.4831114   2.0538437  30.9654498  77.1064663   0.6747988  30.9399557
  62.4251127  61.5544701  22.7430987  63.3666372  61.4192533  22.8502488
  62.0445299  60.6823635  22.8471231  55.7970524   8.6843657   3.3902082
  55.5514193   7.8675818   2.9557443  56.6677475   8.8856244   3.0472600
  57.7852678   3.6042807  33.0474472  57.1400213   4.2652786  32.7965093
  58.0815697   3.2314581  32.2171211  27.6469159   2.7315554  35.5973625
  27.6044250   2.6959127  36.5529561  26.7343616   2.6719519  35.3146505
  15.1580417   2.0982757  36.6614366  15.5292511   2.9457062  36.9069910
  14.2232275   2.1828616  36.8490529  38.4243250  25.6294870   1.0481320
  38.2417226  24.7700191   0.6683920  37.6782179  25.8008671   1.6227491
  25.2356672  11.0349381  41.2909508  24.4676733  10.7053959  40.8242369
  25.6977177  11.5689778  40.6447744   9.3568963  58.0133724  55.0601006
   9.8599720  57.1990395  55.0628424   9.1910571  58.1955624  55.9850502
  74.7426367  54.2267704  22.7718043  74.3523884  54.7832489  22.0978069
  74.0221691  53.6722803  23.0713010   7.7908516  70.5208397  18.9892268
   8.2865500  70.6480885  18.1803250   7.5813651  71.4071941  19.2837107
  61.3955975  52.6024532  55.4213285  61.9387054  53.3038282  55.7809591
  61.6001749  51.8397665  55.9623384  73.5592079  19.3298483  28.2694793
  73.7550735  18.9952540  29.1446447  74.3513584  19.8004675  28.0101585
  -0.0700229  50.1606703  44.9119997   0.4331721  49.9563026  45.7001972
   0.5237873  49.9573278  44.1893148   1.3587739   6.3255233  24.3379259
   0.8901237   7.0981240  24.6536589   2.0132905   6.6733325  23.7322283
  12.3214352  67.1646357  60.1562452  11.5424740  66.6485262  60.3638172
  12.9882979  66.8472528  60.7651758   6.6984808  70.9897423  44.8980331
   7.1739209  71.8067694  44.7474957   5.8563900  71.2658262  45.2598238
  60.0774956  62.9022789  43.4145880  59.3124914  63.0419540  42.8564739
  60.3423214  63.7822104  43.6825848   9.1001356  72.9025698  12.7813721
   8.6848879  73.7604666  12.8697491   9.8893434  72.9618692  13.3197641
  51.2799835  28.9666677  17.2587395  50.3326559  28.9833736  17.3948264
  51.4700365  28.0626392  17.0080566   1.0096788  66.3399076  53.8469648
   1.5897448  67.0396852  53.5468531   0.6018665  66.0074091  53.0473566
  59.0714741  65.3819418  45.9383059  58.9936018  65.4497099  44.9866867
  60.0015974  65.2154827  46.0912561  52.8104448  73.7640429  49.0159273
  52.4639177  73.8914633  48.1327963  52.0399666  73.7986612  49.5828438
  29.3086028  55.5144072  23.5425091  29.3315172  54.7730350  24.1475463
  30.0286555  56.0775805  23.8263917  58.8867283   2.5402042  21.7387605
  58.3632660   3.0931678  22.3188043  58.9009714   1.6860792  22.1706176
  70.7621002  68.0540419  59.1285563  71.1722708  68.7772942  58.6543274
  69.9211645  67.9261351  58.6895847  21.5983105  69.9879360  57.5774765
  20.7265782  69.9094343  57.1899843  21.4899993  70.6248474  58.2837629
  72.3177528  42.2406244  24.3446922  71.8213463  42.4915075  25.1237106
  71.6547966  42.1325588  23.6627507  71.8938112  54.7740412  40.1923895
  72.2230387  53.8753700  40.1773024  72.5805283  55.2733088  40.6344175
  45.0210816  74.5583873  31.8477607  45.8661801  74.4528849  31.4108324
  44.7396094  73.6647642  32.0438337  64.9994278  29.2934895  45.2674198
  64.6219397  28.6700273  44.6469116  65.9388113  29.2743993  45.0845957
  52.1250772  37.8152156  59.2569351  52.5661325  38.6465621  59.4317627
  52.6304293  37.1679187  59.7487259  54.5511770  15.9412265  63.8477945
  55.1775265  16.5939546  63.5349607  55.0833178  15.3139389  64.3372536
  12.5326502  33.2290053  17.1058428  12.4988902  32.5036621  17.7295172
  11.9481969  33.8905454  17.4759912  47.0553637  14.4940329   0.5227212
  47.0701694  13.5386336   0.4659240  47.2362661  14.6820498   1.4436746
  57.5777578  38.2824636  43.9543772  56.7769623  37.9342175  43.5623503
  57.6411486  39.1756964  43.6162186  56.8184423  56.6815996  40.0790310
  56.6536713  57.6015377  40.2859116  57.5909662  56.6978025  39.5140743
  20.7357407  24.2120218  54.7833061  20.9518766  23.3750343  55.1943636
  20.3313947  23.9720511  53.9495516   4.6522284  55.3028536  49.6602201
   4.0308580  55.8585501  49.1897678   4.5587277  54.4414139  49.2535114
  78.2995510  35.9437060  39.4255996  77.4588680  35.4934978  39.5080328
  78.9316082  35.3457308  39.8245502  76.3044643   1.5170084  23.9764118
  75.9137106   1.8696916  23.1769371  76.8310547   2.2370756  24.3234515
  69.3171787  44.4583511  57.4577475  69.9489594  44.9944401  56.9784832
  69.0324497  43.7997961  56.8241358   7.0482647  45.4663897  46.8371153
   6.8017292  46.1530590  46.2174940   7.5797558  44.8589849  46.3225174
  65.0005054  41.3497066  46.7279387  64.3278885  41.2610579  47.4031830
  65.6939888  40.7487679  47.0003080  71.3673925  72.3744726  28.5087442
  72.2926521  72.2299194  28.3106661  71.1481857  73.1856251  28.0502629
  57.3881149  45.5994940   5.2525204  57.3999357  46.5565825   5.2443206
  58.3056402  45.3495598   5.3616828  76.6732454   8.8190281  36.6509557
  76.3791561   9.3140399  35.8862948  76.4378214   9.3695968  37.3977351
   2.9047063  70.5425358  56.1670971   3.2851660  70.9454918  55.3866434
   2.0749119  71.0025454  56.2938452  34.5321774  71.6337013  57.4387836
  35.2957082  72.0162392  57.0064449  34.3181324  70.8646584  56.9105959
   7.3101085  18.9636719  39.5113230   7.0887613  19.1718674  38.6036396
   6.8793309  18.1250107  39.6765876  70.1801538  39.1981602  45.2296448
  69.6522570  39.8353696  45.7108116  71.0446072  39.6039557  45.1641846
  62.9705429  59.6810007  45.6177521  62.9752398  59.4241905  44.6956539
  63.8888502  59.6349382  45.8838844   2.8925094  38.6479402  41.6965914
   3.3043045  37.8009725  41.5254164   1.9582152  38.4923053  41.5583754
  76.1503983  29.0663433  32.4679160  75.2995682  29.3291616  32.8189850
  76.3803148  29.7616625  31.8515563   2.6609367  39.8857045  36.0359883
   3.4030902  40.1335764  36.5873480   1.8969527  39.9844050  36.6041589
   6.4040697  60.1390505  56.2567711   6.2264156  60.9946060  55.8660126
   7.0534539  60.3166962  56.9371939  68.7784481  39.6179557  48.5676384
  68.0804253  40.1557827  48.9414549  69.5496798  40.1847935  48.5789108
  73.2687473  53.4769630   6.0855454  72.9861975  53.7217188   5.2043569
  74.0113735  54.0528154   6.2675482  51.5831041   4.1737390   4.8980451
  51.5160418   3.2704118   4.5886353  51.9756985   4.1004285   5.7679451
  67.0927095  27.8818130  57.0196009  66.8202496  28.1073499  57.9090595
  66.2976837  27.5498724  56.6024876  31.3381743  65.2498817  31.5218210
  31.0914087  66.1515760  31.7274499  30.7067633  64.7135019  32.0012450
  28.8426900  30.2695560  12.2822130  28.5864878  30.9439182  11.6530657
  28.5529423  30.6093812  13.1288517  77.7658224  48.7823915  25.5763221
  77.9781675  49.5496035  26.1078548  77.3567438  49.1420937  24.7892380
   0.3353552  43.6780787   6.9986069   0.0700812  44.3513918   6.3720983
   0.9378819  43.1187725   6.5083325   6.7495221  12.8531075  46.9570684
   6.7877716  12.8222013  46.0011339   6.5697432  11.9501364  47.2188997
  15.9657753  39.9236512  49.2514515  15.5094504  40.0805950  50.0781155
  16.7052007  39.3639493  49.4885540  69.3279839  37.9191947  12.7917933
  69.8810577  37.4057913  13.3806551  69.0627146  37.2999907  12.1117556
  74.7860289  32.8714943  19.4840384  74.6681643  31.9216037  19.4769073
  75.0291777  33.0894327  18.5842538   5.1984638  63.1237841  24.6910000
   4.6851695  62.3813200  24.3723965   5.5942953  62.8100061  25.5040765
  12.9298639  52.2995710   2.2341451  12.5547409  51.4262962   2.1205257
  12.4383581  52.8522825   1.6265574  63.3872271  32.2091746  57.6080894
  63.7898779  33.0695510  57.4903822  62.7912569  32.1198773  56.8643951
  11.7682242  67.3535776  12.5357163  11.8304598  66.7850780  13.3032906
  12.1994758  66.8611193  11.8373334  70.9382153  37.3488522  42.0599174
  71.1872244  37.0390821  42.9307032  70.1068878  37.8033781  42.1960545
  53.1045818  52.9746962  55.8435011  52.8577852  53.0116224  54.9194002
  53.7652636  53.6602068  55.9425402  71.4621544  36.5798569  57.6381111
  70.7518387  36.3042235  57.0587063  71.6355133  37.4877644  57.3893499
  78.5838842   8.0976802   6.5643060  78.9474487   8.7177992   5.9322417
  78.1251287   7.4507040   6.0283983   6.6342902  60.1507473  29.2446351
   5.7386947  60.0498533  29.5670676   7.1854866  59.9190140  29.9921083
  40.5153561  54.3167400  15.0505197  40.0149441  54.0078115  14.2952859
  41.4052582  54.4319677  14.7173035   6.7837590  35.0600338  14.9079025
   6.2942940  35.8784413  14.9907434   6.8132716  34.7075248  15.7973397
  50.4996967  55.9175920  31.4423370  51.1956072  55.4404306  31.8942881
  49.8651314  56.1228943  32.1289301  72.7697468  47.6438951  47.4125433
  72.6296616  47.8616762  48.3340549  73.7076616  47.4636269  47.3489380
  77.0054340  48.4952688  29.2990279  76.5263367  47.9877138  28.6439848
  77.8661060  48.0786228  29.3423676  72.1146822  30.6133509  57.1054411
  71.6902399  31.4490438  57.2995996  71.7267275  30.3346992  56.2759352
  25.5311537   7.6568675  58.9405632  24.8995113   8.3648068  58.8137579
  25.0788927   7.0307845  59.5059919  13.0250537  60.5857325  16.9875610
  12.7259612  59.7662592  16.5935624  12.2285068  61.1062622  17.0914745
   0.4116338  69.1054153  31.6680861  -0.2353836  69.4758415  31.0677648
   1.2556390  69.3016958  31.2614393  51.2364197  55.1256752   3.7640986
  51.4373589  55.6950283   4.5068583  52.0064974  54.5637369   3.6778569
  55.5426645  68.7724972  47.3889637  55.9819317  68.0003071  47.0325994
  54.6200466  68.5221767  47.4374485   0.4466934  50.6457949  52.0578575
   0.4060588  50.5984306  51.1026955   1.3801582  50.5861521  52.2611284
  60.4492712  24.6049643  52.0304632  60.6976175  25.4915333  52.2922850
  59.7707033  24.3516445  52.6562452  23.8624668   6.7957067  12.9590583
  23.5714531   7.7019173  12.8574443  23.9265203   6.4629090  12.0638633
  58.5510635  61.6533327  45.3320074  59.0536690  61.9844151  44.5876980
  59.1960430  61.5569258  46.0326767   6.0974240   1.8732703  31.2663102
   6.1296362   1.6696112  30.3315830   5.6399244   2.7127674  31.3129044
  58.7133646  38.8197207  23.6842847  58.1779480  39.6076775  23.5910749
  58.3035040  38.1812286  23.1006980   6.6733116   9.7803593  43.0128431
   6.8102807   9.2266679  42.2441435   7.5462735  10.1061916  43.2319403
  57.1336651  55.9727478  49.7195673  57.3029566  55.4962397  48.9068460
  57.9929829  56.2946653  49.9919128   6.2596405   8.0980617  25.5028057
   5.9251982   8.2092685  24.6128559   6.5796232   7.1962667  25.5274820
  71.1382914  28.2030487   1.8571331  71.4139223  28.9564919   2.3792285
  71.4789867  27.4450254   2.3320636  62.7279472  20.9110856  10.7263505
  62.9344273  21.8130064  10.4811275  63.0039215  20.8422112  11.6403127
  61.4661312  58.4457636  23.1412196  61.0721350  57.5740767  23.1071401
  61.5967131  58.6132574  24.0745592  69.6918583  66.3502026   6.6302812
  68.9876366  66.4063311   5.9844047  69.2404222  66.2881613   7.4720603
  31.2293696   3.7738651  47.0759106  31.6154718   4.0332901  46.2393332
  30.6350255   3.0572832  46.8534327   2.4714258  60.1956987  51.7226601
   2.2065565  59.2855549  51.8557596   3.0820104  60.1622057  50.9862518
  67.2407627  54.1910553  24.7279143  67.3619270  53.4933376  25.3719139
  66.2924004  54.2467642  24.6107054  36.5453792  13.5417855   8.4887940
  35.6727481  13.7356973   8.1465310  37.1394706  14.0359402   7.9239070
  45.3576231  45.2884960  12.1744227  45.5340004  45.8987570  12.8904593
  44.7527599  44.6481371  12.5489986  58.0739212   8.7023151   2.0056157
  58.9655590   9.0351343   1.9033745  57.6687098   8.8358307   1.1487577
  23.9357710  -0.0029468  22.2816944  23.8155341   0.8517023  21.8677497
  24.8847032  -0.1262208  22.3053908  68.5770321  40.3354120  30.5201507
  69.2206144  40.3604603  29.8120522  68.7190962  39.4885516  30.9430885
  15.0598907   4.3277541  15.8141947  14.7760820   3.8232523  16.5765345
  14.7958839   3.7960568  15.0633085  13.1516147  58.9113045  38.9392304
  13.6782444  58.6363840  38.1886888  13.7751591  59.3407106  39.5249224
  18.5239662  66.8379484  62.7690370  17.9796375  66.0841929  62.9966270
  18.0428614  67.5922714  63.1092873  42.0869589   2.3106514  44.7856665
  42.9514837   2.0291774  45.0850010  42.1866846   3.2466459  44.6118832
   0.6725027  41.2441349  37.6583004   0.9149598  41.5214825  38.5417724
  -0.1641923  40.7928324  37.7700996  24.9011254   2.8828225  50.6660509
  24.3288898   3.4674662  50.1690912  25.7856917   3.1193194  50.3870535
   7.5870752   6.4079142  35.5498695   6.8018723   6.9505996  35.4778934
   7.2827113   5.5998671  35.9629726  32.7612019  59.9390697  10.6307387
  32.9423285  59.3935299   9.8653579  33.2017994  59.4918537  11.3533068
  63.9111471  32.1001840  61.3822508  64.5906210  32.7288198  61.1386061
  63.1115007  32.4461985  60.9859276  74.3699741  57.1858931  48.5935593
  74.6220398  56.2779665  48.4251642  74.6716642  57.3566818  49.4857740
  71.4214468   1.3702826  34.7995162  70.7764292   1.3728130  34.0922880
  72.1107912   1.9615348  34.4970894   3.4127784  39.3903470  52.9175234
   3.2763836  38.4433293  52.8894329   3.1900719  39.6378922  53.8149357
  29.0753293  58.4362888  51.7408276  29.1197610  57.5236368  51.4556551
  28.2821608  58.4820604  52.2746992  73.5956526  70.0765276  44.8513412
  72.6879454  69.8614693  45.0659466  73.8537741  69.4138002  44.2107153
  63.4795761  42.1078825  19.9751151  63.3587456  41.1584330  19.9616778
  62.6035738  42.4585533  20.1359963  48.4463167  26.3486814  15.8545661
  49.0570402  26.3713670  15.1178646  47.7645826  25.7346654  15.5816996
  33.1715202   1.0832914  46.9040489  33.2563567   1.8208712  46.2998867
  32.4832845   1.3506126  47.5132275  63.0195141  57.0014048  16.1197829
  62.5151014  57.7967215  15.9486914  63.6952686  57.2751474  16.7399859
   9.9485928   3.4202144  37.3461819   9.3220174   2.8099930  36.9572544
   9.4133121   4.1557902  37.6438975   4.0897542  69.4965935  59.9153280
   4.5518708  70.2818298  60.2087259   4.1544634  68.8907194  60.6535387
  70.1476192  30.9751487  40.3890419  70.0570154  31.1543131  41.3249493
  69.8103809  30.0857782  40.2816916  63.8599014  44.1484547   6.5456313
  63.6435366  45.0799417   6.5874726  64.7355700  44.1230583   6.1598980
  61.0656214  64.5989561  38.2275033  60.6263542  65.4025888  37.9492140
  61.5497208  64.3103647  37.4538136  69.0978193  30.1839614  13.4764385
  68.3308840  30.6971073  13.2220316  68.8379145  29.2748570  13.3274078
  29.6464396  70.2356863  28.9405894  29.3931508  69.9002647  28.0806065
  30.3983402  69.7004986  29.1944599  14.7904360  23.7290788  11.2527895
  14.4145656  23.9833045  10.4099822  14.8132956  24.5408535  11.7594779
  70.6943893  55.6350994  48.3032608  71.3065052  54.9081326  48.4175825
  71.2496376  56.3837290  48.0853510   9.3890578  20.5051255  38.1442952
   8.8969010  21.2918758  37.9096889   9.0060878  20.2217197  38.9745021
  24.3627715  55.9922743  40.3665257  23.9253879  56.5769815  40.9854317
  23.6699319  55.4081297  40.0583315  10.3444541  25.9382367  61.3161802
   9.6184099  25.6348157  61.8611813  10.7740664  26.6121149  61.8430138
   5.3753859   1.2559928  57.3143387   6.0852969   0.6279039  57.4476194
   4.5792216   0.7634164  57.5136471  24.5674038   5.4680687  43.8298988
  24.4626021   5.2289337  42.9089975  25.5123234   5.5682802  43.9452934
  25.7109213  14.2288303  47.7914190  26.4193392  14.2372739  47.1477556
  25.0693178  14.8515260  47.4496222   8.9825130  70.8001041  16.4181304
   9.1726911  70.1530170  15.7389069   9.7010624  71.4295530  16.3571870
  60.1389933  68.5638714  30.2761674  60.6765604  68.9542055  30.9652948
  59.2547894  68.5476160  30.6424356  70.5818510  15.1893055  16.8786013
  70.9282589  15.5068934  17.7124918  69.9030352  14.5610130  17.1249449
  63.7753010  33.8100266  32.1204901  64.2845440  33.6448145  31.3270116
  62.9685116  34.2184353  31.8066025  37.6968098  69.9571276  34.8733401
  37.9083419  69.0258312  34.8087406  37.4966025  70.2201414  33.9750242
  70.9839344  58.3702850  41.1043215  71.5561390  58.2675028  40.3438950
  71.5709591  58.6382008  41.8113232  78.2070446  34.8821425  47.3149776
  77.7618217  34.0990996  46.9911766  77.6280403  35.2220106  47.9972363
  72.8508759  64.0344381  41.0892773  72.4013281  64.8432446  41.3341570
  73.1277609  64.1788292  40.1844501  72.2337627  44.6968842  54.4953012
  72.5564384  44.1479540  55.2099943  71.6368198  45.3141975  54.9181652
   2.2713377  62.1774483  34.4657493   2.5918484  61.3778830  34.8831224
   2.7452582  62.8835249  34.9051619  64.1405535  61.3733959  49.0002298
  63.2588673  61.7226076  48.8701916  64.2111492  60.6592369  48.3668089
  22.2946644   2.3055683  45.3590536  22.3580098   2.3350549  44.4044065
  21.9830251   3.1764379  45.6054258  72.9579306  59.5049286  48.6710882
  72.1418333  59.1636992  49.0368462  73.5066795  58.7306356  48.5462999
  41.8819475  19.6728253  57.8026915  42.3474550  20.1611948  57.1236992
  41.0118103  20.0707507  57.8299999   7.2704041   4.3164778  51.8766785
   6.6882610   3.8388023  52.4675798   7.8428048   3.6433974  51.5085030
   5.2514088  27.4080372  49.0362263   5.5885148  26.5299511  48.8585758
   4.3258595  27.3623133  48.7964344  61.6622257  58.4355164  26.6405916
  61.5291357  58.0670929  27.5139666  62.3263216  59.1134977  26.7652893
  15.0842631   9.7794533  37.7160382  15.0599992  10.0132036  38.6439419
  14.2825508  10.1560104  37.3531413  15.4882801  74.0968370  33.4632134
  15.2126896  73.9300203  34.3645763  14.8810339  73.5853577  32.9285383
  38.8499117  63.1477165  56.6013622  38.4295154  62.2994137  56.4603472
  38.1980515  63.7883091  56.3168430   0.5162100  29.7834539  39.3682075
   0.3098492  30.1773691  38.5205770   0.5505852  30.5235577  39.9742579
  69.0809584  44.2602587  50.2192211  68.9412069  44.1787720  51.1626530
  68.2319927  44.0468025  49.8320198  29.0352321  43.0085135   0.6746499
  28.2709026  42.6654196   0.2117096  29.6503210  42.2754622   0.6976292
  55.4497037  66.8750130  62.5780461  54.9970088  66.0318743  62.5985324
  55.2964816  67.2502624  63.4451920  15.7468128  30.3480697  19.7018504
  15.4993641  29.4612503  19.9636805  15.5665541  30.3794885  18.7623012
   3.0032429   2.9745200  40.4968929   2.4764754   2.2343367  40.7983494
   2.3635972   3.6034846  40.1629925  59.0573549  59.8314190  39.8460817
  59.2625427  60.6898975  40.2164173  59.4460773  59.8487186  38.9715385
  29.6053076  28.8060260  10.1123309  29.5377278  27.8628111  10.2606928
  29.2683792  29.1998124  10.9170926  16.0704923  65.9155035  23.6285043
  15.6464982  66.0735703  24.4719934  16.9083786  65.5111647  23.8536525
  62.8964853  18.9321840   1.3097537  63.6626911  19.3403065   1.7129849
  62.6658106  18.2173252   1.9030473  66.1061716   9.0174723  45.5559778
  66.2766266   9.4957483  46.3674164  65.3138256   9.4212538  45.2018881
  25.6524396  27.1963644   8.6698294  25.5510640  28.1313801   8.4917796
  25.3624821  27.0923090   9.5761013  13.3496666  28.5516739  33.8645029
  12.4871039  28.2074809  33.6326694  13.9103746  28.3088827  33.1276917
  33.6339474   4.5992470  54.0398836  34.1068292   5.2853256  53.5688114
  34.2908192   4.2075628  54.6155024  16.2981796  10.4340744  30.8819246
  15.6873465  10.0095439  30.2795219  15.7971954  10.5491626  31.6893911
  78.2627895  74.1402159  19.9032557  78.6234715  73.7470424  20.6979609
  77.9677346  73.3949880  19.3799877  15.2192330  56.9488573  44.6576548
  15.1618540  56.8027020  45.6018877  14.3590271  56.6949463  44.3232775
   6.6510683  51.3779879  38.4474421   6.2399477  50.5984306  38.0739427
   6.0943562  51.6094780  39.1908908   9.8593247  59.7869921  21.1051154
  10.6461871  59.4739580  20.6589198   9.8287439  59.2831993  21.9184375
  49.4489479   5.8267963   0.6006458  48.7905264   5.1335412   0.6465362
  50.1402712   5.4642385   0.0467015  49.1695023  69.0096664  63.2753229
  49.7088766  69.7524166  63.0039740  49.5443010  68.7344933  64.1120005
  48.5435826  73.5362315  57.3051119  47.6394565  73.7846407  57.4976826
  48.7822968  74.0697729  56.5470982  72.0801497  44.5060444  40.4409790
  71.3728952  44.4123459  39.8028255  72.4373436  45.3786898  40.2762318
   8.0722058  16.7057943  28.0227494   7.4613124  15.9875369  27.8579807
   8.5419875  16.8150926  27.1959519  31.1020422   3.6139405  54.1099644
  31.1225414   2.6715618  54.2764997  32.0197868   3.8548830  53.9837790
  34.3510628  12.0492101   2.5864187  34.1607523  11.1176753   2.4757113
  34.5960212  12.3493016   1.7111063  32.9901791   5.5232787  48.6192751
  33.4659648   4.9896747  49.2557669  32.3384666   4.9287155  48.2477951
  29.3120480  10.8218753  61.7390680  29.0110660   9.9219429  61.6135120
  30.1499891  10.7330275  62.1931505  76.5480375  63.1335497  16.9818294
  77.4169779  63.2666349  16.6030693  76.4567804  62.1827173  17.0436740
   4.0175155  70.0981665  38.7245941   3.0771396  70.0870943  38.5462618
   4.2371076  69.1849089  38.9089155  44.5469141  69.0508175  19.8675907
  44.4050312  68.4650517  19.1239631  44.6271896  68.4660912  20.6211710
  10.8067596  24.1637444   4.4275475  10.4061520  25.0205350   4.5747113
  11.1836624  23.9268446   5.2749282  73.5395575  66.9434357  15.4315245
  73.2482290  67.2619438  14.5771742  73.2719183  66.0245705  15.4485750
  70.6880999   8.9531153  29.1008425  69.7653770   8.7009007  29.1355276
  71.1249828   8.3459127  29.6980596  46.8707705  23.1462359   7.6352179
  46.1475992  22.5918031   7.3421973  46.5778589  23.4973764   8.4761298
   7.1181077  42.9066849  21.2489533   6.8828136  43.4179163  20.4746699
   6.3180059  42.4323845  21.4750242  45.5160236   8.7687957  15.6542194
  44.8680067   8.6188346  14.9658740  46.0311842   9.5119983  15.3403890
  20.4829288  65.6484842  58.3709621  20.9231567  64.9740171  58.8881922
  21.0699415  65.8041525  57.6310873  18.1110680  19.1354549   9.1294479
  18.0228233  18.9030671   8.2050884  18.2414985  20.0837231   9.1266185
  23.2575393   6.1926877  28.9241910  24.0082622   5.9845203  29.4803500
  23.2439160   7.1491194  28.8883448  42.2728443  57.4607468  26.8623447
  43.1713820  57.7578211  26.7187834  41.7808580  57.8203773  26.1242056
  17.8383696  11.8711305  52.7871227  17.6638269  12.8100324  52.7220869
  18.7905860  11.8091893  52.8624964  56.0972881  69.7045708  10.1289046
  55.9015512  70.4691744  10.6704760  56.9771433  69.8699093   9.7901535
  10.3417468  28.5877728  29.2797256  10.0035608  29.3493819  28.8087511
  11.0712755  28.9301205  29.7962689  35.9066105  27.0017242  50.6910086
  35.6011081  26.4163637  49.9980068  35.1842260  27.6160502  50.8213806
  46.5810680   8.8762063  40.3957033  46.2410116   8.1321102  40.8926105
  47.3212528   9.1921175  40.9139299  29.1296977  39.6453734  64.4463876
  28.5550419  40.3672831  64.1917339  29.6866602  39.5012894  63.6813618
  38.5866451  17.1359575  54.3874502  38.2176113  18.0090356  54.2541027
  37.8517342  16.5403807  54.2410755  73.0055714  23.6361957  29.7779274
  72.8542137  23.0791068  29.0144014  73.9234304  23.8979149  29.7052836
  53.1329107  15.3666914  30.2401876  52.4040842  15.9619153  30.0648284
  52.9165745  14.5726287  29.7514200   3.0538541  60.8216619  61.9493055
   2.3088297  61.4129543  62.0567322   3.2332528  60.8307934  61.0091114
   2.2165161  23.0342126  63.9420366   1.7064929  23.6989665  63.4792089
   2.2117804  23.3214211  64.8551178  21.9600558  64.4966984  32.4523687
  22.6144409  63.9004946  32.0882916  21.6932726  65.0408602  31.7114592
   9.7786337  59.6339941  36.0043216  10.4466355  60.1217556  36.4860868
   9.0703690  59.5099020  36.6361427  27.1167827  28.5712862  13.2460892
  27.7089500  28.9260340  12.5829720  27.4818516  27.7122569  13.4582746
  70.3057289   2.2268850  37.4164772  69.4586039   2.1369186  37.8529596
  70.0883150   2.5036201  36.5263176  61.8787003  57.3557615  55.2768564
  61.8947697  56.9323921  54.4185257  62.7337265  57.7796602  55.3508759
   8.3496857  67.1139383  33.3263040   9.1483605  66.5901518  33.2630587
   7.6572502  66.4752817  33.4962535  53.0826235  62.1201038  33.4972525
  52.4757385  61.4268732  33.2377410  53.9472628  61.7124701  33.4475827
  23.8328433  15.4097581  16.6052830  23.3232689  15.0392413  15.8846700
  24.7234130  15.0916386  16.4572394  10.7355320  24.2082286   1.5918525
  10.7407975  24.2782640   2.5464723   9.8718125  23.8526869   1.3825412
  68.3990479  38.0352020  19.3155503  68.5246372  38.2303858  18.3869159
  68.8001490  37.1744490  19.4357598  37.1358490  69.8894930  62.4229097
  38.0592728  69.9732113  62.1851873  36.8276334  70.7917309  62.5077868
  17.4263382  67.1900940  50.9112835  16.9320142  66.3769484  51.0145807
  16.7951286  67.8812170  51.1116791  18.8992465  59.1288996  49.7115469
  18.4936070  58.6074877  49.0188551  18.4815454  59.9872589  49.6410084
   7.8032184  69.0716553  47.2635508   7.4202657  69.7134733  47.8615856
   7.0687962  68.7791443  46.7238379  11.0692024  60.8334827  50.1841831
  11.2437117  60.2114153  49.4779205  11.2578797  60.3451490  50.9855366
  40.2292728  73.1966496  18.6465359  40.0144768  73.1344461  17.7158225
  40.6277990  72.3522711  18.8573253  14.0842783  72.6777792  28.9548469
  13.5035682  73.1315804  29.5656395  14.1114843  73.2447529  28.1841135
  21.7559314  38.2526588  27.1558881  21.7865872  37.4425435  26.6469622
  22.0117450  38.9351392  26.5353942  75.6251907  63.9935160  22.5307775
  74.6896410  64.1194391  22.6892734  75.7320023  64.1478491  21.5921593
  65.1072454  66.0827255  14.4289136  65.5564785  66.0884523  13.5836983
  64.8960638  67.0016003  14.5941436  38.4204912  59.1772032  39.8088670
  38.7293100  59.4876766  40.6600237  37.5654745  58.7877035  39.9918103
  48.0873442  73.1450033  62.1685219  47.5545025  72.3796606  61.9527388
  47.8983402  73.7727785  61.4710951  68.8221121   0.5973627  12.9974890
  68.1384039   0.9246970  13.5819793  68.3920240  -0.0878658  12.4859047
  56.7156696   2.9962587   4.0367389  57.2809696   2.9042783   3.2697922
  55.8273172   3.0010283   3.6803091   7.8164876  58.5522699   7.3080456
   7.8036946  58.1718874   8.1863248   7.8013271  57.7972984   6.7198098
  10.2875686  68.0067968  15.4569983   9.9156654  68.3653164  14.6511555
   9.8049176  67.1930408  15.6022036  33.7394452  62.1648741  32.9284430
  33.1177235  61.4708138  33.1474805  33.7000227  62.2293663  31.9742322
  45.1636744   9.6391755   4.8139358  44.6209908   9.5812529   4.0275708
  45.2637911  10.5787086   4.9671835   0.3105233  39.0918064  27.0870233
   0.5542948  39.1494203  26.1631775   1.1119353  38.8116860  27.5291777
  28.9619684  61.4583826  26.8739438  28.3181310  61.9359207  27.3970723
  29.5114207  61.0127497  27.5187254   3.2641444  14.5192254  23.1561923
   2.8273323  13.6914551  22.9556346   4.1101912  14.4571543  22.7128148
  21.6713548  41.5796185  26.1556864  21.6902375  41.5450287  27.1120739
  20.7481074  41.4658070  25.9300828   5.6629777  66.6042900  14.1737556
   4.9353981  66.9477892  14.6922815   6.4207655  67.1167946  14.4554138
  10.7635403  64.8417330  21.3882399  11.4989102  64.8190546  22.0005703
  10.2183509  65.5660629  21.6953993   5.2160019  26.6190267  41.2179279
   5.9502703  27.1925807  40.9985685   4.6928248  26.5828300  40.4171705
  37.4823427  65.1471615  43.8984489  37.9677963  65.5837154  44.5984459
  36.7817974  64.6766472  44.3502045  40.1496332   0.2500698   1.0083535
  40.6899756   0.5896494   0.2949467  40.2610105  -0.6994989   0.9620816
  32.8691220  22.0146370  20.9633732  33.5811043  22.3582029  20.4236746
  33.2447815  21.2475300  21.3954115  46.4240217  16.4400268  23.4008598
  45.9099531  17.0276678  23.9546156  47.3299599  16.5854383  23.6735487
  59.3675518  29.9769378  48.0456781  58.6680841  30.3101563  47.4835968
  59.3828726  29.0350056  47.8760862  76.2121582  58.5697317  42.3438120
  76.7013073  58.8225269  43.1267977  76.7452478  58.8879156  41.6152477
  57.2329283  22.0649028  12.8021419  57.8961611  22.6392293  12.4193847
  56.4372587  22.5967050  12.8203678  31.5840697  20.3811502  35.9562397
  30.7317829  20.5422854  35.5514288  32.2187901  20.6824160  35.3061652
  42.6573277   7.1900618  32.6846647  43.0947351   7.9962236  32.9585385
  43.3504152   6.5298647  32.6839399  68.4828138  64.4093752  24.3220639
  68.3727503  65.2844763  24.6939731  69.3950701  64.3848848  24.0332270
  56.2841654  22.2673488  31.0151720  55.5239010  22.3304105  31.5933180
  56.1027098  21.5068340  30.4629707  62.3564053  54.9691105  57.3315763
  63.1402588  55.0592232  57.8735018  62.5150013  55.5447388  56.5834188
  78.0691147  42.7573919  44.3448067  77.7365303  42.9751492  43.4740591
  77.4689913  42.0860529  44.6694326  11.8991220  25.1714516  37.8908014
  11.5741599  24.3366981  38.2281685  12.7017903  24.9439740  37.4215388
  10.9342980  53.9712667  33.1617165  10.2007174  54.5835686  33.1053710
  11.6963935  54.5253897  33.3302093  29.5616150  53.2035255  21.6921425
  28.8568163  53.8512039  21.6916490  29.7551465  53.0608559  22.6186538
  65.5988503  12.7155137  11.5065682  66.1690617  11.9677162  11.6851449
  64.7285318  12.3323429  11.3972116  39.7777534  18.7967765  11.3145661
  39.5520782  19.5411539  10.7567096  38.9448357  18.3503306  11.4667678
  10.9819758  73.1060457  40.0136662  11.6037774  73.4975910  40.6270885
  10.3363442  72.6720619  40.5713844  10.2249897  55.6931829  16.8903232
   9.4777572  56.2835312  16.9871032  10.1130629  55.3054571  16.0223532
  55.3414822   3.8602456  28.8223553  55.2638006   2.9243296  29.0074444
  55.2201271   4.2833722  29.6723366   5.7646978  26.7206192  31.7412400
   5.6767106  25.8701801  31.3108420   6.6686749  26.9839287  31.5688300
  20.3838038  61.2281036   2.6277572  20.7605767  62.0716572   2.8781301
  21.1324334  60.6327295   2.5914448  70.3687143  20.4297471  62.0369911
  71.3133049  20.2767491  62.0130587  70.1429033  20.3886962  62.9662657
   7.8199124   0.8281223  47.0114756   7.1587288   1.4191775  46.6513109
   7.9905623   1.1667091  47.8903818  23.8997865  65.7393503  58.1618500
  24.8022389  65.4580212  58.3123970  23.9242911  66.6902161  58.2690239
  69.0766001  54.3002415  32.2797561  68.5611677  53.7147093  31.7250323
  68.7455082  55.1751995  32.0771313  41.5413809   2.0642915  20.4022384
  42.4058247   2.1804322  20.0079274  41.6938305   1.4817193  21.1462808
  47.7716255  13.4076345  33.1745052  48.1793356  14.1688180  33.5875511
  48.2622051  12.6592612  33.5143661  53.8587904  18.0524063  32.9450130
  53.1654644  18.7090230  33.0112290  54.6498823  18.5575092  32.7571917
  69.8258829  26.2056851   4.1681063  69.9581337  26.5682316   5.0440639
  70.7104111  26.0463405   3.8387859  31.8983650  12.7166903  17.7575445
  31.3865495  11.9829953  18.0980861  32.2962689  13.1116831  18.5333574
  60.3177214   9.5088178  10.7311368  60.7312107   9.2492104   9.9078107
  60.8598757   9.1054350  11.4090633  45.0220823   4.2550930  47.5646400
  45.3727436   3.3703470  47.4622107  45.7455730   4.7576126  47.9391575
   4.5002675  59.0711689   7.7629828   3.7115222  59.3681145   7.3091805
   5.1525474  59.7463799   7.5762880  47.3714828  13.0748594  54.5532990
  47.7325296  13.2131386  53.6776495  47.3593044  13.9468956  54.9478054
  76.9994307  71.6093969  32.4787045  76.4233923  72.0906210  33.0727100
  77.8234291  71.5267992  32.9587340  68.9931250  56.0287428  55.8984995
  68.7830830  55.6211090  56.7387056  68.3688021  55.6443977  55.2830887
  52.9491234  16.1916506   9.7166765  52.9977036  15.6677604   8.9170444
  53.1467342  17.0836031   9.4310153  21.8259454  39.7678208  58.7315607
  22.6102257  39.9888325  59.2338467  21.1905217  39.4879341  59.3904495
   6.9293058  49.1857052  33.1729436   6.8463272  48.4812307  32.5302434
   7.5699472  48.8592386  33.8047910  12.4561572   3.6609936   3.2367620
  13.1037915   3.7743270   2.5410914  12.8962862   3.9739978   4.0270448
  20.5169964  54.7353077  33.8114381  20.1339579  53.8582039  33.8256717
  20.5236197  55.0086880  34.7287440  64.1088629  41.5537024  11.7901623
  63.7701368  41.3145494  10.9274340  64.3433762  42.4780464  11.7075908
   1.0241608   4.6641827  43.5015631   0.8048062   5.2131850  42.7487612
   0.3435425   4.8583135  44.1460085  36.5376163   4.5972729  13.3796096
  36.1254811   5.4446739  13.5478008  36.9787455   4.7084281  12.5374210
  45.2215767  30.7524395  51.4658022  45.8487558  30.9048796  52.1726561
  45.6971216  30.2102113  50.8364582  55.9816408   9.0540642  59.4855976
  56.2059450   9.3992448  60.3497553  55.4389048   9.7355032  59.0889740
  14.6540749  24.7019243  15.4321194  13.7969184  24.5229936  15.8187675
  15.2346826  24.0499353  15.8245945  17.0154345  15.5354571  24.5498037
  17.8072548  15.2320027  24.9938393  16.7583132  14.8021686  23.9908695
  24.4007945   3.3452177  35.8981776  24.4087505   2.5834489  35.3186297
  23.7170434   3.9113957  35.5401850  70.1346731  28.9205265  21.3193536
  69.3857861  29.5160580  21.2920451  70.0833893  28.5106635  22.1828437
  11.7924082  59.3359137  31.6210842  12.1400392  59.4898510  30.7426262
  12.5263286  58.9590931  32.1064663  57.4999094  52.4983549  59.0427542
  57.8060961  53.3669758  58.7820244  57.0715714  52.1506166  58.2605553
  38.4637427  46.6444206  63.1056356  38.8007760  47.4672985  63.4599066
  39.1931748  46.0304642  63.1906128  34.2429924  69.3619537  37.1176028
  35.1684666  69.6063185  37.1140909  34.2480063  68.4047699  37.1172118
  32.2215319  48.4962082  11.8606329  31.2913156  48.3118057  11.7305517
  32.3201084  48.5727453  12.8096628   7.9171437  73.6208820  51.9968462
   7.2060603  73.9579582  51.4518929   7.7489895  72.6803780  52.0552206
  70.1562309  35.8415556  19.0934861  69.7748947  35.4705691  18.2977581
  70.6433153  35.1170278  19.4859684  58.4439230  20.9942007  33.4666371
  57.9470491  21.8123388  33.4663701  58.9027452  20.9929061  34.3067026
  73.3751249   2.9160649  37.2828245  72.4900770   2.5517908  37.2976565
  73.2497072   3.8416278  37.0734572  18.7445390  59.8722124  11.8471134
  19.5837474  60.1468563  11.4776123  18.9594889  59.5660162  12.7281785
  29.6022129  46.7644405  12.3241472  29.6198726  46.9864130  13.2550871
  30.1582575  45.9886265  12.2523129   7.9450697  52.4318409  45.7011223
   8.6096770  52.8526449  46.2465191   8.4456843  51.9408703  45.0495386
  63.7727070  25.4042268   0.7193520  63.1138754  24.7102427   0.7429721
  64.1618776  25.3948879   1.5938184  52.5556564  15.6801224  61.9643545
  52.3008823  16.5633714  62.2311735  53.4343100  15.5647159  62.3261261
  68.5730696  43.5440922  18.2862294  69.1665459  42.9194546  17.8692806
  67.7581453  43.4681702  17.7898693  22.5830197  66.8243837   8.4107625
  21.9590187  67.0614958   9.0967888  22.8691721  65.9407759   8.6422610
  23.0586672  53.3291006  20.5061626  22.4966884  53.7641382  21.1473751
  23.0446601  53.9077187  19.7437739   5.7199138  70.2030325  29.8245025
   6.6254932  70.1605749  30.1316762   5.7480139  69.8294544  28.9436626
  58.9146328  16.9897544  15.6738734  58.2468987  17.6273382  15.9265602
  58.6212826  16.6595054  14.8246884  61.9932556  17.9919350  38.6032820
  61.4281797  17.5359333  39.2269683  62.1121550  18.8635254  38.9806747
  24.6390057  34.0960884  52.9002285  25.3143597  33.5034800  53.2302904
  25.0300980  34.9670267  52.9691172  77.1323633  73.0274200   2.3968914
  76.5123463  73.7291718   2.5952709  77.2615433  73.0825186   1.4500502
  10.2358055  29.6389794  14.9229407   9.7098291  29.7297311  14.1283691
   9.8654431  30.2798676  15.5298388  10.4254758  44.2091513  41.0154676
  11.1575222  44.6999884  41.3888597  10.7775187  43.8294506  40.2104044
  75.2871609  51.1952782  53.7498856  74.5534134  51.8097878  53.7348890
  76.0286236  51.6993523  53.4146547  16.3452411  15.5336952   3.6981308
  16.6108012  15.7802224   4.5840958  15.4733014  15.1539159   3.8063949
  25.4551697  44.9565840  30.2650356  26.0955048  44.3986607  30.7065392
  25.9835815  45.5679750  29.7519898  42.4221468  31.3545585  60.7996178
  42.5163269  31.6465712  59.8929262  42.4693871  30.3998184  60.7498884
  28.8563585   1.1489896   7.8855878  29.3085742   1.9811112   8.0245382
  29.5286775   0.4836194   8.0322319  26.5847325  52.1086693   4.5232382
  26.3354254  52.5284672   3.6999238  27.5377941  52.0339727   4.4750148
  33.8497710  11.5310395  38.9550471  33.5893297  11.2648845  38.0732512
  34.1564035  12.4319839  38.8525391  44.6259022   9.5141512   8.6195648
  45.3472853   9.1972780   8.0760294  44.9250364  10.3639579   8.9429498
   8.8755929  50.6860781  10.7777190   8.6932707  50.3433323   9.9027818
   9.3272322  49.9709034  11.2257993  76.8546915  29.3306565  10.3088999
  76.9177675  30.2693868  10.1327217  77.7533197  29.0618825  10.4998267
  67.1830893   6.0542405  14.5558882  66.4023066   5.6102639  14.8867857
  67.9032898   5.6849396  15.0669241  32.9399133   3.5742456  12.1215463
  32.0643663   3.1876361  12.1080720  32.9128242   4.2034796  12.8423536
  33.1252027  11.8382847  56.9978333  32.5889349  12.5538814  57.3392534
  33.4568691  11.3941383  57.7781916  44.4884586  63.1462336  24.2313576
  44.5756674  62.6094866  25.0190926  44.0747118  62.5669765  23.5914302
  32.0784044  25.8873630  18.0366755  31.4950824  25.4877639  18.6818790
  32.3832464  26.6922951  18.4554732  55.6146622  51.2229681  53.8664675
  55.2950239  50.4557800  53.3916140  56.2860680  51.5957308  53.2950687
  58.8784313  30.6039906  14.9276793  58.5840082  29.8615599  15.4552591
  59.7321558  30.3338552  14.5894253  70.0446939   1.7461930  28.7073135
  70.4823971   1.0073506  28.2845116  70.6132269   1.9720031  29.4435263
  54.6986675  45.7428932  15.1351619  55.3934860  45.1780796  14.7968698
  55.0418139  46.0737705  15.9652221   6.4592922  10.9668911  25.3675079
   5.5851519  11.3329518  25.5020785   6.4357620  10.1203799  25.8137107
  29.3788910  15.6997335  53.3419132  29.3478251  16.2244272  52.5419378
  30.2782893  15.7942593  53.6555719  66.2490368  38.1821322  32.5622559
  65.8286524  37.3761797  32.2623396  65.5737877  38.8539553  32.4677777
   7.0511431  54.6488857  60.3692818   6.8509722  54.7305727  59.4368172
   7.7039427  55.3291416  60.5346060  59.7590685  13.2897151  61.5367317
  60.6291771  13.6298347  61.7452097  59.2276669  13.5053408  62.3031187
  60.0427580  20.9601426  20.7530975  59.9650669  21.9027185  20.9005642
  59.4409800  20.5682969  21.3859916  15.1531863  48.4934521  51.6666889
  15.3842115  48.1123781  50.8195496  14.2531717  48.2064056  51.8209934
  64.2696714  11.1835122  40.6364632  65.0751734  10.6667244  40.6545782
  63.6166620  10.5959845  40.2561665  15.2041483  67.9905272  14.5415258
  15.4336822  67.8413391  13.6243093  15.6528819  67.2916937  15.0174451
  11.8842888  53.3201981  54.6145773  10.9898794  53.3791351  54.9504185
  11.8177342  52.7394295  53.8566113  69.9104977  28.4146976  27.6222754
  70.5844355  29.0921497  27.6779175  70.1280451  27.8021502  28.3249068
  26.3438129  61.8035507  37.0054197  26.3211012  61.0047913  37.5323868
  27.1041298  61.6923904  36.4346385   2.3735987  63.3049965  22.0749211
   2.0543498  64.0282965  21.5353394   3.1681842  63.0079460  21.6314936
  62.6376057  12.4555135  11.1100852  62.7357388  11.9736433  11.9313061
  61.7543221  12.8220201  11.1515212  47.6450253  18.5703778   7.1333808
  47.2800922  17.9437923   7.7582383  46.8797970  18.9918816   6.7422384
  63.4501314  40.6633759  49.6254969  64.1695213  41.0264158  50.1421261
  62.6758051  41.1395597  49.9253368  51.0211420  62.6972532  51.7901516
  50.9719419  62.0388126  51.0971403  51.7090034  62.3788166  52.3746824
  47.7159548  12.6916146  22.6931047  47.8837967  11.8303633  22.3106050
  48.5862446  13.0613136  22.8419375  58.6653536   1.2282392  50.0581169
  58.5843413   2.0047399  49.5042992  59.1233724   0.5903885  49.5107603
  54.6802092  12.4886632  12.3387265  53.7527466  12.6580489  12.5041366
  54.7792816  12.6008868  11.3933051   0.7821208   8.4241605  34.0179682
  -0.1159523   8.3068544  33.7082338   1.3265204   8.0786037  33.3105421
  51.3932371  58.7309980  25.6351972  51.6960621  59.4452095  25.0744534
  51.6562891  58.9914989  26.5179062  51.1138773  18.5327601  17.0672154
  50.6397247  19.1113520  17.6644087  50.5412388  18.4548211  16.3041675
  50.2723551  18.6298501  56.6196156  49.5026016  19.0369940  56.2221909
  49.9290848  17.8592384  57.0718908  28.8514638  73.3856821  46.6925621
  28.9929819  72.5964785  46.1697245  29.7167826  73.6006784  47.0407438
  55.8605528   8.4730166   0.2335407  54.9921036   8.5409790  -0.1632038
  55.7617998   7.8064603   0.9133806  18.9498496   6.9231313  26.5710330
  19.2498028   7.4577349  27.3061919  19.7335792   6.4588386  26.2770391
  50.7684708  15.3024805  43.5371208  50.0832748  15.2791882  44.2050982
  51.2983608  14.5243740  43.7103176  62.7049875  22.7145791  45.6617212
  62.3414421  22.5414920  46.5301132  61.9389343  22.8031397  45.0946617
  21.5110564   7.1863461  16.5896583  22.2643328   6.6341430  16.3801813
  20.9927559   7.1997249  15.7850349  39.3315244  64.9918747  23.7361288
  39.3715191  64.9387169  24.6910167  39.9285460  65.7053185  23.5107470
   5.8013731  64.0436792   5.6234646   5.6951785  63.1617737   5.2668142
   5.0953680  64.5507526   5.2226347   1.2688684  16.1577344  57.4454498
   1.7803097  15.3854156  57.6866627   1.9235498  16.8350220  57.2754383
  -0.1043459  13.2110262  12.3421204  -0.4269691  12.4137747  12.7622819
   0.7074980  13.4147811  12.8064716  51.2506723   9.9308366  10.5154252
  50.5734015   9.9153119   9.8391891  52.0252085   9.5663303  10.0870991
  66.6782427  16.5299702  14.3026376  67.6197243  16.3575530  14.3135715
  66.2763739  15.6623924  14.2574549  64.7744560   4.4913000  44.1204214
  64.9729681   5.0723201  44.8547506  65.5945921   4.4364434  43.6299133
  63.9165482  69.8079263  63.6446440  64.5801530  69.7259723  62.9597027
  63.1005702  69.9660669  63.1698787  48.9434481  10.8325434  61.4989614
  48.9678526  11.0095012  60.5585766  49.0672016   9.8858786  61.5678263
  63.9641666   4.3899783  30.7093906  63.1357813   4.8271111  30.9066820
  64.3616629   4.2322847  31.5657544  36.3065100  28.2247806  26.6558790
  36.4693785  28.9826131  27.2174811  36.7196465  28.4509921  25.8225846
  67.3584080  11.7289138  54.3474579  66.7376423  12.4410403  54.1933155
  67.8526735  12.0049024  55.1193142  42.6182795  20.4357934   5.1760334
  42.4102974  21.1706829   5.7530218  42.4806452  19.6591163   5.7183087
  70.8751774  10.8587492  63.3922672  69.9414349  10.7270634  63.2279110
  71.3126802  10.3424370  62.7153301  35.8160901  59.0782404  12.1767080
  35.9315944  59.9812031  11.8808246  35.0450492  59.1085720  12.7431059
  20.6239057  23.9272642   5.4441971  21.2795472  24.4253325   4.9560431
  20.9340858  23.9459872   6.3495535  15.7916093  49.3982506  63.2522345
  15.7028997  50.0820112  62.5882816  15.4800045  49.8067570  64.0598583
  16.4535165  19.0183938  60.0166512  16.8032873  19.9050248  59.9284506
  15.6651533  19.1237998  60.5491972  60.4178143  48.0609226  46.5910816
  61.2254953  48.5352182  46.3937759  60.6960917  47.3370981  47.1522141
  72.2613907  11.1865175  14.3181622  72.0769358  12.1257663  14.3225682
  71.3995171  10.7734156  14.2657185   1.4994989  22.0274925  19.9116170
   1.3459150  22.9379034  20.1641989   2.3836181  21.8377233  20.2255487
  35.0425935   2.1844995  33.8417172  35.2357554   1.2472503  33.8197064
  34.1651011   2.2393763  34.2201686  74.8856640  24.4309759  38.6614561
  74.0353155  24.6232319  38.2662606  74.7190809  24.4391942  39.6040130
  50.7445860  59.7748899  35.6030655  51.2073231  59.7247887  34.7666478
  50.0382280  60.4021788  35.4488063  62.0474720   6.3904631   2.1557310
  61.2021208   6.2515074   2.5827059  61.9708443   5.9332472   1.3182861
  40.6097698   6.9281781  24.9680233  41.1999416   6.3010961  25.3859925
  39.7327662   6.5948951  25.1578093  11.7322922  20.3678036  60.1022530
  11.6734946  21.1732030  59.5883417  12.1430552  19.7363222  59.5117140
  58.6099815  10.3925216  42.3886251  58.3578539   9.8792028  41.6210508
  58.5769033   9.7696704  43.1147099  29.7394562  35.7109070  31.3965416
  29.5848012  34.7754192  31.5276051  29.0670967  35.9794068  30.7703853
  67.3894358  64.6715117  59.3093777  67.3046398  64.9833298  60.2103853
  66.7685270  65.2039862  58.8122129  31.1780834   8.9388472  16.7688155
  31.5808058   8.5407913  17.5405657  31.9086552   9.0923977  16.1697161
  19.2317975  58.4453392  62.3097420  18.4474230  57.9037189  62.2223616
  19.7771668  57.9768753  62.9416800  23.6292315   6.3547683  63.5341644
  23.1980705   6.9738704  62.9450607  24.3430305   6.8563539  63.9280367
  64.7479725  31.4730024  49.8328590  63.9994621  31.9820595  50.1440334
  65.5108500  32.0025563  50.0648546  55.0859070  37.1808290  23.5082722
  55.2350235  36.2373853  23.4457421  54.7979307  37.4363971  22.6319242
  64.0837193  62.4786377  33.1288338  63.7149191  62.7991247  32.3057270
  63.4488297  61.8337679  33.4407449  25.6281900  36.8432784  29.2884636
  24.9103212  36.2268925  29.1436839  25.1971316  37.6900363  29.4043136
  62.7143383  10.2080309  43.4034061  63.6557627  10.3800356  43.4227276
  62.3504400  10.9251893  42.8842783  29.2440920  71.2159411   0.5778690
  29.2999955  71.6688172   1.4193006  28.9513832  71.8884937  -0.0371317
  27.4155307  71.0001850  30.0922942  27.2535348  70.3038406  30.7287621
  28.0374026  70.6184912  29.4727635   0.1709910  51.4434147  54.6873808
   0.2329200  50.9596109  53.8637733   0.1097736  52.3610735  54.4220877
   6.1521143  64.9647903   2.0453045   6.8920493  64.4478989   1.7266329
   5.4267192  64.3419170   2.0907217  34.2433906  34.7393632  11.9041467
  34.9750686  34.7752762  12.5202560  33.4871078  34.5086455  12.4436283
  28.2310295  68.3731270  50.0238705  28.9337492  68.8355970  49.5672083
  27.8432441  69.0335798  50.5980253  30.0878024  73.5486937  59.4577312
  30.9172344  73.3954573  59.0051937  29.8272276  74.4295120  59.1884947
  56.0312080  13.7988389   0.8121413  55.7117701  12.8977299   0.7652921
  56.5341425  13.9168668   0.0063159  36.9344163   3.6476442  51.5608978
  36.8860531   2.6928017  51.6074610  37.6669312   3.8218227  50.9698677
   7.8205806   6.8688750   2.0232110   7.6123148   7.4804085   1.3168938
   8.3194327   6.1718208   1.5971905   9.6328443  22.6722956  19.0173376
   9.1603512  21.9650507  18.5782611   9.4837511  22.5170255  19.9500191
   8.1080192  73.1961346  27.1407008   7.8803372  72.2751856  27.0132446
   9.0650612  73.2099295  27.1301508  32.8919673   0.8319500  30.4952216
  32.6550627   0.3775157  31.3036776  32.6063752   1.7347327  30.6354117
   1.8827416  66.0230160  56.4287233   2.3317835  66.8037224  56.7529058
   1.6833338  66.2237644  55.5142975  63.8479090  15.2230430  24.2131543
  63.0517864  14.8570406  23.8278437  63.7538576  16.1692953  24.1036510
  46.2059069   4.4826683  54.0325403  47.0830488   4.8591369  54.1041327
  46.3574409   3.5529307  53.8626671  41.8420744   9.1234577  49.6598625
  42.5748634   8.9094245  50.2373075  41.1845207   8.4541261  49.8491907
  64.1691828  29.8913336  47.9644442  64.6388102  30.3542995  48.6582327
  64.8501444  29.4107389  47.4937487  26.7895865  22.2267771   8.9096463
  26.8175864  21.7333603   9.7293949  27.0825958  23.1059837   9.1491729
  76.4711285  27.2493768  21.9626522  77.3146582  26.9603705  22.3107386
  76.1616325  27.8992581  22.5936031  59.0005732  37.4760270   0.8266456
  59.8301983  37.3736334   0.3603014  59.0978670  38.2956672   1.3113704
  69.2178488  34.2251468  31.9326687  69.6634340  34.5658350  31.1570311
  68.6876869  33.4988117  31.6046476  46.1370230  66.3285303  33.9010072
  45.5766678  66.8448496  34.4803524  46.9782352  66.7851257  33.9119983
  21.8408775  59.3515348   6.2770486  21.4485168  60.0407934   5.7411355
  21.1477971  58.6981869   6.3719738  10.2969491  58.1112719  29.3608022
  10.2328467  57.9745579  30.3060150  11.0982192  58.6222839  29.2465043
  23.5786629  62.6098871  31.1614990  23.4678960  62.0086193  31.8980026
  24.4490266  62.4092674  30.8173323  50.7046556  61.8358612  30.9367275
  51.5088320  62.3387671  30.8078289  50.1616001  62.0542336  30.1793361
  58.3352423   3.0567771  47.1594524  58.8524532   3.8593891  47.0920897
  57.4262524   3.3567303  47.1574926  73.4673023  10.7494044  10.8636343
  72.6277637  11.1526382  10.6427073  73.5764885  10.0532436  10.2158153
  44.8172808   4.7347826  36.0904360  44.0506172   4.1734213  36.2059093
  44.4543743   5.6063348  35.9325504  35.5559158  13.2424581  15.3251445
  36.0620189  12.6875722  14.7316861  35.4729724  12.7239943  16.1254871
  32.3928022   3.3314541  22.8653336  32.8967214   4.1441798  22.8232098
  32.1828890   3.1322312  21.9529295  27.5284863  37.2437239  64.0807772
  28.1599927  37.9609489  64.1357231  27.8918910  36.6547608  63.4194994
  74.0007544  20.7045984   2.4052754  74.8191071  21.0252309   2.7843872
  73.5891771  20.2056980   3.1109193  38.9891100   4.7912177   8.5010058
  39.2219663   4.4391510   7.6419020  39.8280287   4.9115184   8.9459503
  48.5821915  20.8025050  20.5578709  49.1191435  20.1805067  21.0488176
  49.2117691  21.3115692  20.0472689  17.0997536  63.8383341  34.0352774
  17.5961292  63.0206251  34.0007496  16.6321540  63.7996244  34.8695946
  56.3701296  10.3062820  36.1511302  55.6557751  10.4523087  36.7712975
  56.5023327   9.3582731  36.1569548  66.3717937  32.9976082  51.3421154
  67.0801497  32.8999019  51.9784403  66.6662931  33.6995292  50.7617664
  71.7666817   9.2125398  26.3737249  71.3326216   9.0130204  27.2031927
  71.3356924   8.6444730  25.7351494  54.2486048  17.7803373   1.1737324
  53.7107563  16.9897556   1.2176754  55.0573063  17.4964631   0.7475218
  62.0578861  54.1049719  63.4094810  61.9194651  53.1817579  63.6210203
  61.9633102  54.5593071  64.2466640  64.1703844  20.5953836  44.4277191
  63.5419846  21.1919188  44.8345232  64.9612427  20.6811142  44.9600935
  78.4892464   6.4304441  41.5951490  78.3514261   7.3286778  41.8958378
  77.6118708   6.1112481  41.3840675  56.5707397  23.8117862   3.8914657
  56.7357063  22.8987598   3.6560899  57.4206877  24.2413282   3.7949839
  72.9434538  33.9099717  56.7105389  73.4990549  33.3218026  57.2220039
  72.3881197  34.3404341  57.3605680  29.8612618  61.8711758  24.1887784
  30.7595801  61.9669628  24.5051360  29.3333960  61.8011856  24.9841976
  65.7872391  13.6955416  37.3169971  64.8571539  13.6240590  37.1023870
  65.8885813  14.5876026  37.6489449  36.3054538  49.1355133   7.2761834
  37.1025038  49.2503643   7.7936327  35.9427118  48.3022833   7.5768095
  67.6208878  13.3182883  23.5979080  67.7437496  14.2161250  23.2896471
  67.9274654  12.7723932  22.8738642  61.8388557  35.0187540  31.0604811
  61.4070559  34.6141744  30.3080893  61.3275719  35.8092356  31.2335587
  60.4238796   8.5337031  25.6485224  60.6246805   9.0188491  24.8481822
  61.2796974   8.3211088  26.0208273   0.6369179  31.8095541  24.5553708
   0.6983931  32.4622035  25.2528667   1.4982115  31.3921714  24.5413136
  54.9084330  71.9846821  27.3149419  54.8281527  72.1175241  28.2594728
  54.1520834  71.4454937  27.0837617   8.5909206  12.3620176  10.1061964
   8.4816122  13.2349586  10.4833651   8.0495363  12.3726344   9.3168789
  56.1653185  15.4712069  44.8945856  56.7192507  14.7143626  44.7033453
  56.2433147  15.5920827  45.8409166  62.1754837  15.3676832  19.7046983
  61.7871284  15.3643072  18.8298273  61.8401432  14.5724475  20.1186776
  57.4862051  14.6793675  55.1698208  57.9625225  15.0894904  54.4479132
  56.5639019  14.7697425  54.9302006  77.2058296  33.4280634  12.1479774
  77.4038601  33.8391423  12.9894209  77.6637793  32.5880599  12.1781111
   9.6674174  54.4279480  14.3163764   9.6326518  55.0949287  13.6306918
  10.4807293  53.9524841  14.1469991  19.2466128  63.8155937   1.2628084
  19.0994227  63.5805655   0.3466600  19.4904828  62.9919577   1.6851671
  63.1510162  20.2032852  39.5334578  62.8960323  20.1383257  40.4537821
  64.0664339  19.9239695  39.5182586  23.6058331  20.7418752  22.7397728
  23.3013391  19.8597288  22.5268531  24.2151451  20.9615541  22.0349956
  78.2935476  11.7196143  40.8742285  77.5916433  12.3486984  40.7074451
  78.5731363  11.9048131  41.7707586  27.0428753  21.0223293  11.3526809
  27.0159006  20.8989477  12.3015130  26.7397356  20.1882577  10.9939802
  35.6666875   6.3505489   5.4812235  35.7530355   5.8111465   6.2672395
  34.7489691   6.6225976   5.4770607  45.3195715  34.7651434   4.2333782
  44.7415590  34.7121620   3.4722447  45.2235031  33.9170051   4.6665812
  65.4107332  23.6451268  28.4713244  66.1033773  23.4507585  27.8399038
  65.8462715  23.6100817  29.3229747  47.8729916  18.2862520  19.3839538
  48.0943918  19.2077661  19.5182133  47.3043156  18.0665767  20.1219106
  55.1348448   1.7682561  33.1036282  56.0472059   1.8916157  32.8416967
  55.1603127   1.7528746  34.0603662  36.5090322  12.3008478  35.9009027
  36.3902283  11.3631487  35.7497811  35.8140588  12.7157426  35.3899169
  76.0330868  70.4107046  42.5092840  75.2090073  70.1052666  42.1300316
  75.7867050  70.7653332  43.3635473  60.6091690  24.9427032  23.5226154
  61.3071966  24.6466541  24.1068602  60.7487154  25.8862042  23.4415746
  61.6280429  23.6892237   0.8344503  61.7869513  22.9660810   0.2277800
  60.9705208  23.3515562   1.4426227  40.3379822  21.6495705  13.3555281
  39.8216152  21.7284226  12.5534177  39.7349572  21.2651062  13.9917541
  10.2150023   5.8591586  39.3983126  10.6470203   5.5625546  38.5973024
  10.8628571   5.7137519  40.0877857  55.0649357  34.3967462  12.2293174
  55.5977297  34.9097776  12.8369033  55.5250931  33.5607624  12.1543598
  35.9232569  57.2397184   9.8078638  36.2195683  57.7610779   9.0617967
  36.2480497  57.7122164  10.5743396  65.5855894  30.5241919  39.2556334
  64.6486044  30.5390620  39.4507480  66.0095024  30.5879211  40.1114798
  58.7397337  22.7626514  50.7038593  59.4332552  23.1956267  51.2016439
  58.1344652  23.4675002  50.4734850  65.8326864   5.2562845  37.9873133
  65.8742714   4.3874517  38.3868527  65.4414463   5.8115637  38.6617208
  67.0003557  34.2064142  33.7825799  67.6846027  34.1976118  33.1132817
  67.3289633  34.8051929  34.4531870  26.3720918  15.5658042  10.4714286
  25.6613111  15.0004280  10.7737064  26.7276502  15.9521961  11.2717485
  68.3527851   3.4685111  30.9157896  68.4219027   4.4218993  30.9658408
  69.2066193   3.1507257  31.2093997  21.6517782  56.5311718  41.3108206
  22.1371579  57.3538923  41.3722277  20.7867217  56.7867756  40.9905434
   6.3226479  33.2424903  52.2957754   6.9740278  32.6710987  51.8890238
   6.0008520  32.7427649  53.0460787  28.0244684  52.7115679  11.5972137
  28.0450916  53.6215878  11.3011181  28.9455914  52.4581861  11.6569114
  35.0148463   5.1384443   3.2002598  35.3831172   5.4767740   4.0164354
  34.4168353   4.4441611   3.4769964  68.7988234   4.8333636  19.8910034
  67.9265165   4.4400579  19.9158788  69.1152573   4.7714567  20.7922626
  19.4868410  66.2431526  21.4462805  20.3714347  66.5506697  21.6441631
  19.0168393  67.0290279  21.1674762  45.3448301   1.9871113  34.0155959
  45.5661135   2.3682615  34.8652959  44.5060068   2.3864576  33.7850976
  70.6226015  19.8206079  22.4762940  70.9036684  19.6229315  23.3696914
  69.6668339  19.8404551  22.5247574  15.9417486  51.4583778  61.4141464
  16.6692209  52.0723391  61.3138247  15.2493322  51.8144131  60.8573437
  66.9458580   8.8499618  26.3667035  67.5270033   9.6096271  26.3291955
  66.1170912   9.1643405  26.0053921  62.3466921  20.2888703  32.4034619
  61.4157200  20.3223395  32.1834540  62.7268219  21.0422182  31.9515800
  72.7827501  10.7642007  33.0334830  73.1186390  11.4395726  33.6227894
  71.9337702  10.5234253  33.4042788   9.4563723  69.0034056  54.7809935
  10.0607979  69.0545225  55.5214596   9.8943949  68.4283876  54.1535187
  17.0768631  34.8770690  46.9482136  16.2412131  34.4889975  47.2076797
  16.9247866  35.2019668  46.0607767  51.0915089  50.1238108  56.8334341
  51.2466908  49.2760801  57.2499704  51.5802002  50.7475567  57.3704195
  46.9344616  68.3155537   7.7235997  46.1113882  68.0472279   7.3152125
  46.7635965  68.2628918   8.6639524  73.4195280  28.7335205  58.8357878
  73.2762623  29.2807794  58.0636406  72.9157066  27.9382896  58.6625624
  58.4504843   7.0550734  61.1668110  57.7776480   6.3797480  61.0804558
  58.2366610   7.5029343  61.9853020  67.9916477  73.1639719  24.4450760
  67.6140642  72.4230433  23.9710641  67.6145077  73.9357615  24.0227747
  74.7869730  30.1112914  20.3152585  73.8516903  30.1040983  20.1117325
  74.8370886  29.8090029  21.2220883  38.7843513  72.8762627  16.1997604
  37.8473377  73.0296278  16.3210630  38.8555622  72.5154400  15.3160357
  10.1589167  29.6235228  44.6582317  10.5607045  30.4799938  44.5124245
  10.5728519  29.0516162  44.0118504   0.1720003  54.2048597  32.6203609
   1.0723929  53.9519072  32.8241801   0.1656250  55.1581287  32.7067804
  71.7080832  50.8389521  55.0378799  71.7709827  51.6762114  54.5782375
  72.1474457  50.9914207  55.8745098  72.4869728  24.7890878  25.3647208
  73.1008291  25.1547623  24.7277737  72.6491165  23.8460565  25.3395176
  10.4034519   6.3575697  60.5041361   9.5274770   6.5764743  60.8219099
  10.8551192   7.1996164  60.4476786   2.0872308  28.5229015  35.0447512
   2.5580749  27.7441645  34.7479200   1.1686348  28.3355069  34.8516250
  31.6533399  56.6300535  13.9209354  32.5220990  56.4388847  13.5674620
  31.7967534  56.7438412  14.8604655   3.7076715  37.7141380  25.5600739
   3.3659974  36.8229508  25.4874301   3.4547314  37.9967260  26.4389348
  58.2403994  29.4732690  17.4470484  58.1031132  28.8060975  18.1195569
  58.1448078  30.3047514  17.9115152  44.6871524   0.1874182  23.8593960
  44.9085813  -0.7411316  23.9301085  45.1329237   0.5970833  24.6008086
   3.4655052  11.0818672   8.3907259   3.5573611  11.0024703   9.3401945
   2.6064754  10.7047200   8.2008320  75.4694271  11.1495304  24.5535898
  75.8394814  10.3938198  25.0098705  75.2443743  11.7643154  25.2518916
   0.2345144  35.6163573  18.9208937  -0.0162604  35.3115201  18.0488741
   0.8937789  36.2910318  18.7583590  76.1952305  45.0163746  35.3667760
  76.0680294  45.8680916  34.9488854  75.6364202  45.0447941  36.1434078
   4.0752402  23.2362771  60.2052736   3.8120463  22.3493743  60.4509640
   4.4122854  23.1477857  59.3137598  67.5022602  31.4232135  34.8426366
  67.2942734  32.2719598  34.4519901  68.1873226  31.6156459  35.4828596
  13.0969226   6.0902619  28.9414120  12.7247918   5.6603295  29.7114182
  12.3369062   6.3402146  28.4159303  76.2359858   5.2554047  41.0223055
  76.1054516   4.4361168  41.4997578  75.3520679   5.5426705  40.7934046
   8.7988538  36.7208385  26.2125921   9.2963415  37.4939466  26.4791274
   7.8850162  36.9579029  26.3704944  78.7104698  25.8015013  23.8377595
  77.7968435  25.8091497  24.1231728  79.1068637  26.5502214  24.2833209
  71.2867355  35.9440351  13.2112324  71.8751431  35.8236933  13.9565694
  71.7844963  36.4847755  12.5979900  58.4018421   6.0439909  22.6036263
  57.7428150   5.3602356  22.4836493  59.0969753   5.8177167  21.9857121
  70.3713226  19.7631896  32.7662182  70.0809479  19.0273702  32.2272539
  70.3584957  19.4242084  33.6612940  59.1919708  37.1518159  39.9032235
  58.3569670  36.7050052  39.7640991  59.4523048  36.9023156  40.7899094
  68.7781096  73.6582661  19.8256028  68.3084631  73.7925482  19.0024185
  69.6131134  73.2699776  19.5643783  68.5548878  62.7695084  45.5133915
  69.3462515  63.0369425  45.9807777  68.5128832  63.3562517  44.7582722
  78.5309938  38.4500551  31.0846233  79.0315197  38.4245968  31.9001341
  77.6451978  38.6922193  31.3547230   4.8611051   7.5162679  19.9638343
   4.6754083   7.6505351  19.0344679   4.0126213   7.2959185  20.3482199
  21.7727876  50.0093603  55.8938694  21.2184453  50.4284143  55.2355909
  21.6424561  50.5324030  56.6848612  12.5477481  18.7988007  25.3196216
  12.7310634  19.4408166  24.6337318  12.1230161  18.0735624  24.8615098
  56.8778133  31.4788938  34.4623256  56.9432974  31.4011145  35.4141092
  55.9540081  31.3161469  34.2717123  61.7788744  58.6596632   6.2710571
  60.9026194  59.0146160   6.1213380  61.8412733  57.9153252   5.6724745
  16.6220820  62.5091839   9.4721365  16.0469997  61.7778683   9.6972764
  16.0840142  63.0754948   8.9189571  62.3716974  51.1455107  23.9051676
  62.1351957  51.6233110  24.7001553  62.8174925  50.3597975  24.2216325
  14.4813120  11.3708985  39.8185968  14.0938997  11.8874002  39.1119337
  13.7579882  11.2154281  40.4259348   3.7463671  21.2873054  48.8020849
   4.6248800  21.2887716  49.1821432   3.7771124  20.6060195  48.1304169
  72.5106382  39.0027142  31.8692803  72.3080683  39.9162030  31.6674495
  72.1068096  38.8509846  32.7237582  12.3828435  48.5220003  10.5381060
  12.9540384  48.3706999  11.2911510  12.7627718  49.2825556  10.0982869
  57.9100323  36.2869287  17.8836131  57.2773075  36.1348867  18.5855901
  57.7464104  37.1878433  17.6046658  53.1688213  19.6528077  53.7149525
  53.4923363  20.5536056  53.7265158  53.8121796  19.1606903  54.2249918
  65.2158022  49.9438286  62.6779366  64.6179724  50.3815651  63.2839203
  64.7320509  49.9013376  61.8530655   0.9586243  63.8349581  46.3359070
   1.3885216  64.5262432  46.8394375   0.1536659  63.6511755  46.8201542
  57.0279598  40.6913948  22.9189205  57.2266197  41.6268826  22.8785658
  56.0866451  40.6390810  22.7533388  16.2175369  10.4168236  54.5069361
  16.6904163  11.1166000  54.0564585  15.7298350  10.8640218  55.1985931
  62.6308823  68.1691074  28.6094260  62.4227858  67.2353268  28.5780931
  61.8328238  68.5813761  28.9401460   2.4972482  21.7047739  39.1431189
   1.7280406  22.2557592  38.9983201   2.9980737  21.7742705  38.3303618
  48.0895519  19.4429815  55.5537033  47.9242516  20.2736664  55.1077509
  47.3140478  19.3045866  56.0974598  39.0945697   9.5700610  29.7192645
  38.4277153   8.9012808  29.5634794  39.1535926  10.0468612  28.8913703
  13.4409940   5.3715312  48.7409973  13.4517539   5.9879166  49.4732475
  14.0228093   4.6628922  49.0158701   9.8397875  24.1012383  23.2468367
  10.6016183  23.7089968  22.8202295   9.6823204  23.5478663  24.0118313
  20.6010652  57.3772955  47.1735573  21.4582205  56.9992828  46.9770336
  20.7060337  57.7716637  48.0394030   1.5818448  57.1166420  35.0246549
   2.4252661  57.2183466  35.4657078   0.9737936  56.8750620  35.7233310
  67.1635246  12.1007514  29.9142718  67.5656366  12.8411043  30.3686023
  67.6365995  12.0435846  29.0841126  60.3509140  34.0008807  50.5502129
  59.6920681  33.3670044  50.8336735  60.0477457  34.2933035  49.6906710
  67.7043200  61.8327856  41.4082956  66.8603277  61.9746494  41.8369865
  67.4786568  61.5060329  40.5373526  28.2213950  68.2562971   2.8744030
  28.8643765  68.1367636   3.5733449  28.5334468  69.0206623   2.3900487
  72.5367355  20.8904314  48.6504126  72.7397490  21.6958499  49.1261435
  71.6240788  20.9947634  48.3813334  61.5277100  54.3866587  19.8506367
  61.4465570  55.3241444  20.0260401  62.0967579  54.3350506  19.0826833
  45.5976677  11.4856398  25.6839705  46.5541887  11.4496315  25.6822920
  45.3870201  12.2797561  25.1928091  72.8827190  57.7129650  17.2654498
  72.4019957  56.8857241  17.2938681  73.6001110  57.5946045  17.8880024
  54.9948502   7.4522662  25.2145410  54.5870781   7.3080736  26.0684514
  55.6944513   6.8004894  25.1700807   3.6329514   6.8952328  45.3195047
   2.9567024   6.2300253  45.4476357   3.6370274   7.3931938  46.1369658
  60.7277203  53.0841589   2.8652993  60.2303696  53.7279081   2.3608559
  61.0355616  52.4547911   2.2131008  63.4705734  16.0023928  40.9800053
  63.2653379  15.9057498  40.0500774  62.6683855  15.7390213  41.4309597
   8.2336956  18.8083696  25.7065773   7.3816490  18.6713886  25.2924705
   8.6443859  17.9437685  25.7011867  71.3176060  36.0207176  44.4814491
  72.1918106  35.9540391  44.8655748  70.7476139  36.2370729  45.2193689
  69.3632221  30.8032632  25.2727485  70.0867176  30.6515527  25.8808374
  68.5768366  30.7339334  25.8140659  28.3168554  69.7313833  55.6576920
  27.6443267  70.4123878  55.6447792  28.4394121  69.5333719  56.5861320
  76.8163776  41.4218235  17.6923013  77.1648598  41.3238668  18.5784137
  76.2052965  42.1559048  17.7550447  41.3497019  67.1653748  43.9779854
  41.4822865  68.1129789  44.0045118  42.2292995  66.7979383  44.0647936
   2.6313615  52.9864740  16.4862978   2.1674961  53.7369251  16.1149681
   2.2589451  52.2281361  16.0363400  70.1581097  57.8304720   5.1313388
  70.0543642  58.5212231   5.7858086  69.2658949  57.6373243   4.8434594
  63.1403017  54.7725487  37.4935460  62.8062725  55.6491184  37.3030543
  63.8421679  54.6399879  36.8563366   1.8837754  19.7123539  52.9247332
   2.6763919  19.1769874  52.8876591   2.0237844  20.3934264  52.2668791
  47.4647713  70.4188108  27.0305395  46.8650007  69.6728659  27.0393109
  47.4106932  70.7591391  26.1375213  64.3372154  47.6963854  43.8553476
  63.9922237  46.9130182  43.4269190  64.9249268  48.0846786  43.2072306
  72.4499893  11.3165963  38.7146664  71.9923162  10.8800530  39.4331360
  72.7823067  10.6011271  38.1725407  64.2197943  27.3142004  43.4434175
  64.9052382  27.1298909  42.8012085  63.4048939  27.0858335  42.9961824
  13.0911052  17.6562500  43.0224037  13.7613964  17.2581959  43.5778236
  13.1738937  17.2018051  42.1840382  75.4899549  45.7354832  31.2047434
  76.0239267  44.9581575  31.3686776  75.6870174  46.3201284  31.9365835
  29.9928617  55.0695324  11.8276954  30.2524376  54.2850399  12.3108375
  30.0920224  55.7828856  12.4581909   2.7880347  20.4032087   7.8603184
   1.8501464  20.3154111   8.0302876   3.0679342  19.5249593   7.6023126
  72.1792412  69.0154886  53.1651115  72.3133326  69.5027781  53.9780045
  72.8007603  68.2892895  53.2158756  60.5249643  22.6472449   3.1709397
  61.2561893  23.1327605   3.5527998  59.7674799  23.2194495   3.2935432
  50.1283884  19.7770333  48.6852932  49.4338989  20.3884101  48.4400749
  50.1588726  19.1476595  47.9647446  59.1689157  38.1283045  60.4858732
  58.5595751  37.7897668  59.8298788  58.6532116  38.1736040  61.2910032
  14.6156931  28.5036993  13.2332754  13.7929845  28.9387012  13.4572315
  15.2661431  29.2059422  13.2350278  51.0382795  40.8945370  14.0282476
  50.4464912  41.0763836  13.2982159  51.8009281  40.4831648  13.6215889
  26.5847039  53.1520176   2.0413154  27.2392440  53.7854052   1.7469877
  26.5855098  52.4748516   1.3647962  28.7650847  69.1683340  44.9706841
  28.5912657  68.4602642  45.5908871  29.2483068  68.7495852  44.2583799
  68.2147551  24.3050456  42.9964924  68.6739063  23.5207748  43.2970428
  68.0018950  24.1220617  42.0813751  18.5923493  58.6328030  44.7248936
  18.6210585  57.8607273  45.2899694  19.5110953  58.8322496  44.5450068
  66.0257578  51.3218927   1.8153840  65.9018850  51.9414806   1.0963578
  65.7045412  50.4884100   1.4713582  56.9132566  26.0081911   1.4224143
  56.2245178  26.0695910   0.7605186  57.0286369  26.9065452   1.7320579
   1.8460092  33.0801034  38.5177302   1.6444345  33.1320071  37.5834370
   2.3579696  32.2763777  38.6080098  62.3425150  30.1427341  27.1243596
  62.2026110  29.2518902  26.8033314  61.5810251  30.3207636  27.6763296
  74.0141630  48.2741451  10.4941213  74.2135286  48.6529493   9.6379709
  74.8570919  47.9561138  10.8174765  66.0452938  36.2951398  52.2597504
  65.9442425  35.6243849  52.9351091  65.1531076  36.4696622  51.9601202
  59.7572279  39.7085118  20.2666616  60.0509214  40.5289078  20.6627941
  58.8275003  39.8485756  20.0871444  26.4804316  57.8169298  52.7860880
  25.8501267  58.5058117  52.5754023  25.9644365  57.0107269  52.7819014
  44.6255589   6.6225469  21.3561964  43.9449263   7.1214449  21.8079448
  45.4296970   6.8284786  21.8328381  55.6074047  41.2376976  31.5376759
  55.9387255  41.1074638  30.6491399  56.2590361  40.8189583  32.1000552
  71.8024969  15.4985881  44.2906332  71.8901730  14.9689770  43.4981298
  72.4480724  15.1331615  44.8955488  56.7384434  28.9165878  12.8568280
  56.8480158  28.6193442  13.7600839  57.3878574  29.6121001  12.7531099
  75.5295753  20.2355647  36.6623139  76.0051250  19.4239902  36.8396044
  75.4026651  20.2364326  35.7135630  60.2266598  72.1542978  42.6263046
  60.1988316  73.0314159  42.2440434  59.5056963  72.1444178  43.2558680
  71.7807865  39.7473979  35.1026082  72.6928186  39.4573283  35.1196766
  71.2814140  38.9558339  34.9018931  36.9027138   4.5385483  43.3429813
  36.7890596   4.9008307  44.2216539  36.0192442   4.5210430  42.9750061
  48.6065531  17.2051132  32.9760313  48.0427599  16.8192184  33.6464453
  48.7515831  16.4970505  32.3484612  55.2398396  23.9547348  48.6572933
  55.3883219  24.3078089  49.5345163  55.1959562  23.0070806  48.7847948
  49.3137789   7.0040667  26.6605949  49.6045637   6.1873150  26.2548947
  50.0365353   7.6144844  26.5148425  70.9187555  40.1946640   4.9278191
  71.2739134  41.0791016   5.0165057  71.3380957  39.8459339   4.1411978
  61.6604805  27.5035024  26.0922050  61.0485458  27.7377033  25.3944111
  62.4515152  27.2220016  25.6325769  15.8125448  16.6235328  20.5120444
  15.1281965  16.4014745  19.8807049  16.0409939  15.7888508  20.9211254
  69.1509151  25.0115538  25.2041960  69.0359592  25.1209259  24.2602396
  70.0948954  24.9027872  25.3195095  70.6974792  33.4215117  59.4882917
  70.9830523  32.8813481  60.2251101  70.9371853  34.3138242  59.7383976
  73.2839823  10.0699174  17.5484395  73.9503908  10.6953478  17.8329980
  72.9505396  10.4321301  16.7275572  14.0011656  33.7978601   0.4655172
  14.6096265  33.2198858   0.9259016  13.9352393  34.5712709   1.0256249
  23.3116055  56.1990309  62.9629612  22.7959299  55.3932190  62.9941607
  24.1629457  55.9255075  62.6214457  59.9302340  17.7137029  40.5555820
  60.1982927  18.3547115  41.2139797  59.0274906  17.4955463  40.7873106
  67.5648451  32.5931120  23.6242437  68.4875441  32.3822904  23.7671113
  67.1878958  31.7889142  23.2673049  65.8238125  21.9609284  53.0969095
  66.4790916  22.6244140  53.3128452  65.9524584  21.2750864  53.7521172
  64.8852491  39.3171740  29.0731692  64.4073486  40.1241779  28.8818860
  65.2314091  39.4473433  29.9560404  53.3033562  65.5620098  27.0027494
  53.2010984  66.2875938  26.3868713  54.2494392  65.4830790  27.1249294
  13.2869232  55.2608156  19.9091876  12.9799652  56.1456013  20.1070786
  13.9714813  55.3861809  19.2519999  18.3576250   3.3536184  50.5603027
  18.2297611   2.4791832  50.9280586  17.6448464   3.8751981  50.9292650
  23.7283132   1.1412498  47.1879578  23.2549903   1.5945026  46.4902735
  23.2455346   1.3587305  47.9853678  14.4012618  46.4374018  21.5625668
  13.5354030  46.2099600  21.9013762  15.0111639  46.1034727  22.2203970
  76.5848541  37.1749926  18.4223938  77.5330925  37.2344565  18.5387588
  76.2218332  37.4841666  19.2523706  77.6721430  34.9022126  23.7761235
  78.1098986  34.9405551  22.9257512  78.1470776  35.5318117  24.3185949
  60.6545734   2.4333327  58.4989452  61.2260389   3.1901714  58.3691359
  59.9746323   2.5294426  57.8321028  15.9464872  14.9990952  13.9824343
  16.6553664  14.4416833  14.3033922  15.7011986  15.5333936  14.7378087
   0.6011886  21.4478707  23.2929397   0.9781089  22.1623850  22.7794909
  -0.1533686  21.1570287  22.7808022  76.1248016   3.8228798  30.2109885
  76.1252928   3.7859017  29.2545033  75.8544064   4.7179300  30.4159355
  70.9215879  49.1146564   8.7242091  70.5342722  49.3635082   7.8849876
  70.6601858  49.8125076   9.3249625  47.3000336   9.6793163  57.3164320
  47.3630238   9.4346088  56.3931894  48.2075500   9.7057247  57.6196718
  68.6341000  38.0924082  43.1156158  67.8007412  38.5353684  43.2753992
  69.0934610  38.1365561  43.9542294  59.7172832   5.4166120  20.0587630
  60.4306936   5.0095975  20.5503106  60.1566315   5.9521151  19.3981230
  54.8103189  53.3195543  17.2700703  54.3771601  53.9918756  17.7959907
  54.6852493  53.6057615  16.3652635  27.1068859  42.2639608  19.2131460
  27.6646614  42.7989960  18.6484718  27.4971724  41.3906813  19.1772258
  46.9431067  22.0302320  57.4431181  47.7973270  21.7073870  57.1562147
  47.0285463  22.1232080  58.3919525  74.7456973   0.1881287   4.6116108
  74.5131915  -0.7156733   4.8245034  74.0329688   0.7114813   4.9781576
  65.9933853  47.4932241   9.3308491  65.8983755  48.2803249   9.8672098
  65.1033163  47.1509552   9.2480153  21.7082214  49.4865131   8.5790598
  22.4297428  48.8635731   8.6661243  21.1669064  49.1291857   7.8751230
  44.8722219   5.9256160  52.0150280  45.1420784   5.4814327  52.8188372
  45.6807232   6.0223734  51.5118408  35.0422621  33.0317044  63.1450081
  35.3239298  32.8733683  64.0460205  35.8383274  32.9285979  62.6235819
   5.8623129  24.9294233  61.7387533   5.5792600  24.3053365  61.0704517
   6.8183637  24.9076080  61.6972494  72.4747467  39.3552327  15.5509925
  72.8194714  39.1412902  14.6840274  73.1896210  39.1445661  16.1516654
   0.0778104  30.9199023  12.6160848   0.4524874  30.9869838  11.7378199
   0.7232834  30.4184127  13.1141865  49.7687531  28.4787059  44.9575186
  49.0233755  27.8803563  45.0087357  50.0782919  28.5535264  45.8601904
   5.7671046  15.1450264   1.9070086   5.2489686  14.8659611   1.1520980
   5.9109509  14.3425715   2.4086121  77.3578548  34.3892503  56.7504978
  77.4066544  34.6407461  55.8282137  77.8059816  35.0958109  57.2154570
  52.5606346  34.9324203  11.8345582  53.3743000  34.7054768  12.2847509
  52.8087330  35.0036836  10.9128213  77.3994780  18.2484102  27.5018167
  76.7215872  17.5786746  27.4115562  76.9491291  19.0718842  27.3139191
  73.2941151  11.9067633   4.8185438  73.8727427  12.1361291   4.0913469
  72.4241924  11.8490231   4.4234073  76.3584852  26.7216420   9.8602545
  76.4966679  27.5332165  10.3486037  76.7300987  26.0394025  10.4194367
  43.2771492  65.7798386  14.9637938  43.9731264  66.4244223  15.0917256
  43.6653662  65.1187468  14.3906677  67.7497959  13.6654663   1.1943357
  67.4316931  14.5681179   1.2105528  67.5559950  13.3274770   2.0686570
   3.9826977  55.6696510  26.6987753   4.0086901  56.2246418  25.9193277
   3.4960434  54.8927259  26.4234829   5.0258416  51.4784575   7.3767966
   4.8446706  50.5802917   7.6537555   5.4297519  51.8881416   8.1418121
  68.5114050  24.7860408  10.3531277  69.0868521  24.6191788   9.6066338
  69.0395403  25.3178835  10.9484828  55.8104372  21.9456506  27.1861053
  55.8790445  21.3977551  27.9679823  56.5018225  22.5993776  27.2903156
  61.1783457  34.2669153  24.3937802  60.3144121  34.2588711  23.9817381
  61.0332346  34.6769881  25.2464318   4.1298643  28.1258988  26.0395861
   3.8686389  27.5517845  25.3195953   4.8823994  27.6863527  26.4354658
  50.2336168  30.0654578   4.6920687  49.8543024  29.9281669   5.5601150
  49.9953794  29.2799830   4.1996223  21.4265037  33.5008931  21.8319917
  20.7917380  33.7857366  22.4893880  22.2449064  33.3986449  22.3177838
  57.6582432  36.1996388   2.5472915  56.8362713  36.6691399   2.4052879
  58.2504511  36.5462899   1.8799442  56.4994144  22.6999354  58.6025381
  56.1419630  23.3317423  59.2264605  56.3729239  21.8496847  59.0236139
  19.0007675  31.2430406  16.9518828  18.0765843  31.3434982  16.7237914
  19.0099549  30.5541182  17.6163638  69.8061991   6.3914120  62.2586250
  69.8296642   7.0659804  61.5799236  69.9270630   6.8715608  63.0778217
   2.4485037  25.8527660  16.7010272   3.1146133  26.3689423  17.1550000
   2.9470736  25.2212954  16.1824656  21.1942697  48.1306982  52.3275518
  20.4394031  48.3667946  51.7884159  21.8968463  48.7033653  52.0198631
  77.9139900  71.4011145  36.8084359  77.3551321  70.8904934  36.2226248
  77.3165655  72.0166731  37.2331786  33.1462550  20.4099107  57.9488087
  32.8990102  21.0620928  58.6043644  33.5553646  20.9177732  57.2481394
  55.7364321  41.0171843  26.6731286  56.0544682  41.6306782  26.0107780
  55.6462479  40.1863575  26.2064123  38.0644369  15.1715934  63.3581972
  38.8285613  15.6642318  63.6576271  37.6529551  15.7401013  62.7072668
   8.7527019   3.8497549   7.3740959   8.8112271   3.5903922   6.4545649
   8.1865048   4.6215278   7.3696971  37.6183939  31.2495995  19.1577160
  37.6735854  31.2304378  18.2023001  36.8950462  30.6589270  19.3677354
  29.7050571   3.3905867  43.1162834  30.0325584   3.0658761  43.9550543
  30.4809499   3.4359565  42.5575686  60.2007675  72.2293043  38.8349438
  59.5436001  72.9148674  38.9548230  60.5205917  72.3576260  37.9419255
  49.0430737  24.9323273  57.1961546  49.3987942  24.0633488  57.3820925
  48.9929295  24.9712658  56.2410641   0.5270646  46.5459156  32.4932146
   0.9706850  46.1400461  31.7484307   1.0020135  46.2239695  33.2593775
  65.5884933  51.8815422  56.5901041  65.6144905  51.2873077  57.3400640
  65.5032778  52.7526474  56.9775915  58.1659794  56.4317417  21.9338608
  58.6458731  55.6714582  22.2623444  58.2179117  56.3544655  20.9811997
  39.9651194  10.9175253  62.2293615  39.2522359  10.3617418  61.9145060
  40.3438473  11.2942171  61.4350653  15.8332276  43.4938955  17.8134429
  16.6557825  43.7892723  17.4230754  15.4271507  44.2928410  18.1496215
  59.6154800  74.0085138  51.7853689  59.5993188  73.3591551  51.0823011
  60.5101660  73.9729333  52.1237516  72.2281361  40.0862741   7.7669233
  71.9457483  40.5307674   6.9676018  72.1527338  39.1542888   7.5621170
  10.9426391  33.8778567  40.0810575  10.3656375  34.5906234  39.8067188
  11.6868269  33.9277315  39.4811201  75.6117868  56.4753151  33.4719205
  75.5564833  56.1947727  32.5584269  74.7302294  56.3376760  33.8185358
  73.4310471  28.2979883  -0.0433830  73.0718266  28.2628263   0.8431574
  73.1078158  29.1253198  -0.4001383  71.8939304  63.1684399  28.6924458
  72.1582460  62.3155737  29.0373850  72.1116114  63.7868071  29.3899202
  45.1500559  69.3768644   4.3467864  46.0486984  69.1140985   4.1477129
  44.8744345  68.7797976   5.0423276  43.0211067  62.0764017  17.8572953
  43.0313826  61.1500931  17.6162970  43.7892056  62.4457741  17.4216127
  66.8815660  32.9567838  38.6883974  65.9437180  33.1468511  38.7118554
  66.9727087  32.1397924  39.1787529  71.3598824  34.7020745   8.2314354
  71.2392044  33.7525129   8.2326388  71.8108511  34.8872423   9.0551895
  69.9124956  21.5277433  48.0873442  69.7935343  21.5864325  47.1393776
  69.1264486  21.9335675  48.4529543  78.5811424  53.5887718  52.9455709
  78.1814187  54.4042921  53.2478619  78.0159611  53.2955551  52.2308493
  28.8361049  25.3603101  31.3338494  29.5738816  25.6363702  31.8776393
  28.4515929  26.1782694  31.0186887  66.2724400  54.6735477  50.7048607
  66.0671091  53.7855530  50.4124022  67.2250891  54.6808290  50.7978296
   0.0422673  37.4165869  57.1729946   0.0790552  37.8756833  56.3338852
   0.6383995  36.6752577  57.0667553  65.3397703  52.9887676  21.1720800
  65.1156902  52.9085350  20.2449441  64.5267725  53.2705069  21.5914726
  58.4365654  47.1691561  39.3242383  59.1588402  46.6510057  38.9691734
  57.9596615  46.5603352  39.8882699  71.3319874  24.6981096   8.2283193
  71.1597443  25.4518986   8.7925559  71.9885826  25.0101161   7.6056105
  44.3815660  17.8807211  54.8501539  44.9953032  18.1270552  55.5421638
  43.8172293  17.2214556  55.2540398  23.6938357   8.9900947  37.3846650
  23.2461357   9.1361147  38.2180166  24.2937732   9.7313571  37.3019791
  75.2671576  40.3776979  11.8698895  75.6137943  41.1838150  12.2523129
  75.5006123  39.6946740  12.4985480  24.8441768  17.7075613  21.5365052
  24.9132037  16.7726851  21.7300844  25.6997466  18.0651295  21.7739391
  31.3888574  15.2261984  63.7576103  30.8562350  15.5822301  63.0464268
  32.2852755  15.4764485  63.5339117  74.5082426  32.7742696  28.5634804
  74.2620134  32.3849535  27.7244139  74.8857975  33.6229038  28.3321619
  13.7981081  44.9361610  56.9021320  13.9890683  45.8442163  56.6671848
  14.5293224  44.4360924  56.5395164   4.4831097  45.9513092  28.0558276
   4.1604996  45.2556562  28.6287355   5.4283977  45.8070517  28.0127954
  20.2918124  68.9858818   6.8082237  19.8144972  68.2163811   6.4979589
  21.1634946  68.8986492   6.4224845  44.0562963   3.1120619  15.5735850
  43.8574314   2.8559160  14.6729898  44.5368147   3.9354607  15.4878545
  20.2999830  55.2725172   8.2252276  19.3598676  55.3554392   8.0654168
  20.3690076  55.0999212   9.1642040  68.9753151  58.2693815   9.9248040
  69.9268341  58.3733797   9.9297309  68.6779022  58.7494421  10.6976688
  75.1611567  66.0821104  29.5794654  75.0429487  66.2037659  28.6374140
  75.4427767  65.1717615  29.6699309  52.5674629  55.7872725  27.2266650
  52.3859882  56.2559128  28.0413270  53.4470797  55.4294729  27.3470140
  63.2337999  45.2010107  52.3608112  62.6992941  45.9784126  52.5226068
  64.0758562  45.3998470  52.7702427  68.5039520  25.6926370   7.6302731
  69.0172625  26.4991617   7.6778054  67.6078367  25.9672499   7.8246975
  22.4088764  57.1646690  35.6459880  21.7248726  57.6855326  35.2251935
  21.9354486  56.4598465  36.0879421   8.8698912  38.6618090  12.6136386
   9.7295088  38.2856083  12.8027463   8.2909709  37.9045320  12.5263846
  52.6088428  29.9911690  59.5690393  53.1717730  30.7577848  59.4611502
  53.2028103  29.2957067  59.8514700  11.9303882  30.4483461  18.7571549
  11.0813046  30.8865833  18.8140416  12.3134279  30.5543089  19.6279502
  17.9234540  37.0915127  15.5224502  17.2662258  37.6168084  15.0660014
  17.6562500  37.1190810  16.4411855  42.1424055  72.5141096  28.9014840
  42.6333141  73.2735634  28.5876918  42.8020144  71.8279982  29.0034604
  24.1012859  12.5868261  57.3461151  24.7917533  12.7000523  56.6929197
  23.3191395  12.9536605  56.9339132  61.3734770  64.4465256  54.8485708
  60.7775259  64.7637367  54.1700029  60.7973814  64.1196489  55.5395794
  55.4808950  61.0904026  42.0699930  55.8298969  60.4186010  41.4842367
  55.3478909  60.6368256  42.9023457   3.1581843  62.2851372  13.3110881
   3.5907915  61.9831467  12.5124121   3.8069755  62.8446436  13.7380028
  64.6912956  37.6148629  15.5056643  65.1734352  37.3033571  14.7396791
  63.7725735  37.4494386  15.2939582  45.0574350  15.8215427  42.8263426
  45.0067472  15.6005538  43.7562990  45.8788919  15.4286683  42.5312281
  56.9050312  38.3945680  62.2555351  56.5628195  39.2839265  62.1651602
  57.0645428  38.2935238  63.1939268  54.9296093  29.3554282  10.8908224
  54.1116810  28.8663363  10.9803545  55.3272152  29.3184876  11.7607510
  69.4288445  47.5210714  14.7726488  69.5826340  47.2447968  13.8691819
  70.2571154  47.9146671  15.0470340   3.0379620   9.4814330  63.7589741
   3.3307672   9.0280908  64.5495272   3.2282642  10.4042327  63.9276648
  64.5202303  36.4272022  31.3568044  64.2919922  35.5187678  31.5539956
  63.6820745  36.8894935  31.3537550   8.9369929  35.2645683  23.7786722
   8.9189810  35.7552719  24.6003270   9.7910112  35.4676890  23.3970618
  78.1988102  60.2037859  28.5059547  77.2837744  60.2422476  28.7842751
  78.6788677  60.6592369  29.1975784  61.4831066  39.1043019  14.6477020
  61.6365147  39.8264456  14.0384376  61.9450569  39.3618083  15.4455268
  10.6567585   9.0575910   9.4318527   9.8317158   9.1152513   8.9499694
  11.0035801   8.1933534   9.2104018   5.3101122  38.8165808   8.9857000
   5.1502836  38.7520170   8.0441493   5.7565832  39.6560836   9.0958381
  73.6254215  21.3380527  57.6411676  73.3019161  20.6653571  57.0419502
  73.0726004  21.2528038  58.4179258   9.0114254  42.0075607  13.7484074
   8.7197703  41.8532515  12.8498757   9.9036062  41.6616964  13.7733603
   0.8664951  69.9935293  20.4086041   1.7348927  70.0790787  20.0151610
   0.3643994  69.4842815  19.7723651   5.1327020  11.8398213  14.4418204
   5.0788027  11.0626066  13.8857055   5.5209690  11.5240455  15.2577662
  61.0097790  60.3109026  57.0480919  61.7032194  60.9211636  56.7971849
  60.8447552  59.7975779  56.2572098  55.3134298  58.6997747  26.2689757
  55.7371664  57.8780222  26.5167689  54.4817829  58.6928082  26.7428327
   8.7112695   9.4288909  55.8413839   8.0788738   9.3313187  56.5532780
   8.4948301   8.7244558  55.2305222  30.8846426  19.9063587   4.1710848
  31.4804935  20.4416037   3.6469609  31.4546895  19.4480431   4.7885197
  72.3531914  55.8981657  10.7177830  72.7343130  55.7002640  11.5732431
  73.0076122  55.5955076  10.0882125   9.9436331  63.5106707  38.2102895
  10.2897453  63.0053711  37.4746871  10.6810689  63.5883141  38.8155913
   0.5739615  14.4807088   7.2392243   0.0871172  13.6596429   7.1680540
   1.0528186  14.5476055   6.4131176  55.7999563  45.8248329   8.6216456
  54.8865080  45.8411169   8.9072645  56.2214565  45.1919746   9.2030728
   8.6044014  60.8804703  23.7178612   8.4244961  60.6012058  24.6155667
   9.1586208  60.1879120  23.3580947  74.6929502  31.4600039  45.2508736
  73.9729548  30.8521152  45.0826073  74.6580839  31.6172624  46.1944246
  11.1091030  18.9832091  40.7508278  10.3626716  19.5456445  40.5440903
  11.7677903  19.5802104  41.1057234  17.8156698  37.2436070   5.4645258
  18.7528324  37.4068284   5.5709094  17.4647367  37.2738504   6.3545614
  51.6177845  47.3845434   4.9366474  52.4252939  47.7749872   5.2708822
  51.4803123  47.8073359   4.0889561  15.0797749  31.4492345  22.8026581
  14.9769843  30.9672546  23.6232448  15.9301615  31.1683083  22.4647903
  13.5945487  72.6481485  59.5516682  13.2142723  71.7963076  59.3372297
  13.9602160  72.5332451  60.4287767  62.4866152  57.3636770  36.1665010
  62.3221016  57.0137024  35.2908969  62.9692411  58.1759214  36.0130048
  71.5762568  33.9283967  51.8920231  70.9586716  34.6370006  51.7111731
  72.4241257  34.3648934  51.9745970  65.8462048  40.1057100  13.4839714
  66.0630798  40.8573961  12.9324579  65.3904390  39.5019150  12.8975034
  62.1333885   1.2983869  15.0334418  62.0475531   1.8741585  14.2736065
  61.5460634   1.6764012  15.6879568   6.0717833  67.0935917  -0.0532921
   6.4753520  66.7558765   0.7462768   5.1306188  67.0088434   0.0992176
  67.6860428  38.5986590   2.2089885  67.9263449  38.3351731   3.0972791
  68.1929922  39.3948555   2.0499226  56.8876696  51.5615797  17.3339772
  56.2623835  52.2845936  17.3839772  57.5159597  51.7394495  18.0338645
  32.9142737  67.0887566  56.1008263  32.3778033  66.5329218  55.5355978
  33.6871266  66.5582848  56.2945557   2.4613251  30.2855825  14.0100563
   1.9140844  30.5557847  14.7474504   2.9024637  29.4934130  14.3168056
   3.0048838   2.5286716  43.7912083   2.2208723   2.0834467  44.1126633
   2.6821369   3.1226513  43.1135273  72.3493528  54.1608191  14.7612131
  72.0193434  53.5556364  14.0970743  71.8056202  53.9917660  15.5306363
  62.2588968  71.3336992   5.3864330  62.6497316  70.6951952   4.7899482
  62.8674746  71.3762093   6.1240393  27.1517563  57.8624439  42.2085667
  26.7597222  57.5339508  43.0176592  27.4234343  57.0749426  41.7371225
  43.3334494  33.3555889  62.2702408  42.9555607  32.6574039  61.7354774
  44.1364098  32.9759860  62.6271582  68.2470369  47.4562550  19.2188644
  67.3409843  47.2070122  19.0367138  68.7340021  47.1708250  18.4458041
  65.1710081  16.6681695   3.3827457  64.2259216  16.6937053   3.2330951
  65.2627754  16.3502192   4.2809206  49.4974136   6.1519825  29.2525601
  49.6368313   6.4733964  28.3617806  50.0925016   6.6734546  29.7912312
  60.4770994  73.1254292   4.1552299  61.1488867  72.5922489   4.5802683
  59.7101021  72.5544119   4.1118059  65.4065418  62.4536419  27.4174213
  65.6905937  62.6159954  26.5178728  65.5661106  63.2807827  27.8719592
  23.8709450  63.1632519  20.0186586  24.6808243  63.1609964  19.5084417
  23.2060146  63.4872580  19.4111025  41.2573957   1.8967609   9.5945132
  40.4760265   1.6767845   9.0872586  41.0609293   1.5931565  10.4807734
  62.6766014  63.2143593  30.7329679  62.7214813  62.3432064  30.3388691
  62.4721813  63.7976456  30.0020647  66.4440918  37.0544815  40.2770329
  65.6937551  36.5754890  39.9251842  66.0573864  37.7269983  40.8377552
  17.5278425  24.8926163  11.4592135  18.1373584  24.1945744  11.2195039
  16.6798854  24.5932722  11.1311960  12.1419752  53.4509611  26.9435000
  12.9090416  53.8821888  26.5668297  12.2717440  52.5219584  26.7528486
   0.3018574  40.4653454  13.3670735  -0.4234119  39.8736048  13.5672259
   1.0880808  39.9523067  13.5538137  73.8350153  55.5386591   3.9643195
  74.3379974  55.2117634   3.2184133  74.4923687  55.9126425   4.5510498
  71.7932892  67.1683693  38.7016225  71.8647146  66.6036749  37.9320455
  71.6948509  68.0504370  38.3431554   9.8792154  70.7599974  26.2619901
  10.0328767  70.3738546  25.3997159  10.5964339  71.3834763  26.3764763
   2.6327136  42.7201891  49.6179724   2.1728656  42.0007992  50.0506926
   3.0540639  43.1989098  50.3317833  74.9862146   5.0777847  35.2697206
  75.2535343   5.2079093  36.1795783  74.8135614   5.9604925  34.9422312
   8.2888329  40.0863886  25.0181150   9.0271842  39.6386790  25.4311824
   7.7050155  39.3801856  24.7412276  72.6766682  73.7788153  42.3821831
  72.7583933  72.9626417  41.8888187  71.9294071  74.2254400  41.9842386
  19.3048644  65.1659822  28.6616921  20.1203132  64.6984196  28.8424158
  19.5631742  66.0861111  28.6081243  26.5116858  22.6421762  62.8698492
  26.5964127  22.0853734  62.0958805  26.9484472  23.4584570  62.6266336
  75.8716297  22.0255733   9.1268808  75.3441143  22.1497488   9.9158949
  75.7457638  21.1049366   8.8970578  34.7329068  25.9945416  53.6899185
  34.9011374  25.2891660  53.0651188  34.4337416  26.7262769  53.1502008
  18.7812352  43.4372234  13.8490033  18.7798381  44.1875267  13.2546365
  18.4005475  42.7244759  13.3358753  21.9073129  24.1807795   8.0019903
  22.8048420  24.0679431   7.6890343  21.8963981  23.7521577   8.8577920
  39.1561323   1.1134121  59.9999857  39.6741467   1.4355060  59.2623186
  39.2926567   0.1660273  59.9929857  72.3328012   0.3714773  57.7307606
  71.8413442   0.0117084  56.9923353  71.8984311   1.2018558  57.9257584
  68.6744785   5.5480886  17.1583068  69.2505455   6.3120198  17.1302342
  68.4823847   5.4270077  18.0881846  13.3465791  37.9229188  15.3853476
  13.1570554  37.4494767  16.1953878  13.3227563  37.2509980  14.7040343
  54.2220116  22.3245454  16.2321281  54.6723843  21.4838171  16.1510551
  53.8487530  22.4809361  15.3646886   7.1231592  13.9416742  56.9791651
   7.7319223  13.2042634  57.0223522   6.4512217  13.7359262  57.6290894
  12.6544607  71.1311626  25.1159430  13.1735873  71.3862991  25.8786011
  12.6619124  70.1741028  25.1304364  54.1892338  40.7660103  41.8355322
  53.8017035  41.3032818  41.1445999  53.6575651  40.9512997  42.6096296
  70.8630991  54.6260118  37.3925114  71.1716461  54.7442436  38.2908702
  70.0754881  55.1670980  37.3366117   6.2808496  62.4013376  27.0778465
   6.9007230  61.6762066  27.1564245   6.4382887  62.9363871  27.8557706
  13.5654187  32.9724860  14.7462046  13.0426335  32.3249602  14.2733014
  13.1678748  33.0122423  15.6160378  71.1215067  46.8188477  31.5231204
  70.3588486  47.2235298  31.9364142  71.8436861  46.9985056  32.1251297
  61.4750195  73.6777449  10.5454755  60.9623957  72.8703117  10.5067372
  61.4112043  73.9583969  11.4583802  73.5577631  42.1861553  38.8055348
  72.6102400  42.0864773  38.7133574  73.7423372  41.9033670  39.7011876
  18.2584691  60.8544302  62.7898979  18.6402428  59.9768400  62.7722359
  19.0109801  61.4415741  62.8621387  68.6070776  41.8235207  60.8893394
  68.8672400  42.7170563  60.6654167  67.9928064  41.5728855  60.1993561
  15.0852370  61.4681768  41.6685534  15.7994294  60.8445692  41.7999840
  14.5590341  61.4011002  42.4653244   5.9595728  53.9824629  34.4015360
   6.8067735  54.0907812  33.9693928   5.4553986  54.7517347  34.1364670
  67.9401875  30.4856920  20.7776690  68.2300615  31.3970852  20.7381034
  67.1498299  30.5089378  21.3171434  21.3657856   7.0730346  19.7777593
  21.3620687   7.2483492  18.8367581  20.6047487   7.5472045  20.1127434
  70.5071878  53.4653568  54.2068577  69.6369600  53.0975342  54.0531111
  70.4868746  53.7555218  55.1187897  49.3240070  69.8075819  43.2870483
  48.5497236  70.1051092  43.7647486  50.0504160  70.2861691  43.6864519
  28.3208966  62.7992058  57.0348549  27.9398751  62.0388222  56.5956879
  27.7500057  63.5277367  56.7908049  29.9662709  53.0198765  30.1320338
  29.4987488  53.6048651  30.7282257  29.4018769  52.2501183  30.0601959
  18.9541960   6.9062793  35.3561831  18.4210563   7.1514088  36.1124277
  19.8179364   6.7176795  35.7230830  70.7849360  52.8623724  25.3347349
  70.3201962  53.6955118  25.4129815  70.0979662  52.1984386  25.3938937
  68.7479973  43.9970398  52.8919649  68.3764124  44.5009899  53.6159754
  68.6460686  43.0834770  53.1588840  10.5884552  27.6888537  11.8542254
  11.0422111  27.2326994  12.5629282   9.6611017  27.6229143  12.0820415
   7.6538563  72.9411125  22.5359416   7.2523916  72.1590567  22.9146814
   7.1446806  73.6686659  22.8932071  66.1108351  69.5354509  28.4298587
  66.6470528  68.9871407  29.0026212  66.7432499  70.0668383  27.9462194
   4.3740699  36.4700031  41.5002966   5.1402855  36.5105772  40.9280205
   4.5341879  35.7112885  42.0614958   4.5022523  17.3725688  27.4598336
   4.9375626  16.6938055  26.9440651   3.7360507  17.6143134  26.9395185
  72.5481367  72.9485321  32.7844810  73.4736204  73.0583572  33.0027652
  72.3595619  72.0337725  32.9939556  11.3685405  48.4370375  49.3522167
  11.1595285  49.3563318  49.1865396  11.1275125  47.9869318  48.5425663
  63.1533480  11.9656062  23.5578465  64.0707064  11.8213296  23.3257437
  62.9376316  12.8122139  23.1667542  63.6006403  25.2033806  15.8713436
  63.5644436  24.5117283  15.2106333  63.7704802  24.7416186  16.6924179
   1.6454605  67.7653599  63.0643129   1.6857819  67.9494238  64.0027857
   1.0772232  66.9982100  62.9948997  65.8887148  64.6320486  29.3086338
  65.4898453  65.4356956  28.9750409  65.5453825  64.5455170  30.1979399
  57.5039959  66.0079145  38.5073209  58.0253315  65.4310608  37.9490399
  56.8527460  66.3876295  37.9174733  73.7785292   6.7734182   5.2584082
  73.2352781   6.2288374   5.8280957  73.7654734   6.3236368   4.4135663
  20.1333976  62.6694822  59.6380091  21.0523009  62.9358912  59.6084976
  19.8427653  62.9088736  60.5180407  41.4934731  11.2560666   6.2297463
  41.7820549  10.3515673   6.1079466  40.5689478  11.1826718   6.4665818
  20.8131695   3.5242081  31.1786819  21.5879726   3.1784767  31.6218328
  20.1795411   3.6682358  31.8815351  63.2812309  24.7220707  39.4086075
  62.6144314  24.7239518  40.0953436  62.9703569  24.0757537  38.7746835
  25.9942007  73.2729387  20.8379126  25.8444238  73.1753922  19.8975492
  25.1535392  73.5718060  21.1846066  35.3604484  62.5187492  22.0379567
  34.8590732  62.1924019  21.2907290  35.7554388  61.7358255  22.4216795
   8.9834571  66.5814829  22.2689557   8.7787873  66.6238832  23.2030582
   9.2377108  67.4750996  22.0386672  51.3207960  64.1599178   4.3232217
  51.5194893  63.2328749   4.4549200  52.0397949  64.4842911   3.7809595
  44.0049887  37.7069879  63.9833641  44.9011946  37.9948449  63.8096285
  43.8036633  37.1049666  63.2669353   2.1277502   7.7887946  21.5319395
   2.2632885   8.1259060  20.6463790   1.2906885   8.1639183  21.8055105
  45.4827595  10.4657865  60.6886530  45.3700495   9.5259035  60.8305979
  45.0018024  10.8759463  61.4074564  71.2554646  16.3584793   8.8298821
  72.0877409  16.7885351   8.6334133  71.5036249  15.5497169   9.2777133
  37.7232170  74.1790819  19.3750691  38.5859728  73.8457966  19.1284776
  37.6990986  74.0990257  20.3286099   6.1738354   9.5565516   6.6608733
   5.7820040   9.5358771   7.5339556   5.4884601   9.2214710   6.0827613
  27.6729679  64.3319559  30.7704997  27.1803403  64.4907188  31.5756989
  27.7972245  65.2015877  30.3903270  76.8071032  47.8364706  54.5160913
  76.1002016  47.1929884  54.4665384  77.5852203  47.3215008  54.7295666
  41.5888977  14.5894051  62.8488779  41.3778782  13.9868271  62.1357155
  40.8168364  15.1500726  62.9250669   4.7350219  62.9065895  20.7704568
   5.1787174  62.0698309  20.9090185   5.4409999  63.5528660  20.7580256
  29.4817972   9.7334319  30.2502418  28.5608768   9.7967094  30.5034900
  29.9595380  10.1143432  30.9870601  25.0852847  69.3553638  28.6119652
  25.6576347  69.2095900  27.8587103  25.4420280  70.1356411  29.0363860
  53.5421467   6.6941482  17.7689719  53.5878038   7.6491666  17.8146505
  54.0341520   6.4683235  16.9795632  30.0448322  59.9032927  40.4957438
  29.7937608  59.0439892  40.1569366  29.2167234  60.3141117  40.7441330
   9.8871851  69.7450590  23.6066484   9.3906599  69.6103907  22.7994561
  10.6446719  70.2649307  23.3379865  65.5038118  44.5340347  31.6720319
  64.7085810  44.0158272  31.5483713  66.2169886  43.9342022  31.4533806
  66.9086456   0.3028572  26.6002131  65.9792376   0.2333333  26.8183970
  67.2852135   0.8141649  27.3164487  71.4146376  28.4271526  62.5894737
  71.0989141  29.2274570  62.1698713  71.9815254  28.7350845  63.2966137
  67.7836752  16.0360110  55.0065517  68.3196688  15.9903979  55.7982969
  68.2167816  16.6930676  54.4616413  33.8069034  58.0738258  57.4720383
  33.6698318  58.6374855  56.7106390  32.9932928  58.1437969  57.9714155
  17.5099218  40.5605745  59.7106791  16.7738211  39.9659967  59.8551273
  17.3651659  41.2758493  60.3300810  75.9470510   1.3188380  14.8951542
  75.3207493   0.9312990  14.2837691  75.9016371   2.2589229  14.7207701
  66.6285038  62.9089785  11.0991681  66.8972111  62.7256870  10.1989281
  67.4130011  62.7427959  11.6218305  54.0674448  21.4396787  18.8300288
  54.0531731  21.8686104  17.9744327  53.9607096  22.1541929  19.4579673
  65.9156387   1.1458942  47.9634094  66.3156074   0.5050251  48.5512400
  65.4473012   0.6180927  47.3166370  11.9931996   4.7343254  36.0135508
  11.1756790   4.2628711  36.1736178  12.2461009   5.0735766  36.8721437
  43.7564230  28.7865853   6.4374590  43.2929230  28.1024456   5.9543902
  44.5926094  28.3865786   6.6762352  62.1721220   8.2260472   4.4120389
  61.8651628   7.8224540   3.6001760  61.4795399   8.8425034   4.6498328
  56.0772419   4.1743472   0.3759889  56.6298437   4.3155432  -0.3927293
  56.1969948   3.2491827   0.5903785  38.9623690  59.7696161  37.0913005
  38.7948871  59.5808935  38.0146456  38.1759596  60.2271509  36.7938781
  61.3276243  13.1343567  50.5913162  61.5501356  13.8553035  51.1803484
  61.1546373  13.5570419  49.7500992  44.4368982  73.0975676  21.1998177
  44.9063396  73.7544727  20.6856847  43.8349771  72.6908731  20.5765009
  54.0024662   5.2626789  33.7617517  54.5505857   4.8098454  34.4026399
  53.6551142   6.0185975  34.2352128  17.2068357  53.0219889  35.6517839
  17.8455126  52.3244333  35.7992339  16.4011633  52.6981258  36.0545659
  15.8753955   5.0778490  37.5480795  15.8487999   5.5689633  38.3692551
  15.1244903   5.4019397  37.0507479  52.0448208  66.7770767  23.7691951
  51.6479063  67.4416971  24.3321991  51.5008211  65.9997749  23.8960671
  74.6182442  34.0192080  32.3156309  74.3233061  33.5860324  33.1166315
  73.9437151  33.8118625  31.6689110  46.7379856  48.0468893  10.0964975
  46.2083340  48.8010406   9.8377389  46.9895935  48.2301760  11.0016680
  66.3087940  24.6341658  22.7011061  66.1132908  24.6721220  23.6373591
  67.2490835  24.8045182  22.6456761  70.1538229  63.9689732   2.1998759
  70.7709789  64.3833780   1.5968634  70.5748224  63.1449080   2.4446249
  78.4952533  17.5630152  52.1961021  79.1659287  18.1001008  52.6179600
  77.9053048  18.1952453  51.7856407  68.7257814  73.1969833  44.9724674
  68.5741758  73.9705753  44.4295073  69.6764803  73.0856180  44.9705791
  25.5643994  73.9860976  27.1002960  25.2171666  73.1639913  26.7541766
  24.8149592  74.5815523  27.1002054  61.3301897  49.3424845  64.1337872
  60.5898952  48.7431717  64.2287493  61.9917870  48.8335562  63.6652708
  49.0408850   4.7567683   4.4274887  48.7116909   4.2507237   3.6846685
  49.9244928   4.4193092   4.5744306   1.0885866   9.7453839   4.3729633
   1.3364565   8.8458085   4.1595221   0.8417360  10.1316023   3.5326466
  67.0342064  31.6763616  28.9275193  67.0286608  31.8546414  27.9870844
  67.9512691  31.7729783  29.1842103  77.7442741  28.2235670  17.2065008
  76.9759607  28.6934710  17.5307202  78.3486462  28.2117748  17.9486763
  70.1659905  31.9874872   0.6627460  69.3274962  32.0717586   1.1166855
  70.7937800  31.7819799   1.3554808  35.2872300  55.9679937  58.3676863
  34.9320793  55.3006220  57.7805614  34.8084044  56.7653513  58.1414604
  73.0604887  28.9647436  36.6083884  73.1639242  28.0133080  36.6257739
  72.1289921  29.1075039  36.7762303  72.7411509  66.6530132  50.4392910
  73.0037022  66.9174051  51.3209915  72.3821402  65.7726479  50.5501652
  69.9456215   4.3407249  27.2442269  70.2937317   3.6769637  27.8396034
  69.8494720   3.8854092  26.4077616  32.8887653  64.5009232  18.6228800
  31.9735217  64.7790384  18.6576879  33.3844900  65.3167391  18.5526609
  59.2346668  57.3508072  25.6406760  59.8659086  56.9782352  25.0250816
  59.7673130  57.6532459  26.3762379  76.7532110  31.3308668   7.8293192
  76.0439396  31.9734645   7.8140527  77.3122072  31.5735555   7.0911747
  52.3176050  53.9210510  63.3880472  52.7022076  54.6728611  62.9373884
  52.9589224  53.6910486  64.0603876  57.0265484  62.0205879   9.2298853
  57.4613571  61.5179777   8.5410058  56.6145134  61.3588810   9.7854060
  65.8855152  26.6748667  25.3293085  66.5497780  27.2264481  25.7425237
  65.2789116  26.4591146  26.0376263   6.5826350  52.2912502  58.0907917
   6.2326002  53.0843592  57.6849747   7.3227227  52.0449257  57.5359726
  52.5485945  19.4500434  30.4680467  52.3177338  19.8713088  29.6401143
  52.8259087  18.5683882  30.2190280  24.7540188  25.3736544  60.0848866
  24.9194169  25.4179025  61.0266495  25.5210042  24.9259472  59.7277832
   2.4524312  73.6099005  56.3492393   1.6272917  74.0602779  56.5296221
   2.6046020  73.0692244  57.1243191  51.7506140   1.8716165  22.5068140
  52.1824687   2.0873281  21.6802549  50.8566206   1.6386959  22.2563076
   2.4423040  52.8904486  12.6553214   1.5618145  52.9926443  13.0166054
   2.9652768  53.5520172  13.1081569  15.5873084  51.6946697  12.7914858
  15.0249219  51.6138220  12.0211506  15.8617949  52.6116705  12.7924621
   7.7561587  25.0635767  12.4383974   7.4805582  24.1824627  12.1855879
   6.9400072  25.5210900  12.6404119  72.3193884  58.7636995  61.0098553
  72.2856188  58.4825134  60.0955105  73.1244421  58.3739281  61.3507271
  18.8629580  52.9304790  49.2522907  19.5693302  52.4396801  48.8323069
  18.9211059  53.8068771  48.8717937  41.5447140  29.3470812   3.3892596
  41.5290642  30.0776768   2.7710232  41.1021614  28.6341190   2.9287523
  68.6766863   1.6167507   9.9699301  69.2256117   2.1035919  10.5846655
  67.8208733   2.0420171  10.0243890  14.4712698  54.7103930  63.6306953
  15.0222218  55.3728867  63.2138157  14.0195322  54.2823601  62.9033995
   7.2249466  37.5242710  40.7685089   7.3027414  36.6433859  40.4021454
   8.1202865  37.8627896  40.7704639   6.0940260   3.9861578  -0.0561352
   7.0510721   3.9744991  -0.0687540   5.8499485   3.1609291   0.3629774
  57.5979757  67.0417833  24.8176813  57.5001907  66.7469025  23.9123011
  57.7458239  66.2383795  25.3166008  66.0250664  18.7024069  50.8697701
  66.4779282  19.0438640  50.0986958  66.7271328  18.4833229  51.4824152
  13.6599231  34.4846821  57.5961733  13.2164419  35.0804806  56.9923735
  13.0414653  33.7646031  57.7195835  73.3597660   7.7008104  34.8364615
  73.0812645   6.9962585  35.4215050  72.6656580   7.7551264  34.1795826
  56.7668962  29.1421485   1.3206656  56.8882751  29.8137307   0.6494908
  55.8309078  29.1684794   1.5193295  43.1955338  21.1963367  21.7747474
  43.7419176  20.6311250  22.3208570  42.2986984  20.9875441  22.0361304
  35.0456786  72.0989656  53.8817739  34.1355181  72.2756147  54.1197538
  35.4708481  72.9561520  53.9082193  54.5929670   6.8179375  59.4193840
  55.1037931   7.6236337  59.4977665  54.2867136   6.8157828  58.5125017
  50.1761532  15.0750244  21.1229324  50.4810524  14.5269489  21.8460369
  49.2218924  15.0088894  21.1581230  50.7407570   7.8036469   2.6513281
  50.6689119   7.3079044   1.8356630  49.9141121   7.6393342   3.1050798
  60.5244732  37.4493170  47.3765469  59.8385572  37.9370189  47.8325081
  61.3390017  37.8756380  47.6430559   7.4311829   7.5124598  48.1177092
   7.2589469   7.5953704  47.1797943   8.3648044   7.3085928  48.1726789
  73.2710361  47.8725052  57.1908569  73.6953688  48.3675861  56.4900923
  72.9227781  48.5417700  57.7799559  25.4072642  73.7673330  61.4548397
  25.3293610  73.1328392  62.1672869  24.5084071  73.9017630  61.1544847
  76.6323090  49.1845655  41.5653324  75.9512377  49.4482708  42.1840620
  76.2087679  48.5332823  41.0061598   1.0603955   8.6469418  16.5751708
   0.8191700   7.8180033  16.1617672   0.2638240   9.1760683  16.5335667
  53.2477808   3.8460344  23.9008880  53.7807798   3.6389458  24.6685195
  52.8463125   3.0122977  23.6560583  58.9709377  22.5252128  30.2753139
  58.1059647  22.7399755  30.6245041  59.2986584  21.8367481  30.8539748
   2.0807061  64.5946312   5.1031768   2.5172043  65.4192972   4.8895729
   2.0859410  64.1013813   4.2828670   0.6129126  11.6348267  19.4064915
   0.9188465  12.4599636  19.7830367   0.8156780  11.7074156  18.4738338
  74.4521999  31.0314441  55.8199930  75.2163601  31.2388158  56.3578463
  73.7357140  30.9378529  56.4477777  43.3447075   6.9592118  17.0203614
  43.1577206   6.4165556  17.7863848  43.8383627   6.3850325  16.4348245
   7.9499841  36.0113192  12.3733914   7.5322628  35.4853153  13.0553448
   7.3175800  36.0178590  11.6548836   9.8393124  47.0463800  63.5973024
   9.4913644  47.5326014  62.8498077  10.0809777  46.1933041  63.2366133
  50.6018877  14.5218420  40.8897734  50.4483700  14.9269986  41.7433023
  50.6171799  15.2557993  40.2755213  75.5514050  11.6487169  19.6519518
  75.8784962  12.1155798  20.4209018  76.0311985  10.8204472  19.6525908
  73.7384939  28.3021474  26.9433713  74.4093323  27.6682758  26.6895676
  72.9858065  27.7667332  27.1944094   8.0517840  49.5819664  21.5666842
   8.4662861  49.7875929  20.7287478   7.2026497  50.0221109  21.5282559
  62.5262880  14.5320356  46.6328192  62.6742887  15.1936471  45.9570980
  63.3821869  14.1222763  46.7583656  74.5364094  29.3295074  12.0059490
  74.3251657  30.0888991  11.4628720  75.1487541  28.8190532  11.4761376
   0.8376117  28.2672143  30.8643723   1.5339535  28.0953526  31.4982533
   1.2876064  28.3130622  30.0207877  49.3100643  23.6849165  14.6263576
  49.6957684  24.4967198  14.2970574  48.4131145  23.9235854  14.8603499
  11.5473187  64.5942068  45.2567244  11.9366276  64.7312117  46.1203814
  11.9006288  63.7536716  44.9653482  33.1360579  56.4464140  61.6270733
  33.3341479  57.3751545  61.7472029  32.2065020  56.4272642  61.3994932
  72.5784540  40.3984308  44.9837494  73.0702686  41.0186529  44.4455385
  73.2346535  40.0112438  45.5631685  50.6770754  11.4933324  15.2367103
  50.6305647  10.7147443  14.6818495  49.9215555  11.4175761  15.8195317
  42.5759602  54.6255207  17.2114742  42.6520300  54.9674559  18.1022739
  43.0425739  55.2620840  16.6699147  48.3739185   7.7701437  43.6973524
  48.3737803   8.0577016  44.6103382  48.3804512   8.5821116  43.1905031
  54.0709257   4.4792500  19.4446754  54.9098969   4.6285713  19.8806345
  54.0146303   5.1743788  18.7890399  53.7025976  19.5501029  16.9632959
  52.8681374  19.1032660  17.1055984  53.8470316  20.0494194  17.7670705
   5.1951087  47.8867340  60.4681635   4.9726856  48.7266397  60.8698082
   4.4158930  47.6473618  59.9664116  50.3467655  72.9744577  63.4634686
  50.6755924  73.8273573  63.1794596  49.4395638  72.9539776  63.1588459
  29.7307873   5.6918716  53.2819080  30.2272511   4.9128130  53.5325575
  30.3528142   6.2223488  52.7840042   1.2501911  56.8131256  23.2645369
   1.9329647  57.1679497  23.8338828   0.4801897  56.7431974  23.8288426
   3.5224575  31.5770030  21.4244437   2.6900032  31.9984770  21.6380119
   4.1612375  32.0063424  21.9935298   3.3082530  37.2228169  61.3610172
   3.0830443  37.7971101  60.6291056   4.0941644  37.6157403  61.7407370
  74.1852140   8.8360816   9.0668654  74.1983128   8.8599288   8.1100523
  74.9373579   8.2932800   9.3032420  50.8339071  31.3839293  15.7480788
  50.7862520  32.2975612  16.0295677  51.1180210  30.9074759  16.5281463
  68.5349703  20.6502151  13.8630271  67.9660654  20.4720831  13.1141293
  68.9928818  21.4576173  13.6292541  53.2707787  26.9785023   9.9126071
  53.0663204  26.8145728   8.9919788  52.4846506  26.7045093  10.3850067
  73.3371115  36.9853377  11.7773795  74.0093660  36.5571427  11.2473249
  73.1900883  37.8261518  11.3441992  34.7737169   1.9552751  42.6288319
  34.6635938   1.0716177  42.2777557  35.4403162   2.3539104  42.0693922
  73.8286400   9.4142371   6.3986129  73.4146214  10.0521827   5.8173668
  73.7411404   8.5792267   5.9389037   0.6802887  30.2776551  16.3662899
   0.8204101  30.8582568  17.1142864   0.1631264  29.5534325  16.7188179
  35.2626157  59.4886065  32.4401474  34.8826575  60.1950502  31.9178391
  35.7510400  59.9371386  33.1304312  58.0589771  15.0281501  38.2838368
  57.4597645  14.3955803  38.6801171  57.4980927  15.5811393  37.7399206
  27.0206261  73.1140900  52.6224422  26.3356519  72.5169086  52.9231358
  27.5262713  72.6007414  51.9923401  51.9483471  21.1266255  25.2078772
  51.9890833  21.2786674  24.2637062  51.9384527  20.1736164  25.2968025
   9.6022040  33.3995605  14.6360743   9.8363227  34.1047812  15.2394676
   9.1947043  32.7347517  15.1912344  72.3734951  49.5427704  41.7055130
  71.8423319  48.9321375  42.2166109  72.7128267  49.0168667  40.9812832
  63.8576698  59.7223568  35.4387426  63.5049868  60.2207756  36.1759138
  64.7223282  60.1027775  35.2842116  70.7044029  11.3313460  24.2552185
  70.0059652  11.4818120  23.6182117  70.3210068  10.7296789  24.8933697
  37.8636241  15.5704570  43.1994581  38.8115740  15.6353760  43.0836630
  37.7274013  15.7017255  44.1377783  13.2352161  39.8769903  22.9808068
  14.0435314  39.3650031  22.9538321  12.5613940  39.2474365  23.2374358
  29.7234011  49.9316359  25.3258276  30.3404284  49.6254587  24.6611762
  28.8738918  49.9258900  24.8847675  65.9029961   3.6880687  23.1405497
  66.1680651   3.4686214  24.0337539  65.4901791   4.5482206  23.2177114
  45.7231045  17.7265084  21.0890102  45.0416327  18.3042037  21.4326525
  46.0644531  17.2736251  21.8601203   0.6031380  67.0074415  14.7068822
   1.3824524  66.7448092  15.1967025   0.6884415  67.9560757  14.6117580
  15.7595062  23.4665751  19.2793596  16.1293912  23.2714438  20.1403713
  14.9284697  23.9021420  19.4688094  40.9834242  15.5320740  57.7900887
  40.7703876  16.2745881  58.3553505  40.3159475  14.8768735  57.9936075
  73.0731201  13.3317733  40.9285784  72.4894714  12.9135597  40.2955818
  72.7308035  13.0659342  41.7820311  11.3950920  44.7223663  62.9516840
  11.8945754  45.1832533  62.2776461  11.9497538  44.7631645  63.7307358
  20.9976697  69.7302914  23.2850552  21.1613703  69.0774441  23.9656639
  20.9502625  69.2240763  22.4740481   6.7585522  31.5488100  35.9881091
   7.6794636  31.6039777  35.7329416   6.3358164  32.2661996  35.5160093
  68.5988760  45.2584600  28.8196969  67.7161741  45.6216240  28.8916779
  69.1289854  45.9819221  28.4853077  57.9354954  31.7939925  19.2428577
  58.3574009  32.2872686  19.9463534  57.5990963  32.4646425  18.6484706
  53.0361509  11.0314071  51.7813110  53.6873674  11.7222059  51.9035530
  52.7682161  10.7949746  52.6693106  68.8987589  68.8947678  11.4581478
  68.5895205  69.1504908  10.5891180  68.2132864  69.1959667  12.0545077
  75.6798601  26.5751457  27.4544477  76.2901545  26.2177706  28.0994701
  74.8145962  26.4294744  27.8369832  50.3655052  73.4617138  37.3771310
  49.4638205  73.2371759  37.6068687  50.4682732  74.3677998  37.6681352
  44.3931437   3.6937517  22.6877022  44.7161484   2.9218328  22.2229004
  44.4898510   4.4094750  22.0595145  58.7308598  42.6634645   7.8420573
  58.3211994  42.8907490   8.6767727  58.1568623  43.0496597   7.1805352
  73.2256222  44.3792677  36.6354585  72.6780415  43.6989498  36.2435937
  73.4078407  44.0604353  37.5194120  68.0061626  34.9311256   4.3373695
  68.6892700  35.5992413   4.3940738  67.4008942  35.2631092   3.6742958
  35.1608992   7.1850711  28.1199479  35.7510471   7.4381578  28.8298082
  35.3939486   6.2769443  27.9270077   6.5132737   1.9155389  53.3810997
   6.6242552   1.2157330  52.7375269   6.9023508   1.5671407  54.1832685
  17.2259223  19.0602243  27.9692483  16.7710733  19.7677243  27.5123143
  16.7338336  18.9448059  28.7821198  36.2629008   4.3097726  28.7121463
  36.4686179   3.4499443  28.3452582  35.4848766   4.1609657  29.2495179
  77.6877642  24.3053508   5.3446639  78.0886745  24.8056078   4.6338576
  77.3510838  24.9702883   5.9452796  51.4186621  56.5203047   6.0580838
  50.9046698  55.8377695   6.4895815  52.3284101  56.2503719   6.1834675
  70.5113316  16.4261115  26.7403507  70.4615402  15.4939425  26.5286636
  69.8422766  16.5551233  27.4126291  76.5511656  53.2900190  -0.1414035
  77.3772526  53.6924219   0.1267194  76.5796185  52.4106646   0.2356338
  47.8198719  70.4161406  30.6935310  47.6571703  70.0849628  29.8103094
  48.7358284  70.6937695  30.6802726  73.8804674  19.9663186  34.1476059
  72.9290342  20.0083756  34.0514922  74.2093086  20.6668186  33.5842252
  43.1343508   5.3075075  28.7674260  42.6434612   5.5652016  27.9871345
  43.7719584   6.0104346  28.8922572  65.7817221  62.4587727  60.3503418
  65.1233149  62.8557301  60.9205675  66.1945248  63.2007456  59.9084091
  62.4264717  57.4876070   8.7014455  62.2634983  57.8755045   7.8416753
  61.7965364  56.7695904   8.7635630   7.4642754  10.5643940  61.1733007
   6.5926570  10.3040040  60.8754587   8.0228007  10.4556894  60.4035854
  63.5322666  48.2151651   5.4625893  64.3492126  48.0155277   5.0054502
  63.8107014  48.5634422   6.3095897  74.0720177  17.2870493  23.8038778
  74.3025398  17.0583665  24.7043204  74.6069717  16.7047608  23.2644343
  58.4805870  13.5345352   3.2101992  57.6178885  13.2327962   2.9257008
  59.0147305  13.5158837   2.4161124  16.0796082  25.5042911  63.0777550
  15.6609094  25.4936385  63.9384556  16.1343992  24.5822477  62.8266335
  18.7763238   2.3529479  64.0113640  18.2782590   1.5531504  63.8425827
  19.1444111   2.5900066  63.1601620  76.7549658  39.0472674  13.9567626
  76.3382339  39.1926932  14.8061252  77.1448421  38.1759167  14.0273201
   2.2757952  40.3441048   3.5429946   1.9389534  39.5249677   3.1799746
   1.5511845  40.9627342   3.4509787  75.7571602  20.9172583   4.4874537
  75.6405115  21.1994934   5.3946304  76.4630175  20.2718973   4.5262772
   0.8114841  48.4182215   7.6970541   0.8373345  49.1433334   7.0727342
  -0.0854059  48.0881071   7.6437247   6.3350677  26.0833716  25.0880551
   6.4953417  26.7115402  24.3838167   5.5118859  25.6584120  24.8471975
  34.6508813  23.1404901  49.5280457  34.0891838  22.3663211  49.5653439
  34.7641087  23.3985448  50.4428244  24.5292091  66.0853004  45.7877445
  23.9409041  65.6021833  46.3680315  24.3402886  67.0062256  45.9678507
  47.8297710  39.4105387  14.2403030  46.9053650  39.5983744  14.0777457
  48.2891941  39.8132825  13.5034454  30.4597664  73.4503746  63.8431692
  29.5868659  73.0642271  63.7712955  30.3649068  74.3275928  63.4720707
  26.8188882  65.6449080  63.7266254  26.3465548  66.3238907  64.2084074
  27.5430751  65.4017782  64.3033981  62.8068352  12.2008395  64.2544985
  62.1080065  12.2668409  64.9052763  62.6569939  12.9409337  63.6662483
  29.0262604  63.6339188  37.6429248  29.7664022  63.0291939  37.6951456
  28.4164762  63.2142925  37.0360374  14.0602887  41.2451410  11.3832223
  14.3336201  41.9107819  12.0144486  13.6707735  40.5534554  11.9180870
  69.6089888  17.2087264  43.2229185  69.9308252  16.8284893  44.0402746
  68.9427042  16.5927303  42.9182148  53.1338501  70.2860308  31.6589618
  53.2722998  69.3394136  31.6277361  53.3852434  70.5356550  32.5481868
  72.2205114   2.8354582   2.2205497  71.6836691   3.6093637   2.0499550
  71.5882349   2.1430141   2.4128547  14.7563648  50.2644587  57.5146389
  14.7131824  50.4214621  56.5713930  15.6251562  50.5749846  57.7696085
  77.0934916  10.8307350  27.5429964  76.6344738  10.0694263  27.1881080
  76.4547586  11.5416837  27.4900126  64.3151331  33.3717966  63.7169838
  63.4762383  33.6178350  64.1067934  64.1129446  32.6090479  63.1751633
  47.6548958  14.4453704  13.4514058  47.0082760  15.1009154  13.7128901
  47.4162769  14.2188168  12.5525355  72.3230362   6.4051110  17.8391933
  72.5702953   6.8969208  18.6222768  71.5431929   6.8530023  17.5113654
  49.9459505  12.0963371  18.0917954  50.2705431  12.9887843  18.2118464
  50.3660488  11.5928531  18.7891161  47.5906515  12.8850770  16.8846893
  47.8057814  13.7529397  16.5429831  48.2897377  12.6937878  17.5099194
  47.6834345  16.8101609  37.6065922  48.2994032  17.4225843  38.0087781
  47.4742699  16.1884129  38.3036661  18.3292234   3.5103115  42.1368027
  18.2815051   2.6968065  41.6346455  18.3681333   3.2261389  43.0500174
  66.2903261  60.7044268  62.3479414  66.4158392  61.3298750  61.6342926
  66.1399603  59.8672009  61.9089937  20.6054831  43.9668560  59.0512466
  19.6488953  43.9682150  59.0854502  20.8610344  43.1764936  59.5269060
  51.8782234  18.3961487   7.0223868  50.9889078  18.5926044   6.7278469
  52.3965645  18.3697546   6.2181103  36.2919354  10.3062403  27.9713225
  37.1941590  10.6246352  28.0004454  36.3328815   9.5199478  27.4269867
  39.4175553  25.6362319  13.2981861  38.6867785  25.8368492  13.8829517
  39.4393277  26.3685012  12.6821184  21.6379213   1.2268928  35.4001856
  21.0477233   1.9685738  35.5336308  21.2166262   0.5000098  35.8588624
  61.9341629  54.9366359   0.4549547  62.7217119  54.6111707   0.8909269
  62.1626633  55.8242397   0.1789471  50.2172899  13.3057559  23.2265282
  50.0441408  13.2992351  24.1679168  50.9844971  12.7433300  23.1202102
   2.0525442  71.8103266  58.7193346   1.3564765  71.1533451  58.7291002
   1.8507139  72.3841143  59.4584322  19.1510081  40.7658577  24.9624228
  19.1342473  40.6894302  24.0084243  18.3111644  41.1673594  25.1853299
  41.0165644  66.6193962  56.7119455  41.2833118  66.3881779  57.6016712
  40.7136869  67.5248337  56.7803764  70.8734751  35.0399995   0.3083644
  70.0556993  35.3742647   0.6767928  70.5974436  34.3815732  -0.3292188
  78.7703371  11.4325845  51.0445166  77.9596806  11.6038465  51.5238237
  79.0343142  12.2884643  50.7068491  55.6268454  72.4963570  40.3275299
  56.1741829  71.9551563  40.8965206  55.9031630  72.2666645  39.4403291
  59.8905230  30.3688359  53.2724810  59.5399094  31.2584186  53.3166170
  60.2127647  30.2826357  52.3752880   2.5867611  45.8849239  23.8921571
   2.7115828  46.7136002  23.4296179   3.4160763  45.4204226  23.7794256
  64.3274736  31.5661263  25.3159595  64.1259193  32.4726486  25.0839543
  63.6003971  31.2949991  25.8763909  10.8900476  72.1091938  49.0699196
  10.9984934  71.2510347  49.4798422  10.0152850  72.3927450  49.3356657
   8.6387688  73.3689022  46.9110394   8.3508480  72.7017069  47.5340796
   7.8908223  73.9609051  46.8313837  59.7169828  57.6143789   2.6351386
  58.8204050  57.4721956   2.3315524  60.0784779  58.2550287   2.0226660
  48.8207006   4.0221497  12.0223534  49.1235447   4.9276564  11.9546986
  49.1773272   3.7118828  12.8546906  76.2267017  34.7383428  52.2161722
  76.7110825  34.2662501  51.5388727  75.8550596  34.0504456  52.7683640
   5.0349176   2.6615939  19.2469990   5.6254101   2.1622139  19.8110652
   5.4784447   2.6874605  18.3991504  12.4721563  28.3726430  41.2696743
  12.6654398  27.8183413  42.0257282  12.7386880  29.2507100  41.5420580
  16.6090703  44.5447636  29.9860883  16.5579784  44.2636013  29.0725398
  17.1196139  43.8605785  30.4190636  45.8075791   0.5492947  40.0318956
  45.0767332   1.1650917  39.9781179  45.4076880  -0.2728489  40.3154373
   3.4199688  52.9120874  62.2978878   4.1673523  53.5061407  62.3668289
   2.7315801  53.3324146  62.8133297  20.1729655  35.8359671  60.6673908
  19.6261799  35.3385282  61.2755108  20.8894444  36.1695004  61.2074327
  66.2245178  51.2041712  43.1203413  66.7744207  51.0115480  42.3609114
  65.3320599  51.2106419  42.7743578  10.0883281  18.5081327  45.6151676
  10.6867445  18.0060816  46.1684084  10.6560767  19.1069353  45.1300621
  72.3101759  34.9419785  30.9836936  72.3739815  35.3879309  31.8282580
  71.9849539  35.6123686  30.3828263   3.3258939  70.2521563  18.8226402
   3.7608373  70.4220438  19.6582198   3.9766848  69.7768164  18.3061564
  57.2011375  58.3201694  46.1908770  56.5807724  57.6683760  45.8644724
  58.0269527  58.1023645  45.7586479  14.5460367  72.7752686  62.2374821
  15.0004399  73.2717705  62.9180956  14.2246699  71.9930124  62.6858425
  18.9924037  33.0845761  57.4592924  19.8169374  33.4945989  57.7205515
  18.3791399  33.3137250  58.1575966  22.5852394  53.5305071  55.5867004
  21.8650508  53.0426502  55.1872587  22.4845552  54.4220877  55.2532578
   3.2308817   7.7014530  50.1613188   3.8818449   7.0004523  50.1941204
   2.6098183   7.4843043  50.8565569  67.2190332  38.2951093   5.8816755
  66.9711494  37.4532104   5.4995912  67.8644753  38.0728579   6.5526754
  57.7324724  44.5675659  47.3153496  57.8636503  43.9441872  48.0297899
  56.7960787  44.5179987  47.1231365   1.4042287  61.4449835  48.6838245
   2.1639180  60.9429121  48.3888149   1.7769325  62.1755791  49.1773319
  38.5516572  58.3006048  13.1751907  37.7353454  58.4887028  12.7120686
  38.6921978  57.3632240  13.0417895  22.0748949  36.7393780  51.5963793
  22.2958589  36.5649295  52.5112438  21.2166619  37.1616149  51.6335821
  65.5783653   8.1376964  14.1717505  66.2744474   7.5080413  14.3594682
  65.6177568   8.7614834  14.8967123  20.4721761  58.7722969  34.7346306
  20.6660080  59.4425058  35.3899765  19.6997094  58.3209133  35.0748944
  13.2316852  60.0849581  56.0231638  13.0879092  59.1987467  56.3551188
  12.3733020  60.5045652  56.0809565   6.3443524  39.7524595  47.7331686
   6.1519605  39.1699028  46.9984293   5.5112797  39.8359823  48.1971169
  76.8352509  27.5832891  29.9035597  77.7651024  27.4188590  30.0603104
  76.7195940  28.5125566  30.1018548  74.4041014  29.9415731  40.9128761
  74.3182135  30.5759716  40.2012634  74.0802145  29.1206169  40.5422592
  66.0397243  17.7856362  19.0485239  65.3959084  17.5287461  19.7086310
  66.4145851  18.6000776  19.3837786  62.7986956  31.8358064   5.0871611
  62.5694466  31.1923623   4.4165975  63.7201405  31.6627479   5.2800918
   8.9274687  14.7696328  54.5967579   8.1449455  14.2395210  54.7479868
   9.3721598  14.7874355  55.4442072  31.5155697  60.2126980   7.1600091
  30.7634974  60.7641029   7.3758096  31.5351796  59.5525217   7.8528392
   8.0248231  32.1071553  45.4715633   8.5195839  32.6564360  46.0796213
   8.4451663  31.2490225  45.5276823  69.2987967  36.8577552  46.1311340
  68.8160276  37.0905519  46.9242096  69.7018051  37.6780319  45.8465958
  78.4620237  46.1738539  25.2371478  78.3851528  47.0985079  25.4723954
  79.0341759  46.1687088  24.4697833  50.8387518  68.7233305  49.3471241
  51.3452053  69.4827032  49.6353912  51.4983940  68.0782413  49.0922403
  31.1339712  10.5159831  39.1790390  32.0291591  10.8018780  38.9970088
  31.2172961   9.5852590  39.3865013  71.9592714  32.3102045  29.4752049
  71.9824839  33.0624342  30.0666809  72.7500343  32.3993087  28.9432430
  17.8245652  68.8348484  17.1196866  18.5452640  68.3756495  17.5509214
  17.4347401  68.1792164  16.5414000  11.3797987   2.5611258  16.5326953
  11.7940295   1.8365672  17.0013738  11.9197416   2.6808769  15.7514441
  73.8804054  61.6216278  62.3095036  73.1516123  61.0012197  62.2958183
  74.0160418  61.8113470  63.2378578   1.0997281  48.4987259  57.4986124
   1.2085375  49.0169239  56.7012024   0.1788332  48.2377195  57.4908447
  27.5386190  46.7895031   6.2360984  28.3634710  46.7736530   6.7214859
  27.7575660  46.4222240   5.3797102  22.9203248  56.0746527  59.8366737
  22.5770450  56.3350201  60.6914234  23.8547373  55.9317207  59.9872684
  68.5212660  71.7457819  53.7460518  69.0200949  72.3738146  53.2235765
  67.8581953  72.2755861  54.1886330  78.4725428  68.1381416  47.3358822
  78.3983183  69.0923309  47.3200941  77.7033663  67.8301144  46.8565941
   0.7890821  49.7623205  62.7969408   0.1664181  49.1694880  63.2177401
   1.4226916  49.9708366  63.4834480  11.0764837  29.5807147  38.8215828
  10.6609714  30.2989292  39.2988110  11.4520383  29.0250015  39.5044994
  48.5512066   6.1825264  54.4337940  49.0423965   6.2862998  55.2487755
  48.2196903   7.0594621  54.2406273  77.3255480  43.8896894  15.7511222
  77.2436974  42.9793549  16.0354102  78.1058851  44.2121792  16.2020171
   3.8713056  56.5843248  30.7939839   4.5649731  56.5451717  30.1355577
   3.0888894  56.8352365  30.3029633  61.6539478  40.8175230   4.2079437
  61.2069750  41.1387777   4.9910414  61.6793728  41.5724421   3.6199966
   6.3727427  21.7039537  49.3449402   6.9603842  20.9722924  49.5335674
   6.9292343  22.4802804  49.4071293  47.4863482  73.3016968  18.3193648
  47.2451830  72.5451326  18.8538611  46.8472624  73.3050108  17.6067734
  75.2952290  57.7761984  51.1305952  74.9467039  58.3837557  51.7829990
  75.0486231  56.9097996  51.4542818   9.0362889  46.7593622  51.2514782
   8.3382380  46.7479610  50.5966282   9.8287034  46.9599104  50.7533932
  20.7949018  66.6990519   0.4227844  20.9804130  66.0578251   1.1088241
  21.5883780  66.7135572  -0.1123971  24.5768595  25.5261922  62.8416538
  23.7964654  25.8976626  63.2530260  25.2786732  25.6841111  63.4731245
  66.1093998  68.6249781  34.6635842  65.7546902  69.1492081  35.3816319
  66.6253853  67.9445219  35.0959826  62.9943228  51.4389324  53.2632494
  62.1909857  51.5627146  52.7577162  63.3086157  50.5724239  53.0051470
  50.8277941   8.3266169  41.4786196  51.2885475   7.6832741  40.9400558
  51.2875605   8.3095878  42.3179960   9.8349410   9.0372866  33.3174348
  10.4005492   8.6624473  33.9925766   9.4716662   8.2784504  32.8608918
  57.4411345  23.0565763  19.7564983  56.9577408  23.1982207  20.5704379
  58.1570911  23.6910391  19.7896206  22.3074389  53.8775730  50.9676075
  21.8753529  54.6859932  50.6919384  22.7792907  53.5808277  50.1894522
  53.9169979  15.7772946  12.5865042  53.3982229  14.9747813  12.5310707
  53.5534811  16.3449144  11.9068778  67.0049810  29.7526264  18.2827938
  66.7058420  29.9079585  19.1786826  67.0487356  28.7994552  18.2067645
  16.8100762  16.7759955  50.6401253  15.9417558  17.1539855  50.7793236
  17.0858669  17.1164155  49.7890759   3.4340730  54.1416311  55.0832987
   3.0214602  54.2878151  54.2320585   3.7958562  54.9945879  55.3237391
  12.3902924  73.8904110  30.4348230  11.6568429  73.3057092  30.6256294
  12.2446234  74.6494915  30.9994555  -0.1258200  14.3189442  22.6657104
   0.4779170  14.7636354  22.0707464   0.0779399  14.6806836  23.5281825
  49.1079044   2.5006703  33.9119673  48.2953501   2.4028927  34.4083834
  48.9346409   3.2235363  33.3089113   1.0318162  57.0132494  50.9662724
   1.4977482  56.8507624  51.7864752   0.4935035  57.7842236  51.1452866
  66.8407536  22.0710230  63.5210609  67.0359612  21.6557717  64.3611145
  67.3237944  21.5509748  62.8788328  38.8965654  14.2635059  48.2346201
  38.4505129  14.3313134  47.3904228  39.1963649  13.3553565  48.2748413
  61.7570639  59.2630434  47.9386568  62.1304655  59.6651173  47.1543503
  62.3839378  58.5810566  48.1797981  73.6099100  38.6936617  61.2768555
  73.1240654  37.8854108  61.4409304  73.4652424  38.8757825  60.3483438
  61.0020971  32.0550013  19.3603349  60.5474663  31.6830182  20.1160908
  61.0647058  32.9901218  19.5549119  52.6497173  21.4969921  22.3149157
  52.8812695  22.3164940  21.8778443  52.5545549  20.8643770  21.6028929
  42.9813004  18.4018099   7.3764765  42.5408840  17.6801062   7.8252620
  42.8265381  19.1623211   7.9367477  36.9239140  30.9543395   9.9725550
  37.1157742  30.7121444  10.8785152  36.5826869  31.8467855  10.0303423
  28.6242270  27.6294661  62.0018578  29.4578981  28.0889201  61.9012213
  27.9605961  28.2945299  61.8187904  28.8574791  71.4871645  18.1758714
  29.4603610  72.0372057  18.6760926  29.3075275  71.3323498  17.3453772
  23.0468845  52.2846985  48.5026884  22.6529837  52.8665161  47.8526354
  22.3038077  51.8274832  48.8964128   8.0551058  24.1363859  32.7603269
   9.0099543  24.2020702  32.7468228   7.8647774  23.5659337  33.5050344
  31.1200476  13.4902251  61.2745333  30.7557082  14.2948449  61.6434145
  30.8596373  13.5095668  60.3536367  52.1042490  13.0847609  13.2212627
  51.9541168  12.5392175  13.9933205  51.4724445  13.7988126  13.3060074
  73.4736388   0.8516857  52.9209614  73.5343736   1.6928026  52.4681187
  72.5335877   0.6894657  52.9998446  35.5719137  64.9183416  29.6013951
  34.6352196  65.0716209  29.4775271  35.9970307  65.6004953  29.0816116
   4.4099286  59.0568590  57.4509144   5.1377130  59.4210386  56.9469929
   4.6082067  59.2870808  58.3586121  63.2146835   3.0916825  36.9777465
  62.8693199   3.7208650  37.6110578  62.5365067   3.0323550  36.3048530
   4.0281910  32.7688336  12.3996341   3.8734275  32.0498419  11.7869914
   3.8023326  33.5570955  11.9058084   5.5601317  35.1676154  29.1464615
   5.7873273  34.3167591  28.7714195   4.7543001  35.0056648  29.6370125
  33.7091303   1.4586189  54.2291784  33.5698104   1.3402328  55.1687527
  34.6539259   1.5844637  54.1411209  29.7228479  56.0511017  43.8947344
  28.8818049  55.6337452  44.0809965  30.1277685  55.4894590  43.2338047
  35.6047654   6.8947625  57.0764112  34.7681642   7.2690952  57.3524666
  35.9803486   6.5305722  57.8779936   3.4622997  28.8365340  53.8638496
   3.3275574  29.7607112  54.0735435   4.4061884  28.7573910  53.7258577
   0.6400821  44.7450113  22.4304557   0.3713384  43.9374638  22.8684974
   1.3207519  45.1093292  22.9963088  16.6276097  51.8416309  55.6134748
  16.8103647  51.0623693  55.0885105  16.0241473  52.3557043  55.0770140
  77.3955202  40.9094954  59.0011024  78.2894945  41.0153532  58.6757803
  77.1774006  41.7596436  59.3830681  40.3510237  24.3186522  58.2502604
  40.9481335  24.5326614  58.9671230  40.9149647  24.2562890  57.4793386
  26.0672736  30.7356954  56.7380810  26.2911320  31.6575551  56.6104364
  26.6774464  30.4318810  57.4101067  13.8382006  41.5136242  15.5102658
  13.6329758  42.3629951  15.9010136  14.5590186  41.1739016  16.0405850
  18.6863065  19.7956908  50.1761675  19.2534006  19.0290225  50.0933647
  18.0360770  19.6887410  49.4819069  24.7932959  67.8822803  51.7193842
  23.8918877  67.8025484  52.0313692  25.2888036  68.1642866  52.4882650
  31.2465453   7.6951307  13.4401762  30.5311680   8.1081414  13.9237988
  31.6755509   7.1303761  14.0830123  28.8408494  39.3190336  58.1675339
  28.2210350  39.4239736  57.4456978  29.1881990  40.1987457  58.3147812
  39.8552537   2.1204999  53.6171627  39.2075419   2.6548547  54.0766907
  39.5690250   2.1299656  52.7038097  20.2377796  70.1152468  48.1821871
  20.9897590  69.9664545  48.7554359  20.5841875  70.6475115  47.4659967
  33.1468773  26.5833187  37.1697640  32.3605704  26.2544560  37.6054287
  33.6886263  26.9265127  37.8803682  55.1147175  45.2190447  58.1648350
  54.4113731  45.3782892  57.5354052  55.8804083  45.0247049  57.6242971
  29.8603225  17.4154127  51.2870598  30.0914598  17.3427236  50.3610325
  28.9960432  17.8268182  51.2866116  24.6954727  67.6023149  32.3672748
  24.4464970  67.0814753  33.1307960  24.3098640  67.1378565  31.6244316
  36.4937973  14.4946957  57.2188568  35.6245422  14.4283295  56.8236065
  36.5979195  15.4260933  57.4135113   0.6355482  59.2018080  62.7156258
   1.3620368  59.0282393  63.3142233   1.0211210  59.7325420  62.0185709
   6.5482211  43.5574341  51.2570858   7.3503149  43.0607986  51.0951328
   6.5931726  44.2914677  50.6443834  34.1208386   9.5687234  15.6958473
  34.7259569  10.3033125  15.7980371  33.7217760   9.7048998  14.8365247
  45.4379606   1.8196617  10.4961622  46.3190269   2.1937622  10.4945064
  45.1332521   1.9284505  11.3970232  16.0750449  52.5569868  49.8007393
  16.9735050  52.8399849  49.6306944  15.8267295  53.0170155  50.6025743
  36.6842628   3.6430416  62.3487949  35.8165836   3.2567185  62.4676180
  37.1891379   3.3338818  63.1009626  61.6574097  41.5054846  16.7229617
  61.5205812  42.2684526  16.1613679  62.5589657  41.2367058  16.5463841
  75.1303482  52.3137999  57.7000284  75.3104210  52.9187489  58.4196377
  75.9502602  51.8349648  57.5788021  65.6637335  20.2275538  41.8291426
  66.5666294  20.4510450  42.0551205  65.2023458  20.2177978  42.6677465
  73.9911318   6.6072434  61.9844580  74.6339512   6.7333406  62.6823902
  73.4459209   5.8818996  62.2891808  51.9238377  39.7410512   5.9908867
  52.4742270  39.3349433   5.3212738  51.8656063  40.6596756   5.7282710
  58.6143017  31.2049937   7.3365659  58.0046082  30.5423641   7.6612580
  59.4153214  30.7185125   7.1418011  56.2157202  39.9928403  14.0407026
  56.2104273  40.0546408  13.0855143  57.1434879  39.9544096  14.2730904
  59.5527172  26.4528489   7.1514004  59.2742157  26.8158650   6.3106346
  59.3050194  27.1182036   7.7934110  62.6835060  44.9043179  37.7422976
  63.0139208  45.2527952  36.9142747  63.4677172  44.6237659  38.2140350
  47.6983595  11.8079352  43.5737038  46.8927765  11.4124584  43.9066601
  48.1673813  12.0926106  44.3580532  16.5763235  54.5542955  31.6404080
  16.3406229  54.7133636  30.7264185  16.0218072  53.8208914  31.9066024
  10.5034101  59.8318815  52.8396702  10.2140236  60.1444530  53.6968660
  10.1559341  58.9420176  52.7793980  38.6753106   0.5436315  64.1571426
  39.4248748   0.0609318  63.8087368  38.9760089   1.4511228  64.2048073
  60.8123446  46.4648724  21.9444966  60.2301550  46.2222815  22.6645207
  60.9140301  47.4130058  22.0277524  45.9839174  58.4153234  64.2524962
  46.4928851  58.3501350  63.4444523  46.1785838  57.6054727  64.7241708
  69.9790239  10.6730080  12.5594413  70.3708982   9.8253119  12.7693939
  70.3239584  10.8882952  11.6928959  28.6335087  67.8414774  61.1361790
  29.5898342  67.8567266  61.1741400  28.4131432  66.9173193  61.0195398
  60.9465170  60.3430510  51.3452768  61.3544369  59.5118570  51.1024714
  61.6196823  60.8026361  51.8471336  17.3103678  55.7382441  51.8354845
  17.4411333  55.9517765  52.7593565  18.0044925  56.2138414  51.3791609
  73.4004402   5.7989758  57.1070576  74.0050316   6.5409935  57.0965767
  72.5711393   6.1613107  56.7952776  69.2461586   0.9461377  48.7720776
  69.2732191   1.7907698  48.3225250  68.8413811   0.3515410  48.1405401
   4.1885874  39.4253826   1.6786104   3.6341214  39.7234797   2.3996778
   4.2242685  40.1712561   1.0797504  61.6357851  34.1960883   3.3039954
  62.0897627  33.8814545   4.0857518  61.5649700  35.1419687   3.4325439
  65.5774403   0.2197187  35.3232288  65.4078531   0.7474431  36.1036015
  64.7597027  -0.2543893  35.1723552  20.5801582  14.7571552  60.8483219
  20.3445578  14.5670319  61.7563868  20.6208539  13.8987851  60.4266882
  62.7513266  61.7053270  60.9994841  62.5800133  62.0008135  60.1052952
  62.4380255  62.4211025  61.5524244   0.8784298   3.1374973   8.0177850
   1.4111809   3.1687322   7.2231573   1.2269644   2.3947169   8.5107708
   4.9929801  32.7125120   3.3283976   4.5164958  33.2403111   2.6875979
   4.6123719  31.8378544   3.2487661  11.6817653   9.0033662  44.8668575
  11.3124275   8.7727040  44.0144396  11.1409497   8.5291892  45.4984474
  31.3238573  54.7160912  36.2830639  31.5640712  54.5170259  35.3781319
  32.0007920  55.3229380  36.5826082  62.9110956  56.1952162  61.7639828
  62.1141481  56.5622997  61.3814211  62.6028776  55.4757452  62.3149776
  17.4453282  72.8247929  11.3224161  17.4366355  72.3728657  12.1661687
  17.8679907  73.6640787  11.5045881  10.4139185  69.3367434  39.1388750
  10.4513943  68.5553312  38.5873151   9.5144624  69.6512604  39.0478325
  21.9100022  61.7419529  55.1706839  21.6223693  62.3057795  54.4526291
  21.1301279  61.6297007  55.7142162  33.8291264   5.7960707  23.0507088
  33.4649968   6.1250794  23.8725328  33.7791371   6.5407985  22.4514484
   9.8630273  39.0532804  62.9970837  10.4910219  39.6388006  63.4201908
   9.6685362  39.4751143  62.1601486   8.6041009  61.8698549  54.4343901
   8.5598475  62.6022959  53.8197327   8.5083795  62.2745562  55.2965307
  75.5684614  37.8149629  30.6432581  75.2711678  38.6973739  30.8650708
  75.9073830  37.8934956  29.7515202  29.3217444  54.9463987  32.1482468
  29.3152165  54.8305130  33.0983829  28.3975410  55.0165033  31.9091535
  18.1796753  67.2389364  56.4216614  18.7534547  67.7687931  56.9750690
  18.5661709  67.3001099  55.5481005  24.2758226  14.7290432   2.6338387
  24.8635554  14.3006873   3.2561830  23.4778810  14.8975146   3.1349784
  29.3947411  62.0910263  44.4864893  28.4739852  61.9856119  44.2470598
  29.7011018  62.8187990  43.9454508  30.3308058  30.3974414  16.2537181
  29.9001312  29.5928192  16.5423942  31.1402917  30.4319525  16.7633975
  24.8115659  64.5262384  48.5514545  24.8886037  65.4583025  48.7553120
  23.9731288  64.2661142  48.9330149  76.9539547  28.3245325   1.9021279
  76.6439009  27.6549459   1.2924111  76.9912195  27.8789806   2.7484894
   2.7162188  37.4517560  13.1028116   2.3244667  36.6921568  12.6717985
   3.0849361  37.9695106  12.3871231  23.0605674  51.9238043   8.7225080
  22.7615166  51.0147190   8.7033707  23.9445901  51.8775225   9.0866417
   5.0919336  10.5609798  11.9792533   4.1808292  10.8487117  12.0369673
   5.0516647   9.6123517  12.1005642  29.1059017  57.4359703  39.5683026
  28.4300613  56.7954922  39.7902513  29.1487622  57.4173832  38.6122441
  14.4939375  64.2792416  54.3020296  14.4548297  63.5712147  54.9449873
  15.4025555  64.5789433  54.3307590   0.5776219  14.0962172  51.2177753
  -0.0224872  14.5343375  50.6143236   0.2625565  14.3401349  52.0881033
   0.7646523  22.5496840  47.4671125   0.9141630  23.4586334  47.7272797
   0.7461315  22.0644069  48.2919741   5.0459564  28.5459089  11.5503144
   5.1971793  28.8724375  12.4373007   5.8899701  28.1831288  11.2814975
   5.3285056  43.1405497   1.1654339   4.8672044  43.7564182   0.5960990
   4.7263634  42.9911232   1.8943560  56.8735790  73.2796574  61.1143875
  56.4259815  73.3936596  61.9527721  56.2248278  72.8562832  60.5521488
  53.4032822  71.6597748  34.2611837  53.4182930  72.3672152  34.9058032
  52.5119734  71.6724062  33.9124179  43.0091381  17.7968884  52.4336910
  42.3797798  17.1028697  52.6298571  43.4707975  17.9420125  53.2595539
   8.8547337  56.0399628  63.2023621   9.4989723  56.4498854  63.7795591
   8.3465886  56.7718506  62.8525543  53.4614658  58.7718534  11.9591177
  52.9016495  59.5473576  11.9970131  52.9882908  58.1623268  11.3927197
  21.2487340  52.6062584  27.5262475  20.3139329  52.7022028  27.7083826
  21.3469410  51.6945171  27.2518158   3.9001477  17.9132414   6.8362612
   3.8137728  16.9825399   6.6299444   4.4268367  18.2693183   6.1206919
   6.9717956   4.6273637  37.4094939   7.0817119   3.9305529  38.0564904
   6.0887659   4.4963473  37.0640588  48.9527893  41.2467051  12.1552861
  48.7051201  42.0229578  11.6529727  48.7951040  40.5149841  11.5586722
  50.7464743  35.8019185   7.8324401  50.4565430  35.8594251   6.9220197
  50.2530003  35.0661778   8.1949347  77.5088351   1.0520622  62.3877954
  76.7591231   1.5620777  62.0811176  78.2419198   1.3595745  61.8546438
  67.2508478   7.5664145   2.9503125  66.4070511   8.0055362   2.8434718
  67.2212982   7.2028720   3.8352960  22.4388814  26.2011170  59.0699530
  22.1107149  25.6326103  58.3732891  23.2098174  25.7453394  59.4078207
  77.0162058  68.9688778  21.7963219  76.7318964  69.8787403  21.7094111
  76.6552973  68.6843348  22.6359725  25.6607285  32.6211513  -0.3174023
  25.5318632  33.4924568   0.0573679  26.2579718  32.1849789   0.2902838
  46.1241674  64.1209221  50.8666706  46.9110680  63.5825491  50.9513903
  46.3121700  64.9031639  51.3853025  69.3503428  60.1137924  59.2058563
  69.6114731  60.3374910  60.0991631  68.8815117  59.2839479  59.2940664
  17.7517319  62.5305939  25.2536774  17.8774631  61.9419193  25.9979129
  16.8022323  62.5744438  25.1407194  30.5605960  52.2570562  59.5421219
  30.5355597  51.8822384  58.6617136  31.3664269  51.9119549  59.9265289
   1.6049968  16.2147081   1.0394328   1.2641229  15.3267002   1.1465697
   1.6146666  16.3549376   0.0926096  33.2456589  60.5540037  16.5009558
  34.0511823  60.1200294  16.2198377  32.7000713  59.8467398  16.8449748
  60.8765364  35.5926800  53.0960560  59.9970436  35.8685327  52.8379345
  61.1628246  35.0134802  52.3898029   9.8519206  37.6239681  43.9411402
   9.0105027  37.1710038  43.8857222   9.7668111  38.3620358  43.3376122
  68.2908535  36.4429760  38.3088779  68.9869118  37.0638108  38.5240555
  67.7001286  36.4751863  39.0613675  70.8846664  17.7568543  56.6027164
  70.2499008  17.9839563  57.2822237  71.0609007  16.8262327  56.7409849
  77.5658512  11.7707157  32.3315310  78.2888460  11.5648079  32.9240799
  77.9639912  12.3054159  31.6446447  58.4469604   3.4481493  62.8444815
  58.5755825   3.9015043  62.0113182  59.0004873   3.9237294  63.4638882
  23.8713908  73.7622547  37.4138665  24.7331214  73.7706041  37.8305006
  23.9196157  74.4502020  36.7500639  22.4389362  36.9338536  61.8822098
  22.8366256  37.7164292  61.5005636  22.9463220  36.7708111  62.6773262
  77.3995829  20.1531100  57.9323196  78.0924129  20.7052398  58.2947636
  77.6911020  19.9564934  57.0420456  35.5375147  35.8115101  56.6850805
  34.6519542  35.4698849  56.5613699  35.9564114  35.1835847  57.2736931
  17.1047223  31.7562914  48.7264585  16.4156973  32.0832825  48.1480503
  16.7415822  31.8481183  49.6073246  16.2095592  40.5948506   1.3481136
  16.5007684  41.2271572   2.0050951  16.7147586  39.8039375   1.5364357
  60.9802294   1.5002923  51.6969585  61.6081381   1.5033242  50.9744978
  60.1241779   1.4652467  51.2701321   1.5133235  48.7002993  36.3481855
   1.7872216  49.3502617  35.7010651   2.1878695  48.0224133  36.3071060
  66.3356876  60.8004284  45.1697206  67.1524763  61.2407923  44.9348497
  66.6050434  59.9202156  45.4322147   5.3014928  45.5706882  39.4923139
   6.2045991  45.6428766  39.8012137   4.9113601  44.8962545  40.0483370
  74.8240900  30.5981803  61.2673473  75.1301289  30.6585073  62.1722984
  74.6246767  29.6702361  61.1433029  13.2747471  44.8141861  46.8285036
  14.1473949  44.6753836  46.4604616  13.0625975  43.9867592  47.2604609
  44.8620892  67.8878498  35.6794190  44.5122719  68.7772942  35.6270099
  44.4446087  67.5115538  36.4542365  11.4716399   8.8774431  59.4958544
  12.3641646   9.2204297  59.5404863  11.3668346   8.6001813  58.5857010
  41.8509674  70.8448744  38.1251383  41.8839025  71.3773632  37.3304057
  41.0711622  70.3004980  38.0165529  13.2426476  20.1553488  35.9097600
  13.1004155  19.2156339  35.7960033  14.0036929  20.3503251  35.3629255
   3.7590829  30.6772804  59.0548182   3.2696530  29.9889994  59.5053244
   4.4339424  30.9401393  59.6806765  22.0891905  62.8775740   4.3109483
  22.9989552  62.5872660   4.2455027  21.9990849  63.5394716   3.6253798
   0.7334140  49.5465279  32.3932910   0.5408662  48.6249495  32.2205019
   1.2668321  49.5348454  33.1879997   0.3674554   8.8087332  44.5957470
   0.9291856   9.3499911  44.0410137   0.8374839   8.7498337  45.4275131
   9.9108255  15.1149762  13.7939644   9.4064271  14.3201673  13.9674342
  10.8086157  14.8067594  13.6706507  26.4542460  60.4294729  55.6331682
  26.2089157  59.5056915  55.5814123  25.6231737  60.8924198  55.7391357
  40.7075221  73.7479681  54.2237425  41.4750297  73.8079696  54.7925663
  40.8007152  74.4827755  53.6174393  14.0331745  38.7597442  63.4155512
  13.6097121  38.9523554  62.5790024  13.5119164  39.2346787  64.0628195
  13.7482893  11.3375425  61.2597084  14.1950369  10.4959774  61.3514471
  14.2046201  11.7737722  60.5401945  63.7953711  51.7639589  10.6693876
  64.2276812  52.5464439  11.0115194  64.1317415  51.0489321  11.2095928
  77.2003984  24.3945241  48.1503057  77.2403240  24.3432117  49.1052961
  76.7786837  23.5775423  47.8839731  60.4716730  61.6367197  20.9492159
  61.1161184  61.5943336  21.6557026  59.9791574  60.8194494  21.0249376
   1.4425200  41.1523342  16.5416265   0.6412472  40.6714201  16.7487872
   1.8056805  40.6968069  15.7821250  58.2324271  19.8109068   0.2375790
  59.0381394  19.7441305   0.7500263  57.6501505  20.3473009   0.7755991
  29.0872169  69.1338539  15.7982135  29.3812275  68.5545731  15.0952041
  29.1577625  70.0139904  15.4285955  77.1183777  17.0466256  30.1622987
  77.2855711  17.5617468  29.3730402  77.9889774  16.8390226  30.5016994
   8.1182301  57.4577904   3.9152828   8.0944109  58.1238699   3.2282567
   7.2748297  57.5421572   4.3600181   2.1705024  27.8286147  40.0254536
   1.4157093  28.4056473  39.9090385   2.6517570  27.8944135  39.2006540
  64.1385841  28.0570650  58.1444216  64.1110659  27.2876000  57.5757408
  64.1092777  27.7000427  59.0320635   7.7495015  31.0563707  56.4263439
   7.9653788  30.4269981  57.1144772   8.0158758  30.6245565  55.6146717
  26.0472894  39.6896553  27.4929714  26.5353084  39.5387435  28.3024740
  26.0026670  40.6425714  27.4143100  37.1343541  19.6596980  59.1738605
  37.3331237  20.3741741  58.5686779  37.0754027  18.8834572  58.6168957
  65.7424068  72.1555376   4.3749914  66.3910866  72.5787401   3.8125461
  65.2902937  72.8804588   4.8066336  58.7443256  40.2212524  15.0102592
  58.9791727  40.4743528  15.9030175  59.5647907  39.9138999  14.6247637
  62.6438236   8.9149863   9.1683221  62.9826212   8.6779606   8.3050334
  62.8625011   9.8418194   9.2652357   9.1290909  38.9509153  56.6764832
   9.1701937  39.0469933  55.7250071   8.7147474  38.0989909  56.8135118
  69.0884733  10.3909397  39.2620277  69.1428709  10.7792258  38.3888125
  69.4016457   9.4939911  39.1452456   2.5759616  22.0334959  28.5728145
   1.8982670  21.8306828  27.9279661   3.1119120  21.2414885  28.6141872
  57.1400118  71.6974115  48.9899015  58.0365896  72.0311356  49.0217113
  57.2331429  70.7503843  49.0932989  24.3631315  67.3364735   6.1814976
  23.7366843  67.1961308   6.8914968  25.2203083  67.2280025   6.5934610
  46.2459707  29.5249057  62.3551035  46.8808079  29.8557663  61.7196894
  45.7014751  28.9167285  61.8552303   3.5470074  24.0135050  14.9366856
   4.0170902  23.5547566  15.6329644   3.1142712  23.3180618  14.4413769
  35.4608822  16.6185772  59.6245909  36.2368369  16.6082585  59.0642166
  35.1791573  15.7044768  59.6604395  54.0349627  33.8485074  17.0079148
  54.2342567  34.7446012  16.7367578  53.0808640  33.8272667  17.0819581
  74.7769356   7.4021977  11.5454042  75.0417137   6.5836662  11.1257267
  75.5356836   7.9775888  11.4481556   4.9438059  42.6146793  44.0488434
   4.9248305  43.5451698  44.2725754   4.1804743  42.2458601  44.4932890
  74.3075755  74.2365100  30.7080913  74.6481636  73.8670473  29.8933959
  73.3656051  74.0705398  30.6709695  17.9042149  72.3782682  43.2090855
  18.1584370  71.8925762  42.4244165  17.4552608  71.7329741  43.7552261
  76.1615515  46.6884232  43.6570120  75.2101088  46.6963053  43.5524797
  76.3676071  47.5415659  44.0390110  44.2552710  72.1585846  60.8239651
  43.8289261  71.3018799  60.8466482  45.1893997  71.9596291  60.7602596
  77.7427673  43.5864687  59.7095442  77.9402351  43.9847708  60.5572462
  78.3036232  44.0524960  59.0894747  41.4411068  72.2725153   3.9785001
  40.8283806  71.7657661   3.4455812  41.9264269  72.8028107   3.3464488
  31.9573712  56.5481329  24.8427820  32.0096183  56.6324139  23.8907313
  32.5423598  55.8197212  25.0512099  20.9874654  25.7274508  51.8814754
  20.4248357  24.9598122  51.9834995  21.8291426  25.4580927  52.2492552
  67.0186472  61.5407181  22.4010634  66.4181709  61.4324951  21.6635346
  67.8904486  61.5029860  22.0076561   7.7101588   6.9948858  38.6900568
   7.3230880   6.3920611  38.0552268   8.5954517   6.6590178  38.8303447
  29.3535972  68.0316019  20.8454037  29.7985554  68.2362509  21.6678143
  28.6261225  67.4645805  21.1013317  28.3727765   4.4502884  62.5676584
  27.9890847   4.9796367  61.8685150  29.2949510   4.3656960  62.3254299
  56.0620260  17.9529011   4.1273728  56.7917013  17.3843193   4.3733793
  55.5742359  17.4484491   3.4763598  24.7839451  65.8125353   4.1024253
  24.9581027  65.0209570   4.6116498  24.4185352  66.4296055   4.7364038
   2.2342390  33.4790301  53.5389614   2.5401193  33.5092688  52.6324558
   1.2901857  33.6249804  53.4781837  39.8395944  65.6087780   1.3744466
  38.8980436  65.7493448   1.4742205  40.1048851  65.1780176   2.1870363
  64.6885109   6.3962793   8.8632399  64.4074583   6.7641354   8.0254310
  64.4282961   7.0506990   9.5115107  29.4912958  61.7151070   8.0913377
  29.3109989  60.9481764   8.6349779  29.5448065  62.4416113   8.7122720
  26.4354539  59.6521187   3.9871007  26.8771648  58.8713551   3.6531389
  26.7707896  59.7544956   4.8777756  59.5080280   1.9769396  12.3095548
  59.6260881   2.6110309  13.0168188  59.3114567   2.5106925  11.5396845
  61.6680002  47.2301483   1.5607937  62.4772644  47.7390575   1.6091441
  61.2468624  47.3687458   2.4091238  70.7943153  24.4466019  16.7245305
  71.2535858  24.1785884  15.9286225  69.9933386  24.8653483  16.4093769
  70.0356722  17.9373765   2.0330232  69.1196346  17.7313328   2.2191694
  70.4978895  17.1086454   2.1586928  72.2521353  63.8904524  50.1847219
  71.6389132  63.1690979  50.0438786  73.0007696  63.4862185  50.6233311
   4.1539505  14.9111581   8.5301101   4.7227320  14.1426718   8.4837514
   3.2677090  14.5583510   8.4505165  17.9188085  30.3416848  62.2150898
  17.8421187  29.4043565  62.3933268  18.8400018  30.4676390  61.9875622
  19.6254611   8.8192439   1.7368396  20.2086735   8.5767585   1.0176059
  20.1218390   9.4642466   2.2406387  21.1876869  20.6627464  47.6415253
  20.7436705  20.9376407  46.8393326  20.9678173  21.3400936  48.2811260
   7.6743746  15.3225648  61.4547968   7.0626694  14.7085547  61.8610477
   8.2303548  14.7751725  60.9002876  53.8521338  68.9226198   8.9865440
  53.3325863  69.4344568   9.6064824  54.7526979  69.2124605   9.1321564
  67.1864080  35.3397894  49.8465204  66.8654251  35.5974555  50.7107019
  67.9747295  35.8670187  49.7168350  11.5737295  44.5699215  58.6516666
  10.8710337  44.4686937  58.0096340  12.3727429  44.6174908  58.1267405
  65.2663946  19.5432413  54.4138527  65.1986599  18.6138606  54.1950035
  64.3956423  19.7778177  54.7347736   7.8827572  67.1423197  11.4950264
   6.9976366  67.4492359  11.2985599   7.7561158  66.4346743  12.1270287
  69.7678947  65.5952501  26.7663360  70.4503489  66.1156607  27.1901989
  69.2099380  65.3002596  27.4859858   9.4953680  40.5964947  60.7757759
   8.6431247  40.8240891  60.4041338   9.8782796  41.4364386  61.0289574
  59.8858929  61.4681816  48.0531693  60.4871893  62.1869373  48.2482862
  60.1641083  60.7591009  48.6328554   1.7654866  32.2337556  28.0316472
   1.4548120  31.8445706  28.8491106   1.8420655  33.1680679  28.2251120
  19.3876588  25.7030392  61.0084391  19.1551197  26.2294793  61.7733049
  19.9678230  26.2669706  60.4969454  72.7935457  45.6049728  23.9400673
  72.3969078  45.0482702  23.2699943  72.0671320  45.8388710  24.5178652
  71.6099167  71.1108351  61.4374924  72.5423956  71.1028576  61.2215185
  71.5071917  71.8571997  62.0279312   4.3719012  47.7719259  51.3963413
   4.6300814  48.0204535  50.5087566   4.2530477  48.6046076  51.8532228
  69.3547440  13.5578287  50.9799433  69.4017410  14.3092752  50.3888845
  69.4628143  13.9332974  51.8537712  77.2426176  37.1918154  48.6710215
  76.3422966  37.0521784  48.3774996  77.1562815  37.4806499  49.5795107
  44.6637780  73.0639056   6.0267943  44.9631555  72.3064107   6.5295917
  43.8442141  73.3224590   6.4483392  76.7454481  16.8890822  42.3131084
  76.6837263  17.2491539  41.4283657  77.2740746  17.5255895  42.7944040
  65.6213474  24.2116594   9.5694685  66.5144062  24.0883088   9.8911190
  65.1573181  24.6185899  10.3011239  19.5156896  55.4277372  17.1969056
  18.8883650  56.1396265  17.3230445  19.0749431  54.6547794  17.5497651
  21.4390469  25.3783035  63.6490965  21.6779375  26.2415051  63.3113909
  21.5146208  25.4636097  64.5994854  63.8079357  44.3585634  34.6081090
  64.4136763  44.6942043  33.9473081  62.9392242  44.5687628  34.2654896
  23.7105393  62.0113373  27.8311586  23.6627841  62.0942020  26.8787479
  23.7776709  61.0692215  27.9865408   0.5439238  19.7984445  46.4045763
   1.0353206  19.8587358  45.5853558   0.8206883  20.5648398  46.9068432
  31.7728145  72.2325847  36.3979244  31.9218070  71.3982624  36.8428278
  31.0024793  72.6006252  36.8307805  22.8387523  47.3794413  19.7335041
  22.8230739  46.4476252  19.5150912  22.3052430  47.4488831  20.5251956
  51.3410425  37.2819281  49.3033123  52.0723009  37.8577733  49.0799570
  50.6101131  37.6084685  48.7785816  65.7727385   9.7019935  60.8885098
  65.9557343   9.4130486  61.7825222  65.9531307   8.9336979  60.3468323
  13.4649038  60.0975227   8.8893878  13.9113164  59.3626404   8.4687912
  12.8459990  60.4109812   8.2298940  13.9527655  42.1031237  61.0261202
  14.2612243  42.5255728  61.8277550  14.2304480  42.6909018  60.3235245
   2.3599938   8.4041226  10.5913448   1.9603364   7.5536776  10.4090023
   2.0152447   8.6517614  11.4492822  22.2791290  32.7724671  55.9557104
  23.0167246  32.2134852  56.2000990  22.2240782  33.4180164  56.6603184
  34.3284655  53.6342096  14.4831586  34.1054392  53.3967400  13.5831046
  33.8585234  52.9979515  15.0221968   4.4997532  16.4669235  62.9828609
   4.7733552  17.2232683  62.4639081   3.5713417  16.3582428  62.7767689
  29.7170901  63.9151192  22.1763873  29.8390388  63.2452345  22.8491521
  29.4291186  64.6898365  22.6592135  72.8085756  50.2745295  60.3411961
  72.6550341  50.3993368  59.4046688  72.9479074  49.3324423  60.4375982
   4.9394763   1.2409888  14.6518099   5.2331001   0.9866513  13.7769794
   4.9004373   0.4185013  15.1398897  72.3947287  16.1156166  35.4938173
  72.0805502  16.9854045  35.2468538  71.6047716  15.5760813  35.5269027
  22.7546430  65.1472330   1.9343492  23.2186532  65.5344772   2.6766226
  23.2867336  64.3908119   1.6874906  36.0978293  71.7877674  44.6287632
  35.6644082  70.9359169  44.6809864  37.0043516  71.6110802  44.8802185
  27.0115852  47.1898651  11.1582768  27.0231986  48.1423473  11.0641074
  27.5943327  47.0151234  11.8972659  23.6231470  58.4839869  41.8361139
  23.4980369  59.3387222  42.2484303  24.2040348  58.0126905  42.4333429
  26.1442232  63.5515022  21.7327189  25.2060556  63.3632421  21.7075753
  26.5112233  63.0363512  21.0142732  49.0241241  69.6316671   1.2140745
  49.0951014  69.1858768   0.3699987  48.1459808  70.0125742   1.2106684
  75.7237959   8.7357420   2.5544876  74.8372507   8.7475342   2.9152289
  75.7648802   9.5110232   1.9945928  73.4140730  40.5966282  63.6982536
  73.6995649  40.8805466  62.8298569  73.2424212  39.6601224  63.5996389
  21.2330604  13.0220008  56.7017508  20.7856250  13.1583643  55.8666229
  20.8474851  13.6721456  57.2890091   0.2683640  69.3706989  57.4378824
  -0.0535804  69.5163584  58.3274698   1.1199476  68.9502239  57.5572062
   5.5445153  37.0060277  50.5746460   5.9457779  36.4884710  51.2727594
   5.8826071  37.8914905  50.7083702  77.1118593  22.0994925  49.8537636
  77.9871607  21.7527604  50.0265646  76.6700411  22.0682478  50.7023239
   1.8992834  19.6191311  41.0400677   0.9790956  19.3556714  41.0313559
   1.9776140  20.2397060  40.3155136  76.0101652  49.0037489  51.9631433
  75.8170366  49.5785666  52.7037621  76.5233469  48.2898092  52.3415232
  16.5922582  17.9652452  30.5086422  17.0313454  17.9003751  31.3567138
  16.9334233  17.2261107  30.0051355  55.5812550   1.3678159  24.5878053
  55.5336523   0.6215146  23.9903092  55.2060795   1.0434768  25.4065108
   4.3271938  54.0109777   6.0214478   4.9921215  53.4124279   6.3618052
   4.4341949  54.8080492   6.5405416   1.7962265  64.0543222  38.7005353
   1.6276580  64.2422485  39.6238446   1.1238179  63.4172773  38.4591341
  75.8834887   6.2146491  37.5935912  76.0700798   7.1288067  37.3797441
  75.1085520   6.2531650  38.1541467  59.7702265   8.1345296  43.8341093
  59.5229483   8.3733761  44.7274399  59.0561724   7.5745302  43.5295439
  25.7867074   1.2702891  45.4001093  26.4356709   1.1180982  46.0870743
  24.9565911   1.3544255  45.8692169  38.2825017  34.3092346  18.8648522
  38.9608288  34.2944074  19.5400441  37.9614735  33.4082246  18.8280368
  70.7841825  19.7043848  28.8531947  71.6585827  19.5863068  28.4820962
  70.9179497  20.2870059  29.6007848  73.0607510  27.1211290  21.0691166
  72.2480774  26.9007111  20.6139135  73.7299681  27.1069455  20.3848791
   9.2790657  28.7202215  34.8024702   8.6926496  28.3845305  35.4804516
   9.9544561  28.0475402  34.7154236  60.0431395  69.5103788  27.5924492
  59.2581081  69.3421459  27.0712399  59.8620796  69.0992928  28.4377050
  33.9470100  54.6764517  56.2397575  34.5607638  54.8502731  55.5260849
  33.2150149  55.2711821  56.0763359  26.4605594  16.0395312   6.4540595
  26.9641995  15.4574120   5.8850992  27.1167111  16.6105461   6.8536079
  27.5510573  45.4459476  60.7526255  27.5792146  45.7248974  59.8374081
  26.6223717  45.2947950  60.9284830  73.4233999  73.8476658   3.3342934
  72.6289034  74.1178417   3.7947407  73.1053257  73.3921194   2.5548464
  74.0850830  61.4164829  41.0578585  74.9602747  61.7067480  41.3147926
  73.5358572  62.1940136  41.1579752  26.7731547  60.0238752  45.1564741
  26.6524243  59.9804306  46.1050320  27.0420480  59.1393185  44.9084902
  49.0565491  61.9910812   9.0934062  48.7604570  62.9011106   9.1135204
  48.8522816  61.6534185   9.9654686  52.0631456  39.1366053  43.9637375
  51.1932421  38.7723541  43.7999773  52.0251989  40.0206995  43.5988140
   2.1426536  30.9822321  33.4201765   1.3671187  31.2637568  33.9054799
   2.5258008  30.2914500  33.9607787  73.5852098  66.0848331   6.0543501
  73.6295652  66.1681557   7.0068842  73.0916405  65.2780056   5.9072262
  27.8194904  14.3761158  37.9086614  27.7854967  15.3222716  38.0496073
  28.7458682  14.1898632  37.7558041  31.1546493  73.3402491   3.2598409
  30.2394152  73.6199141   3.2790744  31.6365004  74.1169453   2.9756004
  69.3509912  19.2981696  39.9744654  70.0107431  18.8346016  39.4586539
  69.6156931  20.2170467  39.9316931  10.4443550  49.0665627  31.4133453
  10.4456830  48.6858130  32.2915602  10.2843881  49.9993134  31.5569258
  20.5565810  44.7086477  49.6549463  20.4547405  44.8798370  48.7187004
  21.3856649  45.1274204  49.8862076  47.2562265  73.1164885  46.0643625
  48.1606913  72.8745556  46.2634659  46.7989922  73.0442476  46.9021845
  23.9058948  57.8650904  46.7896461  24.6075749  57.3334026  47.1653891
  23.7845564  58.5787344  47.4159241   3.9868084  18.0151188  59.7458839
   3.6656278  18.3430374  58.9059162   4.9392658  18.0061734  59.6511364
  78.6058378  37.6423240  63.8372421  78.7400055  36.7732000  64.2152023
  78.5021019  37.4821854  62.8992510  60.7597828  48.4058332  17.0644283
  61.6879416  48.1727123  17.0845163  60.7481194  49.3540716  17.1945751
   7.4427772  32.9007506  24.2355323   6.5473294  33.1469679  24.0036178
   7.9643887  33.6779404  24.0352011  74.0082645  60.9130096  17.8774023
  74.4027424  60.6538630  17.0446575  74.5092297  60.4354668  18.5386276
   1.6033167  33.6807656  35.8819079   1.7986207  33.5302639  34.9570084
   0.7991008  34.1998291  35.8755016  14.0198839  39.8677158  47.3189831
  13.9684093  39.0081143  46.9010448  14.6810448  39.7622323  48.0030632
  24.4533443  12.1609747  23.3819079  25.4082322  12.0978808  23.4029269
  24.2092967  12.3990726  24.2763233  58.9551544  46.1657429  35.5179977
  58.6472797  45.9152746  34.6469593  59.5966530  46.8573666  35.3555846
  28.1355548  19.4605076   3.6030638  27.6901269  20.1307988   4.1212684
  29.0160894  19.4155180   3.9757159  66.2250185  64.0182781  35.0594354
  66.0062504  63.0895901  34.9825740  66.4722872  64.2802906  34.1726232
   4.3625233  52.9635382  51.5740299   4.7306916  53.6822414  51.0600758
   3.5745677  53.3331299  51.9724798  45.2481651  71.9687080   3.6295918
  45.1603842  71.0571289   3.9080775  45.1687717  72.4748564   4.4381323
  19.7269559  19.4650245  41.5866137  19.5363331  19.3256700  40.6589937
  19.6967566  20.4153347  41.6972065  77.0773315  22.2808862  20.0737548
  77.9627895  21.9173956  20.0821877  76.6197920  21.7813659  19.3974650
  78.1123829  28.5938311  52.7811003  77.1993732  28.6614084  53.0605268
  78.6011505  28.4523964  53.5918617  20.1890945  18.8995385   5.3373587
  20.3847551  18.1816244   4.7352406  19.4709599  18.5700071   5.8776587
  14.1985667  52.8242350  41.8576288  14.1931558  52.8238344  40.9004450
  14.7282708  52.0629549  42.0944691  20.4100370  20.7553625   7.4514806
  21.2141585  20.5263638   7.9175049  20.4094148  20.1869774   6.6813058
  65.9940481   6.2014675  45.8656359  65.4298306   6.2551236  46.6370058
  66.1440420   7.1129400  45.6147337  71.2436819   6.8902749  55.9056330
  71.1468554   7.5053018  55.1785851  71.5164375   6.0713434  55.4918861
  22.6613450  46.3187790  50.6600666  22.9211211  47.1917868  50.3657770
  22.1067810  46.4786100  51.4237070  61.2536764  27.4012232  60.3275061
  62.0714235  26.9042468  60.3507614  60.5678129  26.7373133  60.3985834
  22.4711180  32.5666094  51.8260145  22.1700287  32.9037690  52.6697540
  23.2816505  33.0452371  51.6522741   8.5984147  34.8176122   3.3866659
   8.2018900  35.4955649   3.9338225   8.2789606  35.0049663   2.5040114
  11.8756425  69.5518494  52.0443964  11.2223244  70.1249647  52.4455786
  12.4364030  69.2819548  52.7716780  21.4713192   6.2713182  51.1708117
  21.3136315   5.4182136  51.5752602  22.3291206   6.1843956  50.7550573
   1.4337663  49.5916939  39.0583062   1.0681110  48.7197971  39.2077136
   2.1578212  49.4466209  38.4492660  67.7176046  43.7156200  23.3920622
  67.8587246  42.8379679  23.0370378  68.1397009  44.2995977  22.7619553
   7.8165662  35.1120615   0.6441074   8.2164282  35.4488730  -0.1577029
   7.5978005  34.2030287   0.4390859  60.1296902  13.7882197  13.2179368
  59.6689177  13.2355940  13.8492239  59.9104738  13.4120619  12.3654807
   7.5414634  42.3257208  43.9482307   6.5856946  42.3454094  43.9967108
   7.7845758  43.2040024  43.6554050  25.9459472  59.0654373   0.7662759
  26.4843893  59.5760775   0.1616618  26.4709520  59.0081167   1.5645972
   7.8435391  65.9148788  54.6316767   8.5795164  66.3733435  54.2262411
   7.4232334  66.5759563  55.1817226   7.8205651  25.8344054  56.3677311
   7.6392645  24.9227262  56.1392450   7.3580021  25.9706354  57.1945953
  10.5226541  26.3905025  24.4000006  10.7598436  26.0166168  25.2486348
  10.2372086  25.6399846  23.8789701  25.1634479  57.3341370  64.4656849
  24.3642497  57.1952009  63.9575434  25.7771349  56.6805458  64.1303682
  19.4559538  69.9300385  55.9600210  18.6305988  70.2428102  55.5896187
  20.0976181  70.0643110  55.2625465   5.7566132  41.2853755  62.7081161
   6.4472212  40.6274314  62.6280872   5.5818619  41.5598937  61.8079307
  43.3898926  18.9145243  63.4374571  42.8277016  19.4624293  62.8897524
  43.3901882  18.0617714  63.0026627  13.6207008  24.4130588  58.3782530
  13.9018869  25.2065945  58.8337374  14.3025851  24.2576528  57.7247143
  54.2343664  71.7729712  29.8936653  54.8574018  72.1318388  30.5255461
  53.6548758  71.2191057  30.4167819  19.1220808  73.2348347  55.5673981
  18.4007859  73.2236624  54.9382401  18.7068141  73.4436798  56.4041615
  29.9381518  72.5318861   7.4154413  30.1635122  73.4517813   7.2767442
  30.2169371  72.3496675   8.3128309  71.4188671  21.7197847   8.6721468
  71.3583183  22.6750183   8.6626029  70.5415726  21.4217663   8.4317976
   5.2795249  54.5359468  10.6915784   4.3492529  54.6615410  10.5043566
   5.4785520  55.1873064  11.3641477  19.7791231  72.6174307   8.9396065
  19.6453691  73.0233240   9.7961074  20.5132794  72.0174313   9.0709221
  64.3240070  20.9879971   2.3640689  63.9053679  21.6758680   1.8465650
  65.2418947  21.2540460   2.4181844  13.0796111  62.3292828   2.2062252
  12.7641523  63.0679131   1.6855107  12.6292777  62.4186754   3.0461305
  75.5231237  45.2532864  24.4882321  75.5042171  45.3002501  23.5323739
  74.6282244  45.4622602  24.7560453  25.6138301  47.1139002  55.8353043
  25.2158976  47.1867657  56.7028141  25.1552653  47.7663326  55.3058863
  24.2410874  31.8291020  63.0258226  24.6761727  32.6800966  63.0782032
  23.3346796  32.0370698  62.7990961  11.2796647  73.2061894   6.0375124
  11.4182050  73.9385972   6.6380268  11.1818582  72.4438639   6.6080612
  41.3847017  16.9532263  46.3304615  41.9096518  16.2326229  46.6788769
  42.0089245  17.6693094  46.2129784  68.7600183  51.0660124  25.6235647
  67.9314995  51.0952520  25.1450992  68.5469818  50.6222773  26.4445066
  76.6376877  72.6855564  40.8813190  76.1474419  72.1703672  41.5219975
  77.1526957  73.2962465  41.4086342  57.2440910  27.6869154  59.7250938
  57.3618793  27.7565503  60.6724644  57.8218842  28.3581066  59.3619251
   4.8923221  29.8878407  44.4171143   5.6598103  29.7955728  43.8525963
   4.2006370  29.4082785  43.9612389  29.9986315  63.1937599  49.3785667
  29.6810865  63.1454229  50.2802658  30.7339239  62.5815630  49.3504381
   3.8364223  20.4008341  55.5133772   4.1856018  20.4801774  54.6256781
   3.1869930  21.1009741  55.5787659  16.1105919  66.3958311  47.8446770
  16.6399312  66.4351320  47.0481300  16.7358613  66.5392876  48.5550880
  37.6476908   2.6212445  -0.0048081  36.8755364   3.0706432  -0.3483946
  37.8823996   3.1150565   0.7808723  36.1136436  34.7840261  13.8408577
  36.0715723  35.7050157  14.0982306  35.9300637  34.3014669  14.6468759
  73.1634092  42.0958519  61.2245417  72.3368073  41.6242695  61.3273478
  72.9506731  43.0028343  61.4444542  76.8193007  45.0404739  63.5040331
  76.3394594  45.7411861  63.0624533  76.1385250  44.4979286  63.9020491
  14.4646096  24.7175550  36.7017531  14.4328070  25.6736660  36.6689873
  13.8529611  24.4341373  36.0222006  31.1711025  61.8572187  12.0778120
  31.9133353  61.3876152  11.6972947  30.7478714  61.2148857  12.6474750
  64.2376471  10.4874372  12.7244401  64.8217201   9.8302597  13.1028748
  63.3773756  10.2827191  13.0908489  78.4059668  52.6068926  10.2443993
  79.0956068  51.9679117  10.4242241  77.8769684  52.2014093   9.5573968
  13.1687689  53.5921621  61.4714622  13.1296360  52.8220415  60.9043503
  12.2580934  53.7553358  61.7169762  75.9335804  40.3897667  50.2012014
  76.8521690  40.4194641  49.9337292  75.7121563  41.2997723  50.3989220
  74.0207243  52.5186682  31.6851044  74.7655821  52.8537083  31.1859322
  73.2751179  52.6075745  31.0914731  60.3565359  72.5409317  46.5543556
  59.6140718  72.3052692  45.9980822  60.2539873  73.4805775  46.7052889
  37.0945001  64.5913172   5.0750583  37.9442072  64.3500185   4.7062689
  37.1439576  64.3163490   5.9905791  59.6936083  68.2118225   3.2123500
  60.1335096  67.6539516   3.8538292  58.8176680  67.8351736   3.1280869
  30.5091357  64.8057890  62.9934168  30.2174687  65.6779957  63.2587767
  29.7000575  64.3074608  62.8781080  57.2362614  50.3287649   3.4792417
  57.2407150  50.3778410   2.5233108  57.2760010  51.2411070   3.7660939
  18.0158854  37.8413820  61.9276476  18.6993158  38.1603909  61.3382483
  17.3030877  38.4730482  61.8319893  30.7323861   1.6077229  12.4622381
  29.8459172   1.2484615  12.4987888  31.2855506   0.9183276  12.8296292
   2.6219115  23.6826062  43.8003635   2.8252274  23.2139921  42.9908609
   1.8711480  23.2146645  44.1658974  72.1055031  33.3894467  63.2411480
  72.9399252  33.2784057  63.6968279  71.4455938  33.3301306  63.9319754
  58.9073801   3.0637360  19.0591621  59.2942047   3.9367193  18.9921045
  58.8754368   2.8875020  19.9994564  51.4106321  68.9983559  12.5537086
  51.2283897  68.5916996  11.7065668  51.4882278  68.2624674  13.1608963
  19.7593236  14.3857086  63.4491730  20.2934265  14.0981615  64.1896343
  19.1986573  13.6352301  63.2525349  63.1818962  12.3397744   5.1892614
  62.9345322  12.4247849   4.2684913  63.0592442  13.2169712   5.5521864
  61.9812918  34.4147944  59.2618322  61.9170570  35.3694296  59.2897701
  62.7845764  34.2430711  58.7704325  67.6842976  42.3447609  39.7158480
  67.5719595  41.4242697  39.4785643  67.3918104  42.8286219  38.9434743
  25.2080536  72.4277306  47.8255081  25.1308942  73.2885981  48.2368231
  25.4925013  72.6143932  46.9308138  21.0643959  25.8726883  13.2093191
  20.3174973  25.2993345  13.3814895  21.1450672  26.4050984  14.0006876
   8.7305337  67.7302933  36.7636347   9.2096776  66.9528151  36.4769745
   8.9927518  68.4140444  36.1472249  11.6656053  19.3048954  48.7185335
  11.9027984  20.0781393  48.2066107  10.7108235  19.2648804  48.6635494
  73.1345749  16.5176535  60.0025463  73.3661032  16.7312121  60.9064388
  73.0109024  17.3674905  59.5798016   3.6569712  23.9774704  51.6833496
   2.7879313  23.8223505  52.0534039   3.5071510  24.0452290  50.7403803
  10.7606244  35.9804010  36.6404247  11.2083912  36.4261031  35.9213376
   9.8318481  36.0368061  36.4158678  65.3805351  30.1426220  22.8005576
  64.6999025  29.8746777  22.1831632  64.8995686  30.4995728  23.5472107
  24.6696067  60.2365923  10.2919316  24.4798589  59.9294281   9.4054329
  25.2306581  61.0017252  10.1653457  77.1941805  52.7763367  25.8446622
  77.4249411  53.5887337  25.3941154  76.8523788  53.0612278  26.6921544
  25.8366847  56.8111897  59.2529202  26.6177988  56.2677431  59.3566465
  25.7283378  57.2394085  60.1021099  16.1874878  20.6943536  56.8677711
  16.7932701  21.1904359  56.3171721  15.4340291  20.5246806  56.3023138
  18.7990856  49.7200346  63.1706142  17.9744804  49.5198107  62.7277040
  18.8310778  50.6763554  63.1963587   0.9183882  48.6065102  47.0960760
   0.5129921  47.7476168  46.9769669   1.7435166  48.5508156  46.6141081
   5.3329968  23.8043118  45.3856421   5.3494418  23.1395435  44.6971321
   5.2955407  24.6365261  44.9142122  28.0268264   4.3814275  32.8976798
  28.3558369   3.4848857  32.8328991  27.0774150   4.2834911  32.9702067
  14.9326336  28.6128378  52.7929258  15.8616543  28.6420035  53.0216169
  14.5823634  27.8847647  53.3061981  55.3492451  12.9040766   9.3271065
  54.6054649  13.4143341   9.0067065  55.9909153  13.5604835   9.5984471
  69.3445683  10.1046383  49.0254784  69.7057247  10.2606380  48.1528616
  70.0534868  10.3406203  49.6237946  35.3755498  68.0389309  14.9278402
  34.8168635  67.2844124  15.1143909  34.9518442  68.7683630  15.3802061
  66.4712334  69.0103054  62.1422338  67.4063253  68.9584637  61.9443846
  66.0413885  68.6642456  61.3601160  70.4968977  51.0833597  37.7533674
  70.1535988  51.6559744  37.0674443  70.5551958  51.6443539  38.5267496
  67.6435709  54.5496702  53.7167358  68.2474136  54.2853117  53.0226755
  67.0772076  53.7886047  53.8441849  16.8727541  33.7300467   6.5683556
  17.3013985  34.3059015   7.2015125  17.3393559  32.8979969   6.6471243
  66.7780828  60.9948540  15.8641946  67.0709705  61.2897253  16.7264581
  66.6705370  61.8008614  15.3592086  26.0081625  51.1602974  16.7083085
  25.4554009  50.6233072  16.1405694  26.0760856  50.6585073  17.5206041
  55.4393768   4.5440793  10.7532895  55.9695005   4.7476223   9.9827230
  55.2605295   3.6065859  10.6801355  60.0862455   6.3794440  10.1598251
  59.3756390   5.9652495  10.6494296  59.6471643   7.0048892   9.5834053
  14.4783962  30.5296540  45.3629398  13.9742160  30.0373340  46.0107470
  14.8863697  29.8581600  44.8162365  12.6853848  26.4908385  49.7474909
  13.3985615  26.0404158  49.2950153  12.1944010  25.7905793  50.1773787
   6.5076441  31.9958496  48.3682871   5.7656014  32.5771952  48.2020283
   6.1874259  31.1252379  48.1322193  37.0547962  58.1075811  16.9644630
  37.5175428  57.3030567  16.7302918  37.0022440  58.0842113  17.9199338
   9.0163547  35.7102966  53.5735130   8.1280756  35.6858468  53.2177162
   9.4411850  36.4305854  53.1077528  54.2527246  25.3701234  12.6896596
  55.0382376  25.3177428  12.1451759  53.7909460  24.5482898  12.5235856
  25.6912613   3.0764282   2.0294432  24.8869586   3.3043301   2.4956919
  26.2730765   3.8220626   2.1769272   9.8527473  67.4972773  25.1445985
  10.6956589  67.1492815  24.8536849   9.8669612  68.4156847  24.8752308
   7.4131835  59.1922188  53.4054518   7.6083076  60.1258945  53.4854841
   8.1203192  58.7579918  53.8825655  48.2330275  73.5563231  23.2503796
  48.8752651  74.1289425  23.6697531  48.2821274  73.7813234  22.3212957
   9.5301014   7.7561569  46.1655188   9.1805863   6.9797140  45.7282448
   8.9090395   8.4520710  45.9505367  51.5975142  54.4131231  14.7300792
  51.2709188  53.5338497  14.5391667  50.9117079  54.8123789  15.2653277
  29.4891548   2.1336390  32.1415401  30.1207685   2.6336288  31.6245246
  29.3656898   1.3220537  31.6492844  52.4917316  32.8832912  44.5754814
  52.5941181  33.0939221  43.6473703  52.2334146  33.7106037  44.9817562
   9.4557422  71.5731382  59.6335173   8.9456362  72.3608065  59.8222017
   9.7850716  71.7082119  58.7449598  72.3403311  37.4225259  38.3506227
  72.6223278  37.3714232  37.4373317  72.7367258  36.6571236  38.7668729
  48.3164597  68.6471510  50.7726145  48.6290026  69.5461130  50.8746719
  49.1029406  68.1421185  50.5661726  47.9454851  27.3863840  11.8292367
  47.2730732  26.7478299  12.0666099  47.4614620  28.1017113  11.4166093
  74.8759365  55.3933048  40.8037758  74.5335054  55.7564354  41.6205406
  75.2081251  54.5290565  41.0465956  66.7398977  10.5497897   3.4953609
  67.0095968  10.5667305   2.5770977  67.2957945   9.8814166   3.8959688
  39.4379210  57.5685120  25.5763245  39.7007966  57.4500322  24.6635866
  38.6454558  57.0395184  25.6679368  20.0751638  72.2863293  51.5449476
  20.3853559  73.0047369  50.9936762  19.1717887  72.1413946  51.2636328
  25.3629613  55.6310987  50.3188086  24.8302579  55.4816437  51.0999107
  25.3687286  54.7868824  49.8677015  17.2470260  52.4095392  58.4417105
  16.9423127  52.6804543  57.5756931  17.6703620  51.5640211  58.2929850
  17.9366589   5.1192617  55.6727314  17.7171302   5.5072969  56.5197659
  18.0205309   4.1828939  55.8527660  46.5831995   3.9298126  43.1206942
  46.0271215   4.7063625  43.1837702  46.3101292   3.5050952  42.3075008
  19.3003321  50.3657341  51.7611074  19.7774470  50.1343441  50.9642076
  19.2297113  51.3198042  51.7294884  26.6428304  71.8216944  56.2433720
  26.5594816  71.5647507  57.1616650  26.4392543  72.7569723  56.2369299
  34.3024349   3.7649846  50.3638887  34.9133968   3.9737314  51.0705566
  33.9587831   2.9011476  50.5917501  29.6645212  29.9860072   1.1606608
  29.5625138  29.6200633   2.0392451  30.3158283  30.6797600   1.2642969
  66.9425869  28.5218334   5.9031856  66.7643976  28.8627410   6.7796910
  66.8735361  27.5717592   5.9971076  52.4595785  30.0973654  44.8837137
  52.5344419  31.0271382  44.6688795  51.6699076  29.8086643  44.4262123
  30.9045315  63.8336897  26.8411684  30.5482221  63.4552622  27.6449513
  30.9540772  63.0975676  26.2313318  51.6098601  74.5831550  57.8918982
  50.7078797  74.3188730  58.0730534  52.0379455  73.7822457  57.5893736
  52.1446228   5.1856095  56.1295128  52.3678255   5.9897763  55.6607580
  51.8501663   4.5837706  55.4459047  49.9172449  26.5159154   8.2039875
  50.8453703  26.2839365   8.1724423  49.5138550  25.8197689   8.7225312
  16.4088905  37.0815182  20.6583738  16.7411685  37.6390171  19.9548006
  17.1115446  36.4510322  20.8164859  18.4658098  66.7400074  38.3659029
  19.2958796  67.2162724  38.3856297  18.6072874  66.0383797  37.7303481
  52.7001190  58.3389759  61.9416761  52.1860933  58.4846973  62.7358866
  52.8347301  59.2147112  61.5794516  69.1427326   7.7467811   1.2215806
  69.8171759   7.0678419   1.2415356  68.5619736   7.5289714   1.9506283
  16.9101679  57.4959326  42.5990343  16.2722850  56.9700718  43.0815363
  17.3073661  58.0593967  43.2630920   9.8192775  41.5537405  42.4761534
   8.9439571  41.6636705  42.8475857   9.9416304  42.3228550  41.9196224
  21.4743805  63.2085276  29.1336942  21.6959119  62.8072214  28.2933927
  22.3045468  63.2429314  29.6089554  36.9109774  10.1165390  58.4526682
  37.6098752   9.4679570  58.5370207  36.8727231  10.3068936  57.5153685
  45.8189249  65.3991747  38.7761497  44.9611473  64.9790382  38.7134290
  46.1580229  65.3861570  37.8811216  57.9469633  13.8303256   6.0213661
  58.3909321  13.6280632   5.1978272  57.1556091  13.2920563   6.0053366
  72.5867033  19.8277986   4.7116840  72.9897547  20.4835439   5.2806991
  72.1619797  19.2167842   5.3137678  37.4946871  14.3874039   0.2184769
  36.6102877  14.4384922   0.5810400  38.0437508  14.1354669   0.9609648
  70.3504419  39.3268156  21.4698315  69.9303627  38.5067439  21.2104988
  71.2557173  39.2367840  21.1721683  34.3410563  53.5402393   5.1919818
  33.5539627  53.6515856   4.6587658  34.3623090  52.6051235   5.3953016
  26.3738751  37.0743966  11.6975152  26.1605382  37.7101588  12.3805416
  25.5338931  36.8771863  11.2830639  28.9598989  63.4700680  51.7867327
  29.6090055  63.9117765  52.3342609  28.4538722  64.1813946  51.3940668
  27.5262189  58.2680368  12.7592969  27.0893478  59.1182137  12.8100193
  26.8154788  57.6296186  12.8184986  14.0948236  59.5164919  26.0506940
  13.4527194  59.7928476  25.3968120  14.3480957  58.6340952  25.7796621
  73.7567949  38.1626105   5.5349636  74.5371008  38.3915782   5.0300586
  73.0578232  38.1065774   4.8834005  17.6712418  51.5292835  32.9318857
  16.7579067  51.7994928  32.8368068  17.8289723  51.5461349  33.8758516
   5.0471938  20.1128316  16.0963154   5.0795025  20.5571294  15.2490914
   5.1797789  19.1882324  15.8870995  51.1887217  12.4903488   7.4773508
  51.2330770  11.6203177   7.0807266  50.6694984  12.3652649   8.2716995
  25.6360960  57.1547747  44.6199083  24.8388386  57.1744061  45.1492739
  26.2968850  56.7708254  45.1962519   0.8659869   4.5628724  35.6975865
   0.6005721   4.5538965  36.6172099   0.0936764   4.8786241  35.2284718
  12.5979912  71.3339710  55.7711029  12.8567779  72.1037149  55.2643871
  13.4132242  71.0191059  56.1615992  72.8629875   2.5818768   5.6675118
  73.1553841   3.4900555   5.7446271  72.5765276   2.3467274   6.5500522
   1.2377676  46.5550184  41.9070148   0.8401401  45.8211184  41.4384890
   0.9409862  46.4510393  42.8110838  73.3704758  54.0605021  25.8604288
  72.4521112  53.9988327  25.5976939  73.7964010  54.5195580  25.1364923
  77.7292395   7.2527379   1.5876494  78.5295677   7.5778717   1.9999477
  77.0305586   7.7850956   1.9680145  32.1107340  11.1406910  62.2434950
  32.9523706  11.3385034  62.6542854  31.8014979  11.9840646  61.9128513
   6.3023013  71.0525465  23.8237858   6.8540430  71.0437250  24.6059203
   5.5171561  70.5681801  24.0790653  19.7619331  52.5832891  42.5105524
  20.6613159  52.9081774  42.4682903  19.6603489  52.0557785  41.7183113
  59.1312838  57.3758936  56.0986853  60.0555372  57.3730803  55.8497190
  58.7323713  58.0354691  55.5311728  67.5052261  62.1854305  48.0478764
  67.1260214  61.3065958  48.0384731  67.4447536  62.4821043  47.1398258
  71.1142874  34.2485237   3.1781524  71.8034124  34.0911508   2.5327319
  70.9722996  35.1947474   3.1510469  21.3983011  62.2611141  40.6418514
  22.1974659  62.3279619  41.1644411  20.9284019  61.5163422  41.0170126
  53.0279350  64.2832851   7.4574047  53.9519978  64.5231867   7.5266206
  52.5881100  65.0948477   7.2041267  72.8471279   1.2788936   8.2511711
  72.9339266   1.6518360   9.1284466  72.5653076   0.3765295   8.4013301
  55.6506920   2.4751931  48.8958502  56.0628653   2.3200685  49.7457218
  55.0226736   3.1788772  49.0591097   1.4203539  58.6947203  39.0275550
   1.3956778  58.0753851  39.7569704   1.9076455  58.2379484  38.3418918
  14.5087123  61.9845247  48.7369490  14.4215870  61.9748783  49.6901274
  14.3895161  62.9028940  48.4948301  78.8372803  69.8441076  54.0815258
  78.7317705  69.2749691  54.8438740  78.3610439  70.6421804  54.3106937
   4.2163670  55.8305788  33.4049821   3.9845455  56.5575743  33.9828849
   4.1405624  56.1927891  32.5222087  51.8229008   2.0667976  48.9610720
  50.9859562   2.4870755  49.1588736  52.0693302   1.6286546  49.7756481
  66.8193531  32.1716356  26.2742281  66.9494486  32.6434588  25.4516172
  66.0238934  31.6583610  26.1327267  12.0482373  10.1270127  63.3680916
  12.5497806  10.6754267  62.7648258  12.2322094  10.4925704  64.2333937
  16.6440117   0.8075369  31.3729572  17.5306034   0.5026971  31.1799312
  16.2966204   1.0858435  30.5255532  27.3285747  66.4134645  22.2471642
  26.8620110  65.6308699  21.9537497  26.8696713  66.6815233  23.0432701
   2.4156588   2.7565786   5.7333213   3.3335042   2.9680064   5.9038794
   2.4086002   1.8083817   5.6025350  77.6954842  41.3744164   4.9310705
  77.1398401  40.5969572   4.8758668  78.4470892  41.0950184   5.4538125
  16.1135125  58.0983448  53.9151907  16.0557711  58.6208725  54.7151041
  16.9488335  57.6370001  53.9902449  73.1812906  47.7196169  61.0251999
  72.8115273  46.8649101  61.2465334  73.9592505  47.7943993  61.5778494
  23.6349154  41.5349579   3.6795011  24.3974161  41.9302225   3.2568991
  23.3091664  40.9006310   3.0409530   1.8490668  48.0350304  54.0012264
   2.6671082  47.6461792  54.3107986   2.1209067  48.8263083  53.5362434
  64.1164637  34.4273496  25.5068827  63.2486439  34.8197150  25.4111433
  64.6797657  34.9495840  24.9357486  22.5986981  35.6816530  54.2368412
  23.0613923  36.0560060  54.9865150  22.9351759  34.7880721  54.1695690
   6.7836559  58.3282185  43.1584120   6.9602412  59.1510916  42.7024221
   7.6494783  57.9536772  43.3205891  61.3543034  38.7623906   9.5555794
  62.2447395  38.9140654   9.2387974  61.1832571  37.8416300   9.3576485
   1.7115383  15.5600405   4.5005867   2.6036823  15.2400970   4.6345514
   1.8153994  16.3350439   3.9484859  70.0963545   0.8540336  61.4854717
  70.0697803  -0.0923243  61.3442898  69.3192148   1.1852565  61.0353899
  20.3990555  61.5460205  46.5600824  21.0366368  62.0016289  47.1097612
  20.8547878  60.7561827  46.2690544  14.1997564  27.5203824  36.6110396
  13.8621938  28.1395197  37.2583055  13.8726699  27.8477335  35.7731342
   5.2811354  43.8438654  32.2970033   5.3388029  44.5994139  32.8818607
   4.7028324  43.2320118  32.7524495   8.4632427  30.0305438  53.8519049
   8.2111228  29.1083956  53.8038397   9.3074560  30.0717664  53.4026432
  61.4667654   0.6726927  27.3216867  61.0442972   0.7243374  28.1790614
  60.8843613   1.1588812  26.7380285  71.5300941  55.4277754  52.3798800
  71.3944101  56.1992407  52.9300308  71.1530018  54.7057676  52.8826094
  15.6683099  33.6994076  38.6318207  16.5278137  34.0662670  38.4246993
  15.8220434  33.1470394  39.3982983  35.2777719  53.2997322  52.7513170
  35.4418492  54.1188478  53.2186079  36.0583234  52.7703094  52.9146576
  56.1289501  70.3989172  56.9840240  55.2926254  70.5608511  57.4205685
  56.1716843  71.0618067  56.2948322  17.0693076  49.6341467  53.8324213
  17.8103411  49.5954943  53.2277632  16.3085401  49.4185066  53.2930088
   0.5276112  21.3173270  10.3440225   0.9032873  22.1477056  10.6365502
   0.3105597  21.4637756   9.4233310  17.2371376  53.3285093  21.4695120
  18.0701542  53.6059666  21.0882878  16.8458116  52.7626753  20.8039856
  66.0276651  14.5818198  56.4285564  65.3668690  15.1598620  56.8099356
  66.5374374  15.1493895  55.8504343  74.2464712  73.4807783  19.1280854
  74.9326589  73.7012131  18.4981763  73.5261061  74.0739519  18.9148974
   1.4702715   6.0398006   9.9278039   0.7787102   5.5413699   9.4924402
   2.2839764   5.6505150   9.6075344  25.7902408  67.6374340  56.6177082
  25.0348616  68.1270027  56.9432163  26.4865279  67.8249311  57.2472000
  78.0151127  64.6914864  28.4690905  78.4042304  64.7730970  27.5983667
  78.0828948  65.5691957  28.8449430  72.0468712  19.6059072  10.4933476
  71.3932991  18.9462996  10.2609849  71.8594933  20.3436184   9.9129134
  73.0942392  17.3368979  41.7747974  72.3653746  16.9766581  41.2696075
  73.3549023  16.6255236  42.3598051  39.8754525  71.0772943  53.2910395
  39.6254253  71.1884546  54.2082977  40.2636480  71.9169807  53.0451536
  27.3612690  55.5614376  40.4800463  27.7043724  54.7287893  40.8044004
  26.4241052  55.4052448  40.3636026  27.8448963  63.4932470  40.2307844
  28.6992192  63.1090260  40.4275990  27.9154253  63.7804174  39.3204045
   2.3277423  51.6713381  21.4940310   2.2793366  52.4947643  21.9796824
   1.4863591  51.6102123  21.0417366  66.6899920  70.9455252   1.1794178
  66.8862343  71.3590765   0.3387654  65.7775927  71.1770678   1.3530484
  75.2648449  43.7914705  18.2831311  75.9171581  44.4919205  18.2926810
  74.4429159  44.2325354  18.0683661  11.7047167  46.2691402  43.3607817
  11.6742623  46.9634676  44.0189695  11.6118801  46.7268991  42.5252724
  32.6387691  59.5144987   1.2495752  33.3330560  60.1733732   1.2585445
  31.8333197  60.0169468   1.1269844  10.0324702  35.3080130  30.0379753
  10.5309868  35.2797771  29.2213249  10.4976499  34.7103596  30.6233382
  55.6496429  40.9801626   6.9598782  55.7573748  41.9307947   6.9903564
  55.2074909  40.7627916   7.7805370  26.0135293  26.6552329  15.9224200
  26.9071937  26.8495178  15.6398451  25.7744765  25.8665752  15.4354882
  10.9886205  29.1029477  50.5909157  11.1891496  28.7907338  51.4732647
  11.8441510  29.2174244  50.1771593  65.5283737   1.2290556  16.6837239
  65.7022810   1.1569094  17.6222241  65.0537443   0.4269120  16.4657271
  64.2331505   7.6252317   1.4272325  63.4765577   7.1663302   1.7922017
  64.1149187   8.5355294   1.6985472   1.3163345   8.6597776  36.5137577
   1.3701124   8.5769057  35.5616713   0.3907846   8.5207117  36.7143822
   4.3851382  50.6622267  32.4297333   5.1208019  50.0679827  32.5777340
   4.7334599  51.3329506  31.8423367  19.1948284  55.3497933  63.9553684
  19.8754515  56.0112165  64.0798969  18.6306013  55.4391788  64.7234103
  72.3723507  12.7627230  43.7841511  72.7306318  13.2324636  44.5372868
  72.5554800  11.8412423  43.9673662  67.6442051   4.5601133   2.6831195
  67.5453329   3.6099878   2.7440932  68.2032394   4.7908467   3.4250587
  19.6534765  61.6457510  56.8676662  19.3381286  62.5447083  56.7746305
  19.5665574  61.4569283  57.8020239   5.0672513  17.9096127   4.4209138
   5.0841260  16.9785762   4.6425384   4.6530774  17.9430842   3.5586080
   8.9750564   9.8617423  11.9128573   8.3864421  10.4481053  11.4375210
   9.5758361   9.5320845  11.2445593  62.3305035   6.3474500  51.5348577
  62.0107985   6.2856638  50.6347418  63.2840204   6.3463801  51.4509630
  16.8019307  60.8053923  36.0734391  16.8092728  61.7260408  36.3353181
  16.0651779  60.4259825  36.5524769   7.8464216  49.8366356  13.3263516
   7.7645177  50.1402712  12.4222887   8.2871115  50.5544329  13.7810934
   6.8226868  61.8993616  36.1960530   6.7396909  61.2753582  35.4749703
   6.9598466  62.7440643  35.7672238  36.9639230  19.9315417   7.3030132
  36.1987281  20.5046058   7.2549534  36.7716050  19.2231607   6.6886508
  71.8086338  37.6713848   0.3547818  71.6891956  36.7296720   0.4778372
  72.0568085  37.7631545  -0.5651212  15.2256119  57.9083443   8.2317883
  15.9008479  58.4935045   7.8884536  15.3640747  57.9124880   9.1789114
  59.9125862  12.3257172  11.0068679  59.9230003  11.3767600  10.8819544
  59.6795082  12.6778269  10.1478422   5.5425125  26.1756229   1.6936606
   5.2848601  26.9559002   1.2027252   4.7191799  25.8211756   2.0294008
   1.0962392  44.6433735   0.5771327   1.4005159  44.5310974  -0.3234459
   0.5831347  43.8554907   0.7565677  68.5799265   9.9479485  31.1905336
  68.3135843   9.3558425  30.4871821  68.0345154  10.7250834  31.0688043
   9.1991717  56.6854763  43.6010981   9.8046041  57.4041319  43.7833500
   9.5183390  55.9610987  44.1392756  23.7582731  20.3354597  11.5497339
  23.8590813  20.4026914  12.4992335  24.5465088  19.8780644  11.2569785
  19.1590798  62.1492243  33.6236334  19.5059896  61.5776396  32.9386711
  19.9246800  62.3897028  34.1454172  72.5606060  21.1509919  12.9010272
  71.9804716  20.7384777  12.2610986  72.9893112  20.4181504  13.3430529
   8.3126730  63.1875372  56.7240429   8.4545869  64.0631580  57.0837355
   7.4156421  62.9677677  56.9755745   8.4583956  34.1533732   9.7475779
   7.5872558  34.5292711   9.6209031   8.4276783  33.7672663  10.6229126
  64.0727663  60.0603056   6.4079154  64.6282864  59.3256283   6.6684496
  63.1792068  59.7435713   6.5400738   0.4576363  36.3596392  34.6582389
   0.6368014  36.3708830  35.5984545   0.8403607  37.1739769  34.3317294
  38.0687642  67.1087980  35.2790570  38.2130909  66.5297747  36.0274816
  37.7731276  66.5264893  34.5792389  61.5622568   3.1953073  47.5495720
  62.0587778   2.7671930  48.2470083  62.0506954   2.9961044  46.7508411
  25.3475881  65.2136040  52.9023266  25.8084488  65.7388973  53.5564756
  24.9385834  65.8568954  52.3234272  41.9743872  65.4219866  38.8665676
  42.3345804  64.9240685  38.1326962  41.5719891  64.7609901  39.4299412
  63.8709974  45.3032494   9.1212177  64.2539549  44.8805666   9.8899245
  64.0126371  44.6792698   8.4093070  58.8384581  27.6153302  51.9797659
  59.2325163  27.7158928  51.1132622  59.1158295  28.3949113  52.4609613
  16.8230557   5.1164371  19.3091929  16.7695916   5.0900722  20.2645350
  16.8837523   6.0481465  19.0983248  50.9137487   1.1433176  35.1455832
  50.2950621   1.5332869  34.5280194  51.4911222   0.6085465  34.6007061
   4.5257550  15.1829827   5.1434284   4.2891881  14.4266069   5.6802380
   5.4751593  15.2575850   5.2398574   3.4104490  60.9664392  24.6590614
   2.7408993  61.2964678  25.2582407   2.9547048  60.8640337  23.8235736
  60.1629543  57.5131512  18.3239818  59.2197609  57.3503876  18.3125019
  60.4217386  57.3580027  19.2323816  48.4973621  39.6037102   3.3951208
  47.7947283  39.7610259   2.7644145  49.3023109  39.7053742   2.8872302
  13.5010767  55.3251505  43.0751705  13.9098370  54.5174599  42.7640629
  13.1898713  55.7577705  42.2800446  69.8916721  37.0577550   4.3642527
  70.1071692  37.1722031   5.2898312  70.5242729  37.6070881   3.9013493
  74.8833847  48.6328316  35.6918025  74.2276907  48.0235529  36.0310340
  75.6171274  48.5592556  36.3020802  44.2619842  46.8279098   0.0241085
  44.7348004  46.7856197   0.8553072  44.0837293  45.9137730  -0.1968245
  45.4597807  62.6284552  16.6057551  45.8398008  63.0157089  15.8171809
  46.0928392  62.8226948  17.2969449  58.0883646   7.8411150   8.6921674
  57.9721355   8.1544656   7.7952093  57.4158907   8.3002949   9.1953200
   5.0340480  61.2470579  45.0417614   4.3375069  61.8998480  45.1119280
   4.5840648  60.4438829  44.7797346  13.0546188  59.8714733   4.5552489
  12.2808468  59.3337679   4.3867803  13.7621880  59.2396021   4.6830001
   9.7819936  57.6110792  50.9884548  10.7202876  57.4242163  51.0187674
   9.6271533  57.9154062  50.0942278  10.0688827  63.3590698  15.0832701
  10.1875532  62.6166296  14.4908774  10.7242262  63.2261324  15.7681680
  10.6908679  62.6502228  42.2482491  11.0314786  61.8852186  41.7845869
  10.5165982  62.3348379  43.1350422  77.2198677  47.5508881  57.8602266
  77.1602535  46.7534828  57.3340797  76.3726807  47.9802418  57.7412415
  45.3225899  58.1450415   0.1009622  44.8907995  57.5672388   0.7301965
  44.7355461  58.8972139   0.0244732   8.4128129  16.2947094  15.4879189
   8.4415150  17.2514772  15.4861987   9.0307909  16.0353208  14.8045063
  48.7421227  27.4108386  49.0108967  48.9756823  26.9719911  49.8288822
  48.3633137  26.7195392  48.4679031  16.0037422  70.5321407  15.9180725
  16.5574861  69.9800301  16.4701366  15.4410815  69.9151516  15.4501283
  21.7233014   1.8872765  42.6726484  21.6386127   2.5641164  42.0011234
  21.2727070   1.1271303  42.3047161   0.1488429   5.3574997  32.3736715
   0.4334578   4.6449381  31.8014097  -0.3711871   4.9267080  33.0520654
  30.8475542  68.3581543  22.8977728  31.0561204  69.1583252  23.3799195
  31.6878271  67.9095507  22.8032875  21.4322948  44.9534559   5.6027293
  22.2924590  45.3610039   5.5014795  20.8469319  45.4947758   5.0730556
  13.1216884  28.6415195   3.4150234  13.2481277  29.5619917   3.6451921
  12.2953737  28.6267138   2.9320994  12.0643353  38.3511043   9.7237933
  11.4435625  37.6313376   9.8369646  12.7064681  38.0173063   9.0973139
  71.7093468  61.4721394  23.8209677  72.5095892  60.9472799  23.8018131
  71.6472387  61.7812681  24.7247458  48.1689024  62.8434658  51.9494867
  47.9597950  62.5406408  52.8331184  49.1168213  62.9760361  51.9597864
  23.5293460  59.5704651  55.0584126  23.4155846  59.2163420  55.9403944
  22.9452300  60.3281403  55.0273466  64.1567612   2.0840575  56.1255026
  64.2607117   1.8784152  57.0545578  65.0385571   2.3110586  55.8303213
  29.7003651  65.2833843  35.3376555  29.1428685  65.1057291  36.0951972
  30.4347658  64.6769619  35.4332685  52.9401350   6.4675432  27.9988480
  52.3583174   7.2275943  28.0054617  52.3571730   5.7185692  28.1230497
  18.0174887  71.7751169  29.6447611  17.6643145  72.6647234  29.6547127
  18.9585614  71.8895340  29.7771358  52.2410727  73.6663151  42.7015495
  51.3116884  73.6042547  42.4810314  52.5602150  72.7653790  42.6497030
  46.2974024   4.6674258  12.3240018  46.2821865   5.4233521  11.7369974
  47.1817589   4.3123063  12.2343266  33.4173417  59.5490789  40.5883646
  33.9886546  59.1650724  41.2534761  33.1306982  60.3791809  40.9691525
  43.2349157  59.6405745  34.1374445  43.3889341  58.8350248  34.6310043
  44.0937281  60.0606680  34.0905809  54.6572161  11.3426960  59.3377161
  55.1993704  12.1297181  59.2838812  53.8574314  11.5698993  58.8634205
  65.1475573  33.7122917   6.1478782  65.9627008  33.6831403   6.6488028
  64.4668007  33.8520193   6.8061149  64.6715736  12.7337360  53.8475466
  65.1268721  12.9545236  53.0350256  64.0067577  12.0973957  53.5842609
  24.3674254  56.9870663  22.1679878  25.2874422  56.7650318  22.3111820
  24.3508029  57.3912668  21.3004780  19.6415746   7.8883535  47.2190952
  20.4403782   7.6369989  46.7554474  19.7014344   8.8401890  47.3006821
   1.7280912  69.9065876  36.9421172   1.8461975  69.5985079  36.0435796
   0.9570049  70.4723120  36.9019437   7.7656710  27.6894259  40.0375843
   7.7252817  26.8357730  39.6064496   7.6627165  28.3219552  39.3265700
  31.6976810  56.6149426   5.4565465  31.8718767  57.5389910   5.2776086
  32.4661112  56.3161421   5.9428251  24.5203209  64.5819569  40.2316856
  24.1169882  63.8137388  39.8274565  24.5714545  65.2254438  39.5249033
  64.5772934   6.9864643  62.5237608  64.9101925   6.1492252  62.8469372
  63.8922024   6.7469805  61.8996382  31.8200803  33.3647609  58.8535976
  32.3836780  33.4539533  59.6221209  31.2420177  32.6314974  59.0643024
  54.3181229  13.6520934  21.3709450  54.3289471  14.1962898  22.1583247
  53.7123871  12.9409194  21.5796304  47.3534727  22.1419477  60.0836325
  47.8333330  22.9310918  60.3350639  46.9883394  21.8118930  60.9045887
  38.5626078  33.4065986   1.8229537  38.4706450  34.3175435   2.1021569
  38.1856155  33.3864641   0.9433500  31.3144588  63.0800200  46.4270830
  30.6302547  62.5303841  46.0449839  30.9157062  63.4440517  47.2174644
  23.9780593  66.6384172  13.8190746  23.2513547  66.6751528  14.4409943
  24.1281676  65.7031870  13.6810803  68.9540768   3.3337834  34.9364758
  68.0671644   3.6844510  35.0180078  69.4415283   4.0191376  34.4794035
  20.6857204   9.9157310  58.2193613  21.1348224  10.3366852  57.4863291
  19.9857521   9.4064522  57.8108120  42.1689320  65.7308531  48.0495501
  41.7201614  66.5676975  48.1700945  41.6995430  65.3088331  47.3299646
  19.5318592  57.1960163  51.7111492  19.5638216  57.9275560  51.0946560
  20.1384926  57.4440479  52.4087954  27.4985194  44.9997282  13.4638834
  27.5312757  44.9999571  14.4205225  28.0275273  44.2447233  13.2062984
  33.2726550  36.9742417  15.9081852  33.7208652  37.2772241  15.1185393
  32.3416686  37.0456553  15.6974840  22.6244140  26.5863228  22.5907516
  21.8122816  26.2457728  22.2156549  23.0505133  27.0425892  21.8651533
  29.5507169  63.3778667  17.4865413  29.2786312  64.2344332  17.8159320
  29.4678879  62.7939749  18.2404912  29.8812985  16.1757052  18.5394132
  29.6260667  15.2916396  18.2757473  29.8650599  16.6819525  17.7272046
  55.2412605   7.9626679  51.9153261  55.4136086   8.7921113  52.3609209
  55.4075527   8.1482089  50.9911251  70.7138872  47.2648239  28.6112165
  71.1661005  47.0578957  29.4290900  70.6007195  48.2150412  28.6338902
  28.9573312   1.3086380  49.5302296  29.8918700   1.4491975  49.3782043
  28.8836837   1.1916748  50.4773998  18.0843091  56.5640068  20.6911254
  17.6757383  57.1374369  21.3395691  18.8375354  56.1868429  21.1456919
  50.0966787  10.0338733  57.2924232  50.3717232  10.9430015  57.1738148
  50.5688810   9.5503974  56.6145563  48.8774300  62.0623541  37.1064115
  48.8817835  62.4499941  37.9815960  49.6650887  61.5190411  37.0811844
  31.3614702  31.5225053   4.5217100  31.0747933  31.1104965   3.7066662
  31.9216251  30.8669853   4.9373433  49.1045427  22.0160747   3.3392942
  48.5230160  22.7304149   3.5996297  49.6183872  21.8272781   4.1245025
  12.2742414  53.4554005  12.8471971  13.2073689  53.2599068  12.7618384
  11.8939221  53.1764793  12.0142555  69.6224070  14.4973826  53.4318304
  70.3077173  15.1647782  53.4659767  68.9761162  14.7845030  54.0768862
  58.7126398  17.2546077  34.0540838  58.9101982  16.3877404  34.4086862
  59.5107651  17.5122428  33.5927224  67.1865559  28.2516074  52.9135084
  67.7610683  27.9385948  52.2148037  67.7836418  28.5287452  53.6084318
  60.6252718  27.3748302  54.1971350  61.0689878  28.0701184  53.7114096
  61.3287830  26.7842245  54.4663763  57.0786333  68.0736542  43.8005066
  57.0586061  67.7827072  42.8888130  57.2218370  67.2725725  44.3044806
  26.2564087  70.7357073  13.4000790  25.8292270  71.4720917  12.9624903
  27.1887302  70.9512424  13.3765531  36.4861250  60.7509184  37.0131111
  35.8967328  61.4766312  37.2185063  36.1949301  60.0377131  37.5812459
  32.1948147  65.0390863  58.8396025  33.0478096  65.0508404  58.4054422
  31.5695047  65.2447653  58.1446838  43.8575840  11.6071105  36.5775251
  44.2371511  11.1445999  37.3246837  43.0272388  11.9519186  36.9059539
  12.3367000  49.3996382  61.2136269  12.2995174  49.4032860  62.1700954
  12.7986526  48.5903025  60.9949732  17.5521576  70.1788044  38.4192467
  18.4437799  69.8372507  38.3515310  17.3981488  70.6142187  37.5808382
  70.2028227   7.6243132  22.6546574  69.6031332   7.6199031  23.4007049
  70.2142906   6.7165583  22.3512101  26.0066152  69.2037630  47.4171209
  25.7554173  70.1128817  47.5803280  25.6940627  69.0244198  46.5303421
  23.1474710  71.3859272  23.9422083  23.5257745  71.4478874  23.0651236
  22.2556424  71.0702085  23.7966299  12.1805787  17.5752163   6.2270927
  12.0232582  18.2235587   5.5407000  13.0378175  17.8075123   6.5840405
  76.1255026  11.4565778   6.6258407  75.5890799  10.6743193   6.4971983
  76.0428143  11.9414008   5.8046585  15.9376049  65.2118540  57.9407263
  16.2061906  64.4630623  57.4083662  16.7534363  65.5449057  58.3145237
  44.4096994  36.1901951   6.6845286  45.1620770  36.5804219   7.1293688
  44.7741938  35.8122730   5.8841854  11.5742123  43.6567783   5.8926499
  11.9321048  43.6231613   5.0055116  12.2992313  43.3820295   6.4539790
  32.1148086  59.6501589  63.1793356  31.6710806  60.4158783  62.8146219
  33.0235219  59.7407293  62.8925133  13.5589910  67.0637560  31.1583233
  13.9001858  66.8894863  32.0355058  13.8447738  66.3137150  30.6367898
  38.9094090  71.4788485  13.9286983  39.4761133  71.7331409  13.2004023
  38.0227733  71.5309811  13.5717797  52.3783016  60.1516247  53.1994629
  53.1941509  60.5550814  52.9030704  52.6322556  59.2697525  53.4715748
  17.1514995  73.8966211  61.3536739  16.2788207  73.5126520  61.2686300
  16.9941909  74.7739119  61.7027426  26.3816404  43.8442087  63.2801676
  25.8978415  44.2429113  62.5568342  25.8552241  44.0376806  64.0558529
  18.8101828  53.3563423  51.9333982  19.0580916  53.3621502  51.0088778
  18.1956768  54.0849781  52.0211744  35.5014181  52.5158834  59.4522572
  36.2211776  52.3348570  58.8477707  34.7746444  51.9859362  59.1248608
  10.4741621   7.9042405  42.7969646  10.4637337   8.6625481  42.2129345
   9.6425730   7.4610239  42.6288891  67.5396681  71.3844776  20.7683802
  67.2930479  70.9676647  19.9427426  67.6569080  72.3078108  20.5449009
  13.2659996  71.6419601  33.2486105  13.1421804  71.0059404  32.5440693
  12.6498485  72.3460913  33.0466509  48.5730982  58.5277748  24.9860001
  49.5289183  58.5790825  24.9832582  48.3188534  58.8422298  25.8535886
  78.1842422  19.6898866  21.0802650  77.2743845  19.7269619  21.3752460
  78.1498766  19.2000413  20.2586198  20.4339123  59.1962051  16.5722406
  20.5471635  59.9781275  17.1126103  21.1929464  58.6506510  16.7783201
  32.1313906  31.0900760   1.4933029  32.0904660  31.9847417   1.1554698
  33.0675316  30.9023476   1.5613702  33.1358051  53.5853338  20.7751608
  33.7867260  53.9280272  20.1627088  32.4415565  54.2442846  20.7803535
  63.4370886  14.1893400   0.3879496  62.6871191  14.7727407   0.5037828
  64.1991876  14.7410883   0.5640407  11.1241484  63.1515741  48.7632418
  11.0181129  62.3321962  49.2465687  11.9013000  63.0116749  48.2222271
  59.7515821   8.6682892  21.9050455  60.0197887   8.6454046  20.9864759
  59.2877436   7.8418928  22.0397854  43.2902288  69.7592592  59.8660135
  43.5848999  69.5578289  58.9778519  42.5675631  70.3751087  59.7447109
  20.2316689  12.2600782  59.9512196  19.3182623  12.4140918  59.7099733
  20.5273819  11.5790141  59.3471193  49.7164536   1.5037365  39.3173790
  49.2743921   1.0391299  40.0279808  49.5188332   0.9887421  38.5351014
  30.4698181  67.0412159  39.2671442  29.6595073  67.1859169  38.7785864
  30.2673674  67.3288441  40.1573753  62.1447515  32.4380541  11.1925066
  62.6241732  32.4839091  12.0197201  62.8165293  32.2527862  10.5362892
  12.9267251  68.5997629  49.8563194  12.6213551  69.0966892  50.6152964
  12.6141679  67.7085304  50.0120115   0.0680271  13.8466907   0.7704497
   0.4107033  13.4852850  -0.0469793  -0.3816900  13.1117153   1.1873400
  22.9118395  65.4280424  25.8168578  22.0407081  65.0542212  25.6841111
  23.1047511  65.2639866  26.7399502   4.1851801  62.2497129  52.8254175
   5.0813675  62.5328255  53.0068827   4.2712766  61.3313675  52.5695753
   3.0794781  55.4860258  42.0037031   2.6725179  55.8776188  41.2308741
   4.0201256  55.5681801  41.8466520  14.9551153  28.1778550  21.5557051
  15.3194439  28.0338573  22.4290681  14.0408087  27.9043078  21.6295099
  72.7911091   2.0558679  48.0908394  73.5416126   1.6106455  47.6974583
  72.4551964   1.4341182  48.7364578  52.3576212  68.1292820  58.5140181
  52.0202827  68.6275959  57.7696276  52.6960182  68.7941599  59.1137314
  26.3364291   3.7715942  57.3703527  26.8408227   3.9951965  56.5881634
  26.9118261   4.0010250  58.1000853   9.5383561  60.6756210  31.2655759
   9.4398898  60.9246016  32.1845675  10.3507674  60.1700783  31.2401175
  40.7709837  12.0304215  59.8351336  41.5087891  12.6202118  59.6801472
  39.9977875  12.5530303  59.6223450  14.0938246  50.4799128  49.7613335
  14.4143820  49.7650051  50.3112268  14.8693848  51.0123205  49.5844793
  11.2763178  16.7496693   1.6163577  10.9061813  17.4263525   1.0494976
  10.7277942  16.7677915   2.4005935  51.2484121  66.7654133  32.6031661
  50.7553387  67.0908737  31.8500471  50.9440708  65.8651543  32.7177930
  56.0208225  32.4253511  58.4292221  56.8991232  32.3174310  58.0642986
  55.4396868  32.0425034  57.7720022  34.7900367  22.5442910  10.2547061
  34.0480280  22.9725552  10.6816053  35.1742411  23.2251692   9.7024161
  35.3039455  72.0795202  48.3870029  34.9282742  72.8991556  48.0656004
  35.4592562  72.2362280  49.3184280  53.9809036  64.4107151  63.8044310
  53.1768274  64.9011612  63.6336708  54.1193771  64.4986153  64.7474718
  33.3656716  65.9684181  26.7140794  32.4912524  65.6724501  26.4610457
  33.9071703  65.1802969  26.6706896  21.1567712  20.9703422  16.4243686
  20.5868578  20.5421758  17.0631969  20.7188177  21.7990327  16.2302017
  66.5195990  15.8388782   7.9912376  66.2656498  15.5641758   8.8723063
  67.4310446  15.5590320   7.9064810  23.2459188  44.4918060   7.8633600
  23.6946440  43.7027502   7.5596118  23.3517933  44.4764042   8.8145614
  53.2610893  13.3347142  40.2663136  53.2625103  12.3870778  40.1313543
  52.3471737  13.5924578  40.1456738  23.0341244  31.9280052  11.2751520
  23.6247063  32.3359823  11.9084001  22.2726965  32.5075078  11.2498879
  56.3214064  71.1653090  46.0733986  55.8367252  70.3995037  46.3813925
  56.8887091  71.4008760  46.8075037  16.5174651  47.1136189  17.0901966
  16.1332822  47.9346609  17.3976421  16.1944127  46.4535570  17.7035344
  14.1846538  66.6201544   1.6884428  14.7816229  66.1174631   1.1342204
  14.7593069  67.1570873   2.2340707  16.9491732  48.7208939  23.5488200
  17.8970146  48.8533449  23.5319686  16.5917778  49.4914246  23.1074762
  31.8432260  45.6304598   8.8941491  31.7023635  44.6837854   8.9080721
  32.6677823  45.7568502   9.3635792  52.7318218  73.1880431   2.1485090
  53.0529044  73.4571213   1.2878495  52.7094666  73.9971286   2.6595011
  69.9308348  18.7459695  46.4701843  70.4727840  18.9010084  45.6965685
  69.6792316  17.8246856  46.4056492  29.3236279  71.7252159  44.3728065
  29.7387052  71.6767454  43.5116482  28.8965988  70.8754158  44.4810343
  62.2322655   6.5708613  56.1709738  62.1442175   5.8502859  55.5470753
  62.6948595   7.2534269  55.6848240  42.5744677  70.3695726  31.6529942
  43.3040810  70.9725142  31.5103054  41.7983150  70.9297466  31.6580367
  76.6116714  29.8980260   4.9339339  77.5176096  30.0996828   5.1681113
  76.2296677  30.7449007   4.7034761  22.2227001   9.5017505   6.5921921
  21.4768171   9.0275860   6.9596976  21.8443298  10.3072393   6.2396920
  58.3974314  69.4827890  59.6504116  58.0574322  69.5679712  58.7596941
  58.7194204  70.3574181  59.8685360  20.1542878  65.7409239  51.0536194
  19.7128272  66.5813112  51.1764479  19.5369399  65.2186871  50.5413866
  21.2213755  37.2449613   8.3458918  21.9907236  37.1807766   7.7800143
  20.6324363  36.5606403   8.0279505  36.0165071  62.7148342  39.0333796
  36.6153431  63.1999969  39.6010423  35.8898306  61.8772268  39.4790244
  20.2323127  18.8565564  56.9530678  20.2390909  18.9559722  57.9050684
  19.3052125  18.7830961  56.7265224  12.2028625  68.7374926  34.3485570
  12.8041291  69.2710781  34.8681688  12.1349251  67.9139423  34.8316503
  10.0233042  14.9563086  57.0091343   9.0911567  14.9047661  57.2205019
  10.2372420  15.8853793  57.0945168  12.9466116  73.5724306  49.6535492
  12.7666306  74.4895601  49.4468737  12.1389902  73.1124020  49.4247389
  76.3605499   9.4276738  44.2075062  76.3326359   9.6713728  43.2822704
  77.2466421   9.0906721  44.3397951  24.0833640  36.5529895  10.1632214
  23.5337234  37.1010685  10.7233417  23.8939714  35.6577325  10.4440737
   6.7234409  35.7092881   7.3287863   6.6107476  34.9268270   6.7890781
   7.0258558  36.3806129   6.7171484  58.5779428  16.5025985  43.5650110
  57.7265739  16.3421524  43.1579924  58.3720016  16.7148137  44.4753885
  75.0874186  39.4427848  16.5636921  75.4321909  40.2831459  16.8656206
  75.5729008  38.7897086  17.0677054  30.9040380  61.3089561  38.1457353
  30.8687067  60.7323503  38.9089561  31.5274215  61.9927454  38.3908010
  13.5186815  60.3299713  11.8180764  12.9353976  59.6315622  12.1151304
  13.3975422  60.3557014  10.8689225  59.1244125  71.9936371  60.2122974
  59.8027229  72.2473955  60.8381844  58.3709097  72.5373411  60.4421806
  51.2749958  60.7995319  49.1613340  52.1050215  61.1609936  48.8504648
  51.5108013  59.9561691  49.5478153   5.3673071  29.4623399  30.7322693
   6.1616516  29.3998766  31.2626910   4.6638724  29.5907259  31.3686085
  25.5773830  55.9347153  47.3996639  25.7209134  55.6881475  48.3133554
  26.3403606  55.5898237  46.9358206  75.4355145  10.0274754  34.5749044
  75.8885050   9.8617738  33.7481189  74.8243904   9.2961532  34.6639347
  47.9708529  35.1495099   3.9422801  48.3647680  34.7170115   4.6999145
  47.0279169  35.0485396   4.0722984  49.7253609  37.6309848  43.9024830
  48.7952471  37.5763488  44.1218662  49.7833920  38.3601356  43.2850647
  19.3311310   5.4226464  61.8497896  19.1473687   4.5007226  62.0301247
  19.5573342   5.4443544  60.9199572  44.8302317  10.4298425  42.7550793
  44.5356131   9.5541334  42.5049496  44.0824318  10.8120477  43.2143593
  25.7351899  70.4147196  44.6070671  26.0635805  70.4892445  43.7110567
  25.9538484  71.2536192  45.0128508  -0.2559441  73.9925339  34.8071218
  -0.0713461  73.1297703  35.1783276   0.6046159  74.3444177  34.5794201
  61.7694521  73.6333466  53.5808372  62.5141144  73.0634356  53.7729454
  61.6032028  74.0953732  54.4024992  17.8106248   5.4825687  45.5893135
  17.0337510   5.6644863  46.1180878  17.8538036   4.5272428  45.5478477
  68.8444042  21.0729504   8.5900706  68.3087921  20.4053760   8.1614703
  68.4686327  21.1551189   9.4665849  68.1236267  62.2298527  13.4745157
  68.7631559  62.2873878  14.1843915  67.5105000  62.9446220  13.6459959
  15.1260471  14.5953298  41.7610025  14.3203700  14.2624223  41.3656712
  15.8219802  14.0722954  41.3630819  20.8417726  43.2005548  23.5657549
  21.6739011  43.4888744  23.1907010  21.0387158  42.3513937  23.9611936
  17.3884294  67.5015275   0.4540583  18.1803558  68.0322234   0.5403276
  16.6856859  68.0657546   0.7766052  57.1703434   3.1943515   6.8009609
  57.0953655   3.0842319   5.8530772  56.2795067   3.3914998   7.0903927
   3.7626386   7.2944278  37.0713401   2.9013160   7.5496680  36.7408729
   3.8198197   7.7057672  37.9337573  78.9689875  73.5925245  63.1955051
  78.3461571  72.8660011  63.1735325  78.5574484  74.2437029  63.7636852
  45.7560349  60.5982828  33.7440372  45.8303022  61.2328482  34.4568062
  45.8833790  61.1154461  32.9487014  52.0841837  70.0179195  56.6944695
  52.4826288  70.8867550  56.7453909  51.1968565  70.1797533  56.3740253
  21.4580035   4.3575206  41.5168047  20.8142447   4.2917225  40.8114862
  20.9793019   4.7604543  42.2411823   1.7721720  34.6391678  40.6426477
   1.9130205  34.0772963  39.8806167   2.5838542  34.5691633  41.1451483
   0.6610674  12.6161456  43.2979298  -0.1434955  13.0773318  43.5350323
   1.3568363  13.2565498  43.4463215  25.2006865  67.0057201  49.0458441
  25.3042746  67.8190708  48.5519218  24.9735618  67.2903442  49.9310732
   2.3095249  34.4846678  14.2355931   3.2384253  34.5202923  14.4638634
   2.2311768  33.7164474  13.6699677  45.6390333  13.8718522  24.0407085
  46.3090849  13.2581031  23.7397432  45.8408070  14.6891093  23.5850692
  55.9591007  64.2574406  32.0806551  56.6868114  63.9316034  31.5510368
  55.5069542  64.8788309  31.5099788  35.0052404  71.8670177  30.2605081
  35.0213456  70.9755516  30.6087422  35.0869322  71.7556667  29.3133235
  64.0944529  16.2577546  37.8265285  63.3903265  16.7982829  38.1846714
  64.6999407  16.8846154  37.4307203  76.6014433   6.3885200  24.4743586
  76.6543961   6.7429781  23.5867858  76.4534903   5.4511058  24.3494725
  23.3349681  28.4563899  26.3653231  23.9508915  28.3784103  27.0938754
  23.7643957  28.0041122  25.6391907  12.0070529  10.6052148  32.2400022
  11.3488925   9.9215221  32.1150231  11.7861223  11.2720740  31.5898323
  43.6091185  13.7404215  51.7672968  44.1273403  13.1396663  52.3028088
  42.7063847  13.5962796  52.0510674  51.7000341  52.1251631  16.7826533
  52.2740841  52.6357794  17.3535931  50.9545660  52.7017069  16.6150069
  54.5914888  70.7862616   6.1687809  54.4204712  71.2001419   7.0147651
  53.7969351  70.9454298   5.6592911  28.8551814  73.7470085  21.2018967
  27.9608304  73.5503875  21.4806676  28.7853867  74.5868054  20.7479119
  46.0124207  66.1870146  13.5106730  46.3264513  66.6684914  12.7453017
  45.6620455  66.8624783  14.0913773  33.0871987   2.7225912  44.8132563
  32.9764986   3.6724123  44.8558855  33.7594795   2.5895637  44.1449928
  21.9469261  25.0020194  35.0637698  21.5471268  25.7588649  35.4922318
  22.0945549  25.2875137  34.1621423  64.8001242   7.6134413  11.6315818
  65.0853634   7.6939666  12.5417399  63.9395285   7.1979612  11.6861570
  48.7481356   1.0312209  15.1486194  47.8935909   1.2428261  15.5243993
  48.6634588   0.1234141  14.8571599   6.7728788  62.4978065  32.6798415
   6.4413059  61.5999556  32.6923442   7.6519096  62.4337292  33.0532455
  78.0036831  28.4764791  63.9136362  78.7930775  27.9747367  63.7103081
  78.2444715  29.0034676  64.6755648  72.6885462  51.1881447   0.6555551
  73.1161451  50.6346273   0.0020979  71.7777586  50.8937359   0.6597939
  59.3869114  14.5969570  64.0193939  60.3212023  14.4305277  64.1444159
  59.2947292  15.5428314  64.1336584  12.7104068  38.8115954  12.4582946
  13.1130981  38.0616832  12.8961325  12.4837101  38.4868073  11.5868866
  35.4373670  42.7173138  16.0892594  35.7332540  41.8348455  15.8658099
  35.7744241  43.2688808  15.3832841  38.7020946  15.5331945   6.8762267
  39.1143036  14.9660230   7.5278646  39.4349504  15.9149396   6.3930839
  41.1377621  70.5164003   6.0869509  41.5153408  71.1602592   5.4876888
  40.4803085  70.0584459   5.5632472  71.2105479  73.7109727  11.5262926
  71.3529077  74.1565061  10.6911480  72.0763030  73.3880247  11.7761004
  27.2913701   2.7840479  64.2831583  26.4001424   3.0426844  64.5177950
  27.5955636   3.4772738  63.6973793  21.7819333  53.1711435  10.8894145
  21.9517374  52.6252365  10.1217008  22.3453307  53.9355659  10.7690930
  27.2935772  18.9234436  22.2512841  28.1130266  18.7589169  22.7178335
  27.4638724  18.6284304  21.3567472  46.0730743   8.1608701  32.5757432
  46.3281298   7.7237260  33.3881974  45.1169252   8.1164056  32.5697994
   2.9775709  24.8510718  46.1565971   3.8305524  24.4338608  46.0358143
   2.5235882  24.7130871  45.3252792  59.7207117  69.9051046  51.5166092
  59.0689039  70.1640081  52.1680260  59.5814133  68.9654589  51.3987446
  24.4379377  55.7263708  53.0002594  25.0107956  55.2174664  53.5739136
  23.7139535  55.9979105  53.5644770  69.2183256   1.9280337  51.4741182
  69.2771769   1.4613350  50.6404781  69.2382526   2.8539404  51.2321854
   8.8663274  15.0634778  38.4243178   8.6567581  15.3756261  39.3045878
   8.0418843  14.7062874  38.0942583   2.3765424  31.2141037  55.2640915
   2.8417963  31.6838956  55.9562349   2.2261672  31.8732882  54.5865250
  72.1643496  26.3000727  36.7721128  71.8169022  26.5435147  37.6301599
  71.5817308  25.6049323  36.4662266  60.6811666  48.7525940   7.4708098
  61.2855434  48.2763195   8.0401266  61.1771011  48.9008045   6.6656291
   3.6691111   5.6397754   5.6340820   4.5397121   5.4394227   5.2903605
   3.0664504   5.3012830   4.9719232  18.0868256  16.6268408  63.0321074
  18.7196314  15.9762406  63.3362579  17.9011393  16.3756323  62.1273184
   7.1719259  16.8917835  57.2693491   7.1067786  17.3900414  58.0840397
   6.8807936  16.0105395  57.5036192  17.8148723  14.9605143  38.7728524
  17.3856211  14.2031300  39.1707778  18.7441432  14.7312057  38.7626886
   8.5905141   4.9332720  29.0856147   9.0263832   4.1054302  29.2879200
   7.8830260   4.6916324  28.4878683  23.8435674   8.0164641  42.8398657
  24.5810699   7.9003000  42.2408438  23.9518213   7.3227030  43.4904099
   9.6091253  34.1550406  63.7682401   9.9023635  35.0018461  63.4318408
   9.3227560  33.6748274  62.9913093  10.0532496  23.5361362  46.2630463
   9.8487782  24.3202758  45.7535839   9.7309309  22.8115034  45.7270908
  74.2876101  56.9142962  43.2404613  74.7939205  57.5146675  42.6932526
  74.7914219  56.8468094  44.0515423  24.0826130  17.2645068  32.4444413
  24.8105407  17.6205981  32.9539061  24.0761781  16.3310230  32.6560950
  68.7633371  66.6610670  32.9866958  68.6500454  66.8235397  33.9231777
  69.1566277  67.4660826  32.6497984   1.2016942  29.0369296  50.7266998
   0.6007073  28.9333200  51.4644766   1.4450862  28.1423378  50.4885864
   3.8253522  18.3241844  44.5864677   4.5833397  17.8913248  44.1936302
   3.7459612  19.1492617  44.1077423  62.7587095  74.1991808  33.4563184
  62.9830983  73.5754091  32.7658200  62.2052154  74.8482808  33.0221009
   5.1402009  41.0835361  56.0310936   5.3353381  40.4190493  55.3703260
   5.9806561  41.5106487  56.1967373  11.7285573  16.9041550  37.8900528
  11.2971282  16.6771555  38.7138081  11.1110604  16.6288292  37.2124648
  60.0758886  67.1177053  37.8758311  59.5992327  67.9442930  37.9518580
  60.4934502  67.1602631  37.0155597  11.1199152  29.5465827  53.5412741
  11.6222155  30.0557113  54.1774464  10.9694636  28.7055206  53.9727926
  63.2177973  54.3255186  14.2087066  63.7016630  53.5291147  13.9899576
  63.4064150  54.9260569  13.4875882  16.6765654  24.1362453  47.5666666
  16.1404300  23.5694337  47.0121241  16.7998779  23.6352730  48.3729267
  46.9512701   4.4880968   1.8575935  47.0808887   4.1419312   0.9746433
  46.6355324   3.7398678   2.3642442  26.4460540   2.8612164  41.7314053
  25.7407784   3.4131369  41.3934708  27.2296453   3.1677184  41.2750340
  19.3376589  18.8402462  53.9689922  19.9510276  18.9287043  53.2394838
  19.8722112  18.5147452  54.6932411  20.6856370  33.0733180  29.3898058
  20.8258295  33.8214588  28.8094068  21.0768366  32.3333359  28.9254570
  45.8711720  65.4635477  54.6852827  45.1132250  65.6006098  54.1169882
  45.7459927  64.5848703  55.0437307   5.2680296  26.0233116  36.9039655
   4.6750218  25.9337473  36.1579418   6.0947073  26.3144994  36.5191984
  56.4556456  19.8461986  42.7121210  56.9216156  20.5508614  42.2620678
  55.5378389  20.1174998  42.6960421   1.8451369   8.3762616  52.4049091
   1.8382089   9.2071688  52.8800726   1.3941203   7.7640897  52.9863405
  74.7241259  54.3762159   9.5217955  75.2834225  54.1534472  10.2659678
  74.3772888  53.5356712   9.2227715  77.5384474  64.9379969  33.2737970
  77.4927330  64.1722298  32.7013087  78.4755707  65.0921202  33.3932686
  63.3715200  59.3951082  18.8944733  63.9353848  59.7863388  19.5617294
  63.9591551  58.8442850  18.3772647  35.1989746  11.6452372  51.4892149
  35.8431959  12.1821654  51.9506454  35.4285288  10.7449484  51.7194700
  23.2499528  28.1374049  30.1957917  23.5577655  27.5663304  30.8996081
  23.8186288  27.9311323  29.4539762   4.8122966  44.3991995  23.7966442
   5.6904167  44.6607542  24.0736389   4.9342492  44.0468884  22.9150343
   1.4035849  28.5249805   8.7798047   0.9413900  27.9377365   9.3779272
   1.4114754  28.0581117   7.9442203   4.9626949   3.7078485  23.4379387
   4.2661637   3.1431589  23.1029725   4.6888658   4.5933640  23.1989574
  10.6091475  38.2273102  15.1219213  11.5302813  38.4742808  15.2040768
  10.1292968  38.9607215  15.5067348   9.2912149  53.7345266   1.2931436
   8.8061041  54.2575550   0.6549089  10.2056313  53.9860106   1.1634101
  56.5606689  25.0535893  59.9355841  57.0185757  24.7817612  60.7309818
  56.9836473  25.8747196  59.6844625  67.9764795  68.2018280  30.0451279
  68.4340811  68.5890722  30.7913733  68.4870291  68.4751797  29.2829919
  48.1622887  11.3630009   7.7150023  47.9128742  12.0110500   7.0561719
  48.0963993  11.8304324   8.5477078  23.1730604  43.4647608  36.1999679
  22.5074506  43.9929390  36.6406775  23.8917875  43.4108686  36.8298554
  39.0018725  13.2079184  34.1145396  38.1697536  12.8595054  34.4345665
  38.9539051  14.1466463  34.2954278  69.9569225  55.8019304  12.3599970
  70.7327318  55.8292675  11.7999947  70.2007341  56.3124943  13.1320822
  18.4404814  33.4822774  22.6220942  18.4436727  32.5863099  22.9589367
  18.1579757  33.3948898  21.7117167  15.9091222  18.5316956  24.0309596
  16.6298807  19.1427386  23.8780999  16.3341582  17.6796520  24.1289163
  10.5364561  32.0616364  51.2563515   9.7257578  31.7811060  50.8317327
  10.6713569  31.4256549  51.9588900  72.7824926  35.5126715  49.1623068
  73.5744572  35.9131813  48.8036728  72.2619820  36.2516165  49.4773674
  36.1521792  73.3460236   1.4088602  36.2910342  72.4902010   1.0032484
  35.2005076  73.4361506   1.4581318  10.7184184  16.7025983  18.6289370
   9.8930788  16.4418805  18.2201910  11.3806057  16.5382314  17.9575777
  31.4766788  39.4901156  12.8011715  31.6154385  40.0521564  12.0388818
  31.7986393  40.0056458  13.5406327  55.9984827  42.1320105  44.2091799
  56.6806364  42.3533678  44.8431349  55.3212786  42.7947521  44.3448305
  68.2552433  54.0772581  64.3012524  68.7014246  54.3609524  63.5033321
  68.5922527  53.1962109  64.4637728   4.3590835  43.6522245  29.6361089
   4.7743618  43.7487936  30.4931092   4.4702345  42.7266121  29.4190359
  57.7473116  62.9979277  42.0968199  57.7183485  62.8136444  41.1579752
  57.2425413  62.2891760  42.4957085  24.3131018  19.9502289  17.6263654
  23.8654304  20.0164080  18.4698355  23.9090800  19.1947830  17.1993983
  66.4817142   7.2137171  59.7169685  67.0192528   6.5355372  59.3078756
  65.5930471   6.8585211  59.6985245  63.4928751  11.0817742  60.2951717
  63.2775116  10.5977964  59.4979143  64.3827152  10.8031726  60.5114889
  37.2809553  60.0378847  62.5435305  36.8977642  60.9150314  62.5460672
  37.7961731  59.9992609  63.3493137  77.1731997  26.4500642  42.8933430
  77.3941088  27.1574330  42.2874832  76.5821981  26.8545055  43.5284615
  48.8454437  19.9402046  59.2718554  48.3670473  20.6715870  59.6623087
  49.2084551  20.2969646  58.4611893  13.9424443  32.6644516  43.8685894
  14.0717423  31.8512964  44.3567419  13.4439290  33.2243919  44.4637251
  76.8395615  35.4746199  20.6772757  77.0753193  35.2648020  19.7736025
  75.9613180  35.1099443  20.7865238  13.9020097  38.9166045  18.7004614
  13.0484068  38.9773464  18.2716203  13.7425816  39.2175364  19.5950305
  26.0751843  73.3653021   3.7870857  26.1488080  72.6953125   4.4667354
  25.3237844  73.0913973   3.2611501  70.5298424  14.8907018  56.6984224
  69.7201061  14.4826949  57.0051670  71.0304880  14.1706550  56.3148594
  44.7907495  50.1657963  61.1709452  43.8480520  50.2961445  61.2737417
  45.1603889  51.0477829  61.2121820  13.0390644  55.8686733   8.1571764
  13.6861241  56.5585327   8.0100799  13.4081054  55.3412533   8.8656026
  65.5122757  66.7951965  50.6730795  66.4424467  66.6436481  50.5055904
  65.4179955  67.7475977  50.6565380   4.3760794  42.8629160  37.3577499
   5.0350702  43.5424995  37.2158813   4.8241279  42.0456028  37.1398473
  69.3219185  31.0884929  30.2553344  70.2374554  31.2358117  30.0180054
  69.2928791  30.1759553  30.5428529  11.7970657  55.9618473  23.2464027
  11.4740789  55.3908873  23.9434791  12.7481902  55.8574247  23.2726836
  70.0713348   7.2563255  51.8073130  70.1950455   7.4457413  52.7373934
  69.1592789   7.4898714  51.6345692  72.2803259  41.8438482  16.9018900
  73.0994225  41.7290545  17.3836875  72.1904564  41.0415220  16.3876677
  31.0573506  11.6947293  35.5187988  30.8081746  12.1474087  36.3245440
  30.6208396  12.1863306  34.8230863  67.9087973  71.7552042   7.6317513
  67.6168394  71.9986582   8.5102278  67.8408623  72.5638437   7.1240962
  57.9432535   0.5950092  42.5604582  58.2595348   0.0378181  43.2716084
  57.5863743   1.3662142  43.0010414  37.3761392   2.3287928  26.9624138
  36.9774747   2.9104912  26.3151693  36.8705368   1.5184399  26.8997574
   3.5213926  25.7273984  24.6634483   3.4536514  24.9172330  24.1582012
   2.9212207  25.6021428  25.3985238  35.3824472  15.4368317  51.5171337
  34.6635389  15.9913623  51.2139845  35.6210804  14.9142241  50.7515192
  54.7426939  69.3680620  53.8830948  54.6216965  70.2945280  54.0910721
  55.2722979  69.3687630  53.0857515  19.7905505   5.4074794   9.6579343
  20.6166148   5.7357037  10.0130641  19.9416268   5.3495270   8.7145102
  17.9533672  20.1948881  23.9183426  18.2862246  20.8122468  23.2669568
  18.7137699  19.6642697  24.1559649  65.2885866  52.8038883  54.1299438
  65.3422451  52.5788593  55.0587702  64.4572783  52.4281740  53.8401175
   6.4660788  16.3749456   7.7475667   5.6823272  15.8757293   7.9772347
   6.8881863  15.8563805   7.0626241  77.4182034  52.9844332   6.9193339
  77.8969049  53.2225227   6.1253637  78.0102777  53.2166529   7.6347005
  40.6616163   2.2957960  62.2351742  40.2433062   1.8986952  61.4712620
  41.4911938   1.8267596  62.3248386  44.8171759  11.3449621  11.9913518
  45.7176590  11.1326241  12.2368646  44.8677969  11.5633702  11.0607779
  26.8149805  67.3256826   7.3906833  27.2788572  68.1530809   7.2623789
  26.6572762  67.2832680   8.3338493  69.8725510   5.6147683   4.1159144
  69.6237326   4.7653347   4.4803125  69.7772217   6.2259561   4.8463893
  15.8571649  28.3302903  44.0412474  15.0484252  28.0035996  43.6469841
  16.5539539  27.9656887  43.4955502  62.6529598  14.0081799  33.5422039
  63.2154036  13.5350239  34.1554022  62.9623365  14.9130929  33.5828042
  22.0875692  22.0338368  55.7310915  22.3976994  21.1328483  55.8220387
  22.8867245  22.5581551  55.6794214  52.1529007  71.0098553  10.3657031
  52.2374344  71.8531895  10.8105290  51.8423176  70.4109669  11.0447490
  32.8695369  58.0033541   8.6132491  32.8055358  57.0896006   8.8910860
  33.3363342  57.9676962   7.7783471  60.7568169  64.9824429  50.9447575
  60.8780909  65.9035587  50.7143784  60.2303982  65.0027418  51.7439461
   4.3989572  58.7922239  34.9711180   4.9873945  58.2135153  35.4559612
   3.7386975  59.0544701  35.6126142  62.1449375   4.1132891  62.6414299
  62.2794533   4.2448768  61.7029095  61.6308355   4.8717350  62.9183626
  72.5755978  54.9219704  44.3677950  73.1369066  55.6018066  43.9949894
  73.0328560  54.1028595  44.1775179  59.6810484   2.2214742   4.3126991
  60.4053545   2.6599121   4.7592255  58.9019775   2.7039725   4.5892349
  19.4757593  17.6947618  46.7306852  19.2756653  17.3821342  45.8483791
  20.2042031  17.1453166  47.0200109  62.9708290  37.9109669  42.3841476
  63.6284781  38.4777975  41.9811153  62.3369932  38.5159159  42.7695274
  32.4286842  67.0647621  10.5828464  31.5573907  67.4562359  10.5209577
  32.2698879  66.1759472  10.9006989  43.5897064  61.6828537  21.8625498
  43.5337877  60.7400608  22.0182562  42.8742647  61.8679857  21.2541866
  68.8760757  25.2045536  32.0212388  68.8344860  24.8193860  32.8965378
  69.7749233  25.0466061  31.7325211  54.0564203  67.6139355  19.4808757
  55.0096560  67.6675510  19.5493817  53.7374878  68.3608294  19.9874961
   7.9476923  44.8315144   7.1614206   8.0426621  45.4027748   7.9235721
   7.8986698  43.9487934   7.5283504  62.3163509  14.6462226  52.4412537
  62.9684687  15.3294253  52.2856665  62.4274254  14.4146287  53.3633471
  51.6461611  61.9177818  45.7708120  50.7938719  61.6859865  46.1397362
  51.4378977  62.3838329  44.9610853  14.0071452  51.0152912  34.5015621
  14.1516733  50.0690842  34.4955897  14.1825688  51.2786818  35.4049373
  12.0171380  32.7148747  54.6886730  12.9056895  32.4412370  54.4610119
  11.7658782  33.3184671  53.9895439   9.2409271  31.5389562  32.6590538
   8.7654102  32.3630571  32.7638102   9.4529235  31.2694836  33.5527396
   9.4750452  54.7170305   3.9880580   9.0712267  55.5845833   3.9653060
   9.7200239  54.5429659   3.0792576  66.7285204   1.9343938   2.2443132
  67.5827360   1.6944245   1.8852043  66.1779642   1.1676484   2.0854884
   9.1148180  15.9788609  21.9114876   8.7272453  15.4152608  22.5810957
   8.8286674  15.5967200  21.0818386  24.7644782  56.5614128  34.0874696
  24.5647526  55.6860924  33.7555742  24.0843129  56.7314243  34.7391629
  14.5391333   3.1028399  44.3667316  15.4159546   3.0951560  44.7506046
  13.9791715   2.7177843  45.0408316   4.0957466  54.7500277  13.8499570
   3.8070396  55.6585693  13.7637472   4.7863770  54.7799778  14.5120490
  42.2270250  69.8505163  26.6249037  41.7052269  69.3062162  27.2145653
  42.3471498  70.6722355  27.1009064  75.3557920  12.8936136  44.4222641
  76.2074184  13.2894182  44.6074629  75.4358768  11.9938838  44.7389746
  65.7246113  50.8271456  33.8836813  66.2059355  50.2761555  34.5009089
  65.9178257  51.7226839  34.1610074  65.8298540  21.1857605  32.0943975
  64.9724197  21.4465761  31.7582202  65.7262707  20.2623296  32.3241329
  35.6493545   3.7162635  55.9542227  35.4400802   3.0727953  56.6312647
  35.6844497   4.5515710  56.4203358  44.2542887  14.3609953   8.4072870
  43.3126163  14.2495382   8.5379082  44.3242216  14.9210358   7.6341790
   5.8896643  20.8248830  25.8594370   6.3549602  21.2408447  25.1336908
   5.6197828  19.9737644  25.5144858  78.4509611  28.3195519  33.6644745
  78.7951612  28.3821559  32.7734995  77.7609587  28.9819264  33.7017703
  68.5040283  17.9813552  53.1406403  68.6158800  18.6594653  53.8068867
  69.0907288  18.2435048  52.4312115  45.4071569  14.6549594  45.5228758
  45.0473118  14.9946141  46.3422489  45.2627277  13.7099624  45.5713749
  45.7617807  71.5905142  47.8265619  44.8641253  71.2835789  47.9539633
  46.2722301  71.1173487  48.4836674   5.1319367  13.0786407  39.7721124
   4.5681864  13.7451172  40.1648283   5.3798419  13.4446239  38.9230943
  10.2564919  24.6623206  34.4064951   9.5977312  24.0798402  34.7846222
  11.0922325  24.3074775  34.7095728  64.0859699   8.7557870  18.4103739
  64.4465494   7.8844374  18.2461607  64.6353769   9.3439037  17.8922009
  18.0303800  45.4605961  50.1381922  18.9202416  45.1084805  50.1183462
  18.0941486  46.2986660  49.6801472  71.2067604  61.4260721  44.0688658
  71.3315296  61.0965395  44.9588537  71.6550779  60.7890797  43.5125542
   4.2668828  12.6037323   6.4864963   4.0425679  12.0271659   7.2168970
   4.0180627  12.1090615   5.7057130  29.4320321  22.3038650  18.6270595
  28.8132596  22.5281358  19.3220806  28.8855505  22.1776843  17.8513861
  74.2419958  70.9289408  62.2736549  74.8093367  70.3274059  62.7558517
  74.0721893  71.6427088  62.8884125  62.8499603  58.5679007  31.6807723
  62.6131630  57.7354288  32.0896101  62.4757004  59.2333221  32.2581601
  50.9897995  69.4903183  35.7830024  50.5349970  70.2907705  35.5209708
  51.5800858  69.7685289  36.4832807  69.4321108  32.0226955  36.6109252
  69.3377829  32.7533674  37.2220325  70.0968313  32.3159647  35.9877276
  44.9591064  68.4160089  49.8927546  45.0300121  67.4731922  50.0421095
  45.7585239  68.6441374  49.4182873   7.2856587  24.1063643  15.4313850
   6.4703816  23.9189458  15.8966041   7.0156145  24.6275973  14.6753263
  22.5132108  18.0718696  23.4040737  22.9403639  17.6440871  22.6619315
  23.1320095  17.9709029  24.1273475  14.8603272  37.5591969  28.5852385
  15.3035486  36.7161751  28.6806250  15.5479896  38.1602764  28.2987809
  18.4526873  53.3796501  13.5605764  18.5523558  53.9535284  12.8009975
  18.4966969  52.4943399  13.1993032  56.4792633  29.6947694   8.3193731
  55.6734037  29.5752835   8.8219076  57.0595789  28.9990592   8.6283338
  11.0513783  33.4643126   5.6193161  11.9120419  33.3925295   6.0320371
  10.8492649  34.3994927   5.6479615  27.7029753  39.2709899  23.3003688
  28.2313943  39.5628285  24.0432262  28.3295870  39.1771460  22.5828862
  12.0771790  37.1624684   4.0486398  11.3391078  37.5296450   3.5621578
  11.7188275  36.9639516   4.9137449  35.0428104  64.0690422  60.6197357
  35.0227857  64.8103094  61.2250042  34.2760897  64.1954279  60.0608110
  31.5721416  14.1543758  40.0705671  31.7656732  15.0239635  39.7204304
  30.6249523  14.1571176  40.2086163  22.0513415  70.1094818  31.2303686
  21.6224885  69.2594004  31.3287473  22.2736669  70.3704405  32.1240711
  42.5199604  45.4284000   3.6942324  41.7533779  45.1301336   3.2047203
  43.1269503  44.6889496   3.6625820  71.9890451   4.3649122  49.5063114
  72.2971869   3.7156954  48.8740158  72.5214863   5.1409352  49.3315792
  52.0190287   9.4600725  13.0428290  51.2475824   9.0243959  13.4051621
  51.7752361   9.6678013  12.1408057   0.3404827   6.3438952  14.8500633
   0.7613982   5.9584284  14.0816379  -0.4596670   6.7438847  14.5094740
  75.2410936  12.9769778  26.3922977  74.4120502  13.1557620  26.8360972
  75.6725645  13.8297021  26.3382053  19.0735555  25.5142307   7.4284446
  19.6739638  25.1666236   8.0879223  19.6180820  26.0842800   6.8855214
   5.9394199  22.5614190  40.6892586   5.1922226  22.1656632  41.1379290
   5.5662215  23.3001280  40.2083588  69.5854902  18.9727974  18.0568051
  69.6199846  19.9242318  18.1558752  68.9856434  18.8298154  17.3247015
  11.6482353  27.4334955  15.8217919  11.8522584  26.9991803  14.9935544
  11.3002551  28.2874489  15.5650759   5.1968169   3.7013170  46.5419292
   4.5001319   4.3499273  46.4411020   5.7076395   4.0126947  47.2891474
  70.0761795  12.8068161  34.4822407  70.3626490  13.2386291  33.6774397
  69.8906994  11.9058049  34.2176509  42.3671579  72.1328354  48.8949585
  41.5480375  72.3025894  49.3602133  42.2499657  72.5525856  48.0427217
  66.4980745  11.2124574  36.6393614  66.4204121  12.0570481  37.0830584
  65.7429504  11.1801350  36.0520148  17.8053558  10.0272608  61.6534853
  17.9776943  10.9442544  61.4398146  17.5969350  10.0340974  62.5876904
  17.2853160   7.0185941  63.1805038  17.8647816   7.1160686  62.4248934
  17.5073695   6.1612236  63.5436010  18.2760477  65.8028650  59.8725748
  18.5394275  66.2322283  60.6865215  19.0106821  65.9483624  59.2764425
   8.0397445  29.0320849  63.5894918   8.6932093  29.5156884  63.0841780
   7.5265634  28.5635805  62.9311752   2.7048504  27.9788804  57.5252724
   2.0492908  28.6442924  57.7343178   3.0858716  28.2699823  56.6968298
  77.9080963  49.7259808  37.1192551  78.7930727  49.5099974  36.8253040
  78.0319786  50.4326200  37.7529287  -0.1348667  13.0680287  29.9825120
   0.3659682  12.4709845  29.4266915   0.5174816  13.6770141  30.3286457
  74.2209721  27.3018694  48.8918972  73.8265657  26.5314770  48.4830284
  73.6184883  28.0168080  48.6866951  11.0237944  18.7767029  21.3371754
  11.6743922  18.8323545  22.0370746  11.1121440  17.8858578  20.9983230
   1.3522755  51.1713696  14.6834314   1.9759952  51.0987568  13.9609814
   0.6503896  50.5615282  14.4560981  73.2138491  27.0869946  41.2275171
  73.7031078  26.2642860  41.2249994  73.1034088  27.2971463  42.1548080
  14.5728147  35.5778170  19.1724360  15.2437103  35.3659940  18.5233903
  14.9955487  36.2065506  19.7574329  39.2616844  17.0475495  39.0377903
  39.3413353  17.1124387  38.0861187  38.9061785  17.8946257  39.3066955
  47.1925020  71.4173126  24.4897175  47.7730465  72.1698332  24.3760681
  46.3444614  71.7175055  24.1626930   4.4734520  37.1767974  34.5219517
   4.3947315  36.4667130  35.1589847   4.1980821  36.7861652  33.6926079
  50.1705408  14.0725911  25.9957409  51.0196924  14.5140135  26.0135508
  49.5385313  14.7605932  26.2041855  74.1530180  18.5526013  30.9078574
  74.4230318  17.7274966  31.3110042  73.4896278  18.9036310  31.5019321
  39.9981165   7.3737162  36.4979529  39.4633150   6.6724515  36.8700409
  39.7204638   7.4271625  35.5834675  28.3956885  55.2109957  35.7832003
  28.3489799  54.4325113  35.2282071  29.2775917  55.1878023  36.1546016
   9.7457457  30.9156704  48.3714628  10.3377390  30.3808427  48.9003611
   9.1062218  31.2554455  48.9973974  26.2980890   6.6360831  14.7414374
  25.8594394   7.4136543  15.0866890  25.6433439   6.2212646  14.1797745
  73.7282467  37.9167295  35.7906842  74.3651628  38.1429100  36.4684844
  74.1895533  38.0732870  34.9667192  65.5974388  67.9935980  41.0184383
  65.5701447  68.7456703  41.6099358  65.1468229  67.2969627  41.4958000
  60.8380175  26.8627310  28.8682723  61.2834454  27.0056701  28.0331683
  61.4002895  27.2883058  29.5155478  76.7920923  20.4588532  52.3876619
  76.2597275  19.6833420  52.2104549  76.1595058  21.1745477  52.4497128
  27.2411203  72.2027636   5.8012104  27.0223951  71.3577557   6.1940885
  28.1923890  72.2672081   5.8858693  15.1825166  20.3374624  51.2748337
  14.2639589  20.3823209  51.5402985  15.1623905  19.9250638  50.4112625
  64.7886992  19.2827010  29.7709274  64.1596603  19.2719114  29.0495229
  64.2707348  19.0574956  30.5437350   6.0361439  17.5557411  12.0962703
   6.7331851  17.0019031  11.7446613   5.5486935  17.8457177  11.3252079
   9.2261147  18.8162279  59.7363853  10.1350868  18.6754286  60.0012970
   9.2111009  19.7116387  59.3983841  21.7889357   6.7271274  31.6211867
  22.4118042   6.5857428  30.9082508  21.9533682   7.6253259  31.9082975
   3.7014961  25.5965471  34.7354960   3.9691871  25.9371114  33.8819194
   3.7258747  24.6452522  34.6321774  75.5188847  10.6504881  50.6862211
  74.7114563  10.1368320  50.6650829  75.8155107  10.5931652  51.5944910
   1.8927158  20.5877519  43.9717293   1.4081946  21.3859797  44.1822100
   1.9064283  20.5611396  43.0149984  54.8130417  -0.0266616   2.8823382
  54.0516758  -0.3909529   3.3338362  54.5873547   0.8918205   2.7350655
  63.3196688  20.0022578  58.1600189  63.5279846  20.2793097  57.2677851
  62.4974155  20.4480791  58.3634233   6.3114548  38.1605792  26.3867879
   6.2586755  38.9719725  26.8918490   5.4140794  38.0019808  26.0938764
  78.3867338  18.0893143  63.3391249  78.1183913  19.0081270  63.3378971
  79.2109492  18.0811604  63.8257804  61.4158773  23.9288092  59.3803692
  61.3880348  23.9087963  60.3369522  60.8074808  24.6267676  59.1375971
   5.1503766  25.5513239   5.4888511   4.9610338  26.3800430   5.0488466
   5.8829302  25.7514381   6.0715616   2.5595340  57.0658445  48.7011003
   2.0143333  57.2387648  49.4686174   3.0437687  57.8798866  48.5629654
   8.3294511  32.7984762  29.6925282   8.9888501  32.1391630  29.9087000
   8.7642527  33.3750677  29.0642595   1.7321426  15.1667166  20.6113052
   0.9721087  15.1803935  20.0295877   2.2788070  14.4568264  20.2744865
  25.6809759  56.2507677   9.0985477  26.3574433  56.8765450   9.3574446
  26.0442257  55.8093643   8.3307946  31.2186503  20.3570127  19.5609272
  30.6264210  20.9793043  19.1387296  31.9145775  20.9010506  19.9296272
  35.8210802  37.0739126  17.1841514  35.1179409  37.3183918  16.5824401
  35.4993129  37.3346686  18.0471158  23.8609004  36.5846181  17.7518654
  23.6664701  36.1546683  18.5846746  24.7087264  36.2260890  17.4894190
  28.3918953  33.3479500  28.0964208  28.4253240  33.6267900  27.1813440
  27.7369261  32.6500583  28.1103730  45.7575464  12.3318851   9.6132517
  46.5472174  12.8472912   9.7775763  45.2410650  12.8697383   9.0130913
  28.1189895  34.2011809  15.8236837  27.9529452  34.7797990  15.0794649
  28.0593252  33.3183312  15.4586518  29.0200710  32.8006005  31.0690832
  28.1689191  32.4852324  31.3729191  28.8875890  32.9902554  30.1402593
  78.8191223  51.2730742  20.4103041  78.1408072  51.9348145  20.5452633
  78.4348488  50.6606579  19.7829986  21.2763476  48.3463192  29.6750426
  21.8820000  47.6348209  29.4672298  20.4219270  47.9206181  29.7455931
  24.9109769  38.8347554  13.2785213  24.1877294  38.2913685  12.9656696
  24.5402336  39.7151470  13.3392644  37.9065347  31.0465598  16.5243757
  38.7466764  31.0797644  16.0668933  37.3068881  30.6455827  15.8951902
  10.3187883  17.7421463  57.1879673   9.4896334  17.8219318  56.7164087
  10.2517796  18.3787179  57.8996706   9.5206243  30.5628228  27.6596093
   9.8379898  30.9017372  26.8225622   8.5669065  30.5994892  27.5867462
   9.9865025   4.2513925  58.1976891   9.6661848   3.3996895  58.4947252
   9.7715390   4.8506898  58.9124393  38.9561176  19.3023407  17.6023531
  39.6858525  19.1466057  18.2019055  38.5086918  18.4580779  17.5452459
   8.3286774   5.5290347  45.3403854   7.7565145   4.8686743  45.7312632
   7.7350080   6.2275422  45.0649309  -0.1430393  22.0762491  16.6794086
   0.7124565  21.6585732  16.5798867  -0.2120886  22.2605109  17.6161647
  29.3349648  64.4322729  43.0913687  29.6118641  63.9804411  42.2942448
  28.3826303  64.4909430  43.0149078  25.2990317  20.0051284  27.3996353
  24.6785331  20.5521965  26.9180441  25.9129834  19.6960068  26.7334962
  22.5271010  37.4106956  15.0064158  23.0149436  37.0373058  15.7404602
  21.8169665  36.7883539  14.8494732  75.4647732  13.6619294   8.3306044
  75.5555487  13.4506571   9.2597735  75.8898830  12.9341733   7.8768599
   6.9068611  29.0955067  37.5862837   5.9831321  29.0928531  37.3353839
   7.2386634  29.9356437  37.2695637  18.0599380  13.9883411   8.5718644
  18.0964065  13.0584347   8.3478642  18.9225376  14.1800773   8.9398193
  27.0938659  57.4527645   2.8878075  26.4839935  56.7201948   2.8004527
  27.9305029  57.0429850   3.1076968  11.1843514  52.6427937  35.6814528
  10.3088880  52.2682619  35.7790351  11.2072754  52.9667330  34.7810245
   5.2932662  32.9901862  37.6851964   4.9614927  32.3264408  38.2898450
   6.1507916  32.6613021  37.4155331  16.8111098  17.6910353  44.8153734
  16.6254318  16.9890571  44.1916895  17.6359320  18.0696964  44.5112085
  46.6842556  55.4381990  17.7865815  47.3648453  54.9690676  18.2692301
  46.7215872  56.3318348  18.1275427  22.6157689  30.0848293  22.1165466
  23.1588125  30.2725625  21.3509798  21.7567945  30.4443479  21.8948722
   3.9426827  64.6283579  18.8527763   4.3517363  64.0873909  19.5282447
   3.2776183  65.1334000  19.3205965  23.3798051  30.6375718  24.5406699
  23.1211782  30.5717659  23.6214256  23.5909605  29.7392511  24.7949719
   3.9099234  68.3764458  45.5042791   3.8079521  69.3238115  45.4130459
   4.5497254  68.1386852  44.8331928  59.1186094  13.1547070   8.6233675
  58.8390875  13.3338296   7.7255845  58.5985756  13.7528980   9.1599911
  10.2082980  63.0538321  30.5842543   9.9026489  62.1674442  30.7769394
  10.9839833  63.1645203  31.1340642  35.1688695  60.3709459  48.4026003
  35.0163054  60.9294033  47.6403093  35.3518343  59.5068502  48.0336905
  69.8245382  41.7364264  46.2584496  69.9428320  42.6074791  46.6372681
  69.5384359  41.9026995  45.3602695  26.7454481  39.1073298  31.8440413
  26.5601993  38.1690812  31.8840742  25.9621000  39.5217776  32.2057462
  65.6626701   5.1445651  55.7673073  64.8221493   5.0122160  56.2057590
  65.9551811   4.2622542  55.5388451  29.5321393  47.4900723  31.4517784
  29.9595809  47.0679522  30.7065678  28.7022305  47.8128004  31.1005950
  73.0914354  10.3278923  60.6937933  72.6953983  11.1959445  60.6171656
  73.2838106  10.0719237  59.7917366  17.3216319  53.1790066  16.2474692
  18.0143142  53.4188652  15.6319296  16.5376842  53.0944586  15.7047820
  23.0423641  71.1157036  43.0559540  23.4897709  71.9496012  42.9121685
  23.3706236  70.8104944  43.9017248  20.5162621  61.6257048  26.2702036
  20.8659291  61.3746405  25.4152608  20.2667284  60.7972336  26.6795969
  40.8586597  14.1352856  40.9734964  41.1539841  14.6063244  41.7526865
  39.9124289  14.2781115  40.9515619  41.3056421  65.0747967  19.8945785
  41.5380955  64.1464949  19.9158621  40.9656954  65.2163839  19.0110517
  36.4283776  51.8256521  10.0763381  35.7451606  51.1554337  10.0922847
  36.7259264  51.8860006  10.9841132  28.8221407  39.4717741  26.0402179
  27.9036450  39.5839071  26.2852144  29.2254734  39.0605950  26.8047357
  65.7797432  26.3194251  45.6101608  65.9105778  25.3965116  45.3925753
  65.1210165  26.6218448  44.9849749  33.1565809  61.8823528  42.0933056
  33.6403584  61.6518974  42.8864527  33.6650753  62.5916672  41.7001915
  32.4083543  32.5337148  10.7383549  32.2674084  32.8814530  11.6189480
  32.9968286  31.7896509  10.8660221  64.6931267  14.1150618  27.1111035
  64.5986938  14.9576533  27.5553489  64.6327543  14.3272853  26.1796832
  17.2138298  51.3974857   2.6182076  16.4862597  51.9645786   2.8737026
  17.0922661  51.2605381   1.6786872  12.8891361  33.8717818  38.1507778
  13.8272285  33.8555741  38.3403873  12.8286994  34.2483997  37.2728610
  48.3469820  55.3379869  22.3720074  47.7284384  56.0050631  22.6697373
  47.9224634  54.5064497  22.5831199  21.1812568  58.5045671  53.2869768
  20.5522799  58.9285135  53.8708305  21.2835550  59.1178465  52.5592041
  52.7893257  66.7405081  49.0142441  52.8255510  67.0876169  49.9055576
  53.4992599  66.0994959  48.9778042  59.4091988  63.9030123  19.7137821
  59.6580744  63.1922817  20.3046799  59.7894192  63.6574936  18.8703454
   5.2728677  40.3657007   4.9981791   4.7960365  40.6630325   4.2232883
   6.1931586  40.3866386   4.7357711  69.3984985  64.2813683  41.4723873
  70.0041676  63.5584927  41.6362381  68.6280584  63.8653421  41.0856342
  63.5944796  50.6820679  35.9008455  63.5403490  50.2417183  35.0526738
  62.8171682  51.2398338  35.9311724  25.8653188  61.7662859  25.9562373
  26.0223961  62.0436811  26.8587947  26.1279893  62.5182486  25.4254007
  49.6025515  63.0662918  34.6018076  49.2712164  62.2181177  34.3067598
  49.0813065  63.2700920  35.3783393  54.0287066  54.8321581  43.9182043
  54.5966578  55.0605822  44.6540642  54.6175337  54.7921467  43.1646061
  59.5479012   1.3819422  54.2845726  59.5718193   2.3200119  54.0956688
  60.2343225   1.0086961  53.7316322  75.5924743  45.6356404  -0.1610045
  74.6552270  45.6883298   0.0261207  75.9616130  45.1748852   0.5924364
  76.0536766   2.6844546  41.9102621  75.7774162   2.1454057  42.6514339
  75.4801893   2.4164493  41.1922646  69.8286629  13.6828876  28.7093925
  69.2046928  14.3017042  29.0888119  70.6377649  14.1856909  28.6156917
  44.2760658  16.1501861   6.2534595  43.6973476  16.0069633   5.5045879
  44.0507603  17.0263720   6.5661383  70.8605474   0.4684374  53.0868483
  70.2848189   1.1588642  52.7580881  70.6365054  -0.3002289  52.5622654
  68.2793760   2.6109898  60.4966259  68.7078238   3.3838388  60.1286983
  68.1823778   2.8113207  61.4275885  62.5917912   4.0203711  12.7943861
  63.2996321   4.1753981  13.4198129  62.9458237   3.3693767  12.1884990
  42.6697165  73.4677455   8.3100098  42.6219756  74.2310028   8.8856757
  41.8484837  73.4866096   7.8186363  40.8044052  60.5958509  51.2017536
  40.2830553  60.7310963  50.4104710  41.7018509  60.7936954  50.9340048
  13.6211586  36.6551423  48.6554670  13.3959842  36.6539717  47.7251291
  14.3032551  35.9886408  48.7376404  57.4835443  23.6397743  33.9603734
  57.2909689  24.3952394  33.4050179  58.3142233  23.8585091  34.3826962
  62.5648546  18.5373962  24.0787268  63.3984947  18.4101784  23.6258483
  62.8033781  18.9533508  24.9071717  54.3855762   4.2330730  57.7172518
  54.4434834   4.9511474  58.3475304  53.6347628   4.4569916  57.1673727
  50.3326273  67.3380470  30.0097203  51.1054325  67.2124386  29.4590640
  49.7956514  66.5620232  29.8494649  30.7123494  54.0810633   6.7038673
  30.1943612  54.4352913   7.4266678  30.7899642  54.8080349   6.0860330
  28.2634878  62.4007893  34.9905849  28.6847329  62.9949665  34.3695045
  28.4370756  61.5266943  34.6412182  51.8359709   8.1371099  46.8511820
  52.0632839   7.2757375  46.5010405  51.9080591   8.0364656  47.8003454
  72.5655174   4.0040052  45.8467770  72.4346399   3.4038860  45.1126385
  72.5350189   3.4438750  46.6223764  45.0551319  70.6605530  51.8598986
  45.2482271  70.2470303  51.0185003  45.4012585  70.0507689  52.5115013
  75.0816393  18.1534672  39.7172165  74.4557428  17.5902009  40.1724243
  75.0607204  18.9772761  40.2041769  61.9304228  70.8004379  44.1957140
  61.3089895  70.1116419  44.4315338  61.4037704  71.4480352  43.7272167
  31.6121674  56.3726425  55.4142857  32.2092414  57.0962000  55.2240372
  30.8116198  56.5909195  54.9370956  17.2272241  71.8053722  35.6407690
  17.5266111  70.9694672  35.2831984  18.0189502  72.3407745  35.6932020
  30.8962798  22.9144835  32.0683122  30.2368188  23.4406662  31.6161203
  30.4932690  22.6957560  32.9085326  63.1824398  28.5004473  39.0807033
  63.3415413  28.7383127  39.9941230  63.8973761  28.9145303  38.5973477
  54.0145254   1.8284255  19.8780155  53.1199026   1.7532982  19.5459878
  54.2198229   2.7604520  19.8044550  34.7220278  63.6529922  25.2946901
  35.2774119  62.8892088  25.4509354  34.8777699  63.8788080  24.3776393
   7.4069023   8.4406155  13.9906573   8.0749899   7.8511178  14.3404913
   7.8856999   9.0209949  13.3989275  46.1905575   5.6960833  39.1831064
  45.2959251   5.8869469  38.9012504  46.5121126   5.0594330  38.5447431
   8.5894829  49.2146015  25.3305769   7.6443452  49.0743113  25.2734399
   8.7179446  50.1103830  25.0186419  52.2212362  71.5834904  26.6907310
  52.1813440  72.4502420  26.2865305  51.6374874  71.6447258  27.4468493
   2.4870947  11.9992733  22.3557472   1.9011067  11.3691318  21.9364953
   3.3662176  11.6702151  22.1684074  33.1120753  64.8983622  44.8901272
  32.5214958  64.2880821  45.3317213  32.8072500  65.7645559  45.1603603
   8.5201520   3.6489195  61.7219973   8.2548589   4.5501614  61.5386534
   8.6215454   3.6179116  62.6733065   1.1815209   8.7724173  47.1695137
   2.0006768   8.2944208  47.2988796   0.8532071   8.9290243  48.0549049
  67.6901913  20.6729198  11.1412144  67.8159237  19.7245109  11.1719251
  66.8237257  20.7871389  10.7507968  46.1946440  62.3046160  35.7769823
  46.7763090  62.0125294  36.4788270  46.3357449  63.2500315  35.7268405
  55.6060934   4.3400714  63.3549213  56.5608025   4.3937981  63.3116531
  55.3128767   5.2503347  63.3139753  12.6564300  10.0024581  11.3894796
  12.7464497   9.6583450  10.5008209  12.1417439  10.8027720  11.2854230
  56.0962820  67.8596163  22.0039582  56.4892769  68.0492258  21.1519980
  55.8760262  68.7192488  22.3627734  62.9630709   2.2342530  32.4736190
  62.8994083   1.3288963  32.1694684  62.4509001   2.7364266  31.8397951
  27.8865886  26.7195177  27.9956841  28.7500429  26.4067960  27.7257133
  28.0115032  27.0205784  28.8956785  74.0078163  30.9981251  38.3820963
  73.7205887  30.4403377  37.6591825  73.3299065  31.6704965  38.4497905
  19.6660507  47.9050398  23.7390614  20.3396726  47.4066782  23.2763505
  19.9553871  48.8152409  23.6754251   6.3246351  14.4933617  27.3361802
   5.6314230  14.7377634  26.7230296   5.8594930  14.2169034  28.1257677
  48.6925507  72.9734612  32.7905202  48.3191729  73.2629681  31.9580507
  48.3237791  73.5725117  33.4396529  78.0223465   0.6019821  20.7196975
  77.3987341   1.1957509  20.3016353  77.5358200  -0.2143282  20.8344293
  69.2668629  47.1903706  11.8213522  68.9761925  46.2865639  11.6993606
  70.0191212  47.2810459  11.2364483  24.0055180   6.7867023  39.1817665
  23.9922071   7.2050691  38.3209395  24.7477365   7.1895367  39.6323943
  30.5733705  66.1977053   6.4357418  31.1774421  65.8204365   5.7962114
  30.2151346  66.9708776   5.9997416  61.2720823  21.6810989  29.0148306
  61.6041088  22.5504470  28.7907100  60.3213501  21.7881465  29.0445328
  44.4744730  63.7827587  27.7685952  43.5580635  63.5879278  27.5724530
  44.4472980  64.6187449  28.2340193   7.5050527  22.2938395   9.2631960
   6.8363851  22.0203257   8.6352587   7.1542978  22.0338845  10.1150334
  46.4834690  72.4951124  28.5385823  45.6357574  72.6721144  28.1308007
  46.8053579  71.7121649  28.0918026  10.1267970  39.6657252   8.2500619
  10.7941747  39.4471884   8.9005089   9.9057776  40.5792522   8.4312940
  11.2707543  47.6932335  41.0373020  11.8258274  48.4281635  40.7765245
  10.8609259  47.4018192  40.2228403  19.8064232  62.3000240   6.0645896
  20.6006050  62.7062559   5.7174802  19.1987944  63.0292225   6.1882275
  10.7242811  18.3481562  53.0505419   9.9215835  17.8512263  53.2085562
  11.0695279  17.9915679  52.2320795  50.5164671   8.9264607  59.8740244
  50.3754330   9.3485296  59.0265560  51.4003038   9.1909498  60.1291847
   7.2301131   1.8869509  49.6058798   7.6446962   1.5187068  50.3861046
   6.3206553   2.0349433  49.8651457  63.3275127   7.6457733  29.3756080
  63.0442572   7.0960146  30.1061988  63.0264187   8.5245931  29.6063685
  42.7111101  69.7212887  34.3481970  41.8656349  70.1698208  34.3332362
  43.0204868  69.7631359  33.4433413  17.2549558   7.3073578  42.5507021
  17.3968995   7.8123158  43.3513880  16.6006589   6.6522467  42.7935123
  33.0239177  38.9162946   5.6704593  33.4547591  39.0022421   6.5208834
  32.8862238  39.8177552   5.3795278  59.1031122   4.1048187  60.2334690
  59.4145823   3.3215472  59.7799206  59.3506670   4.8289114  59.6584606
  55.4105425  73.8445282  21.4621949  56.2815475  73.5096264  21.6753364
  55.3538084  73.7750244  20.5092096  67.5480175   2.6625669  28.2870173
  68.4331799   2.3075773  28.3688927  67.4376678   3.2121798  29.0628910
  28.6050653  42.3284435  13.6493254  28.1119227  41.8074131  14.2830169
  28.7794089  41.7249966  12.9270470  19.4327557  11.0135055  27.9519868
  19.3213046  11.3036203  28.8573289  18.7276495  11.4484894  27.4725628
  30.0405526  64.8803139  56.6194248  29.7439718  65.6192970  56.0882235
  29.5643616  64.1273499  56.2693930  61.6018105  21.6633868  48.3187103
  61.1611414  22.5094461  48.2398510  60.9799147  21.1128378  48.7944937
  64.6402884  41.1432123  25.1242781  65.2328873  41.6881657  25.6420398
  64.7500801  41.4562130  24.2263865  15.3039825  19.6614563   5.8594829
  15.1576853  20.5783582   6.0921192  15.0312924  19.6001852   4.9439952
  67.4947357  22.5021434  37.7158403  66.8523169  22.4706173  37.0069432
  67.4696016  21.6262007  38.1009722  45.5284411  74.1693826  49.3623400
  45.4947001  73.6229184  48.5771847  44.6474797  74.5362389  49.4368601
  67.6564360  68.8408804  52.4689293  68.4962845  68.3823156  52.4444151
  67.8816462  69.7406578  52.7053976  71.5286732  63.4556055   7.6404315
  71.2586737  63.0396652   8.4591651  72.2277737  64.0571690   7.8965735
   4.9173725   4.4916436  30.7169199   4.3172306   5.0524622  30.2254486
   5.0372058   4.9432155  31.5523553  74.3165302   1.5651599  63.6043262
  73.4068394   1.6547182  63.3203030  74.4007635   0.6442256  63.8513470
  12.8282940  52.6912928  20.6137681  13.1444311  53.5946035  20.6314826
  12.6982927  52.5012112  19.6846819  34.2969108  40.3161192  23.7518692
  33.4993196  40.1230240  24.2446136  34.8948789  39.6027493  23.9749551
  34.9811959   7.6317781  40.9587669  34.9446464   7.8884667  40.0373507
  34.3475318   8.2036144  41.3920212   8.2708162  22.2222686  34.9865913
   7.7198577  21.8062639  35.6496263   9.1519094  21.8949413  35.1675987
  43.5594797  72.8774929  51.1551476  42.9995728  72.8083849  50.3818703
  43.8806534  71.9872761  51.2986326   5.8692262   0.0141546  38.8175011
   5.0445697  -0.2189806  38.3910894   5.9071300   0.9688684  38.7598681
  62.5813198  63.9432430  19.6659732  62.2775698  64.7731924  19.2983449
  61.8007421  63.3895350  19.6845043  59.0977097  19.0139234  36.0838604
  59.0851688  18.4719896  35.2949476  58.7171793  18.4570384  36.7630577
  21.4414334  63.8978624  38.1596184  22.3507643  63.6040211  38.2144427
  21.0804319  63.7230825  39.0287352  26.8395400  38.2014728   3.5352752
  27.3407412  38.8960361   3.1079409  26.5361285  38.5939860   4.3538755
  28.8478875   2.3949915  45.6712580  28.2820559   2.0458475  46.3598585
  28.2491708   2.8421208  45.0730562  39.5661330  59.9076319  42.1533442
  39.8686171  59.0042114  42.2458744  39.9963140  60.3785372  42.8670835
  49.2083645   6.7233968  11.5293586  48.9129925   7.4631238  12.0601988
  48.8780069   6.9119036  10.6509733  62.7351856  64.1660261  25.9318280
  63.6134815  63.9456987  25.6215310  62.1954823  64.1684818  25.1412916
  61.8339968   5.3457391   8.4377950  62.6110029   5.7977551   8.7667000
  61.0983515   5.8381271   8.8019508  18.2635188  45.2874708  52.9608393
  17.5752449  44.6649361  53.1952858  18.2957518  45.2599764  52.0045757
  48.2865477  62.8642178  54.6749544  48.9851713  62.2575808  54.9201965
  48.2084417  63.4550095  55.4240227  75.1067781  42.7790642  33.9881706
  75.5252266  43.5754681  34.3150926  75.0279665  42.9199076  33.0446744
  47.7326870   8.8374084  53.0094814  47.4766493   8.1279612  52.4201059
  46.9730377   8.9621329  53.5783482  54.3885565  63.5115671  42.2738123
  54.8306990  64.0563869  41.6227245  54.7044992  62.6251364  42.0987320
  14.8447216  45.9214830  14.9635375  15.7201564  46.1323261  15.2881777
  14.3933415  46.7647743  14.9268508  36.0442686  59.0663624  58.6593437
  36.0428715  60.0046492  58.8486719  35.2384329  58.9208412  58.1636763
  68.8865089  27.7601814  46.4431715  68.1023073  28.0036736  46.9350767
  68.7332582  28.1034398  45.5628777  57.5077486   7.4546033  54.4499636
  58.4500360   7.6228499  54.4536781  57.1271992   8.2135004  54.8921108
  44.0338850  67.5904226  17.6846182  43.0935287  67.7655697  17.6488292
  44.3220615  67.6424503  16.7733109  57.4264717   6.8359649  15.5552459
  57.6985645   7.4683887  16.2202561  57.0337915   7.3691815  14.8640788
  76.5115762  28.9545274  25.8342409  76.7669419  28.1035328  26.1903739
  77.2046103  29.5506692  26.1180544  41.4002132  55.1542664  27.8567719
  40.4749155  55.1618338  27.6118255  41.7971373  55.8358097  27.3143864
  74.9139404  42.9561234  59.1788435  74.3148375  42.7067089  59.8824739
  75.6906605  43.2854128  59.6310711  60.8406925  56.5174341  59.4851446
  60.2232122  55.8770275  59.8384619  61.0701656  56.1771011  58.6204243
  10.1631904   1.2250561  58.5666752  10.7339728   0.6414178  59.0664816
   9.3096536   1.1482817  58.9930725  51.4592218   3.5949546  38.3249450
  52.1254635   3.1029111  37.8451061  50.9864044   2.9311273  38.8269496
  21.1162162  64.0023899  43.1614065  22.0540333  64.1939402  43.1676531
  20.8628154  64.0761471  42.2413111  55.0085974  19.9977839  46.4544201
  54.7318411  20.4225087  45.6424809  54.7651005  20.6161904  47.1432686
  28.9433599  72.5799465  23.5200548  29.2618895  72.8133678  22.6481104
  29.5030737  71.8529415  23.7928343  29.7210360  54.3059587  18.3495307
  29.5819545  54.8175144  17.5525367  30.3462052  53.6280441  18.0929661
  72.3826790  33.4141159  26.2338686  73.2239342  33.8348269  26.0563231
  71.7354584  33.9940119  25.8325505  71.0914373   5.2823442   1.5320128
  70.8869839   5.4729903   2.4474823  71.8304253   5.8552551   1.3273150
  65.6597424  13.0987322  16.4549983  66.1270809  13.8093030  16.8942201
  65.7948351  13.2640100  15.5219042  69.1405201  22.6354980  45.4940319
  69.3854856  23.5419941  45.6797361  69.5568609  22.4421501  44.6540833
  69.8952246  21.8142867  39.4511318  70.7868099  21.8913126  39.1114664
  69.6372128  22.7137256  39.6528053  62.5676107   8.2131618  63.8574648
  63.2035875   7.7721673  63.2941818  62.3069477   8.9897025  63.3622169
  55.6634521   1.4678204  10.6891143  55.0145197   0.8217909  10.4102528
  55.7536173   1.3254021  11.6313565  45.2669621   6.9463366  10.7773995
  45.0314808   7.4896044  10.0253105  45.0595570   7.4882907  11.5386486
  26.3286996  53.7082052  13.6603618  25.5340409  53.2483387  13.3896720
  27.0171762  53.3449030  13.1033671  68.5210991   7.5436449  39.2423987
  68.5850096   6.7319554  38.7391019  67.6570511   7.8931791  39.0244842
  16.8361378   2.2503550  56.9105339  16.0668600   2.1652243  57.4737358
  17.5108743   1.7298017  57.3464108  64.5640039  37.7230334  62.5137758
  64.3823004  38.2102966  63.3173847  65.5192566  37.7049756  62.4554300
  29.4042301  67.2595596  13.7302017  28.4747291  67.1692514  13.5202003
  29.6868372  66.3724661  13.9525402  34.3254209   8.0143142  38.1886315
  34.2342305   7.7922916  37.2620130  34.1270614   8.9497566  38.2314324
  42.6500082   6.4499289  35.7558131  41.7162275   6.5458113  35.5684805
  43.0743504   6.5209013  34.9007535  62.7094030  65.6978369  44.7129202
  63.2074928  65.0861073  44.1707706  62.7500868  66.5274143  44.2371225
   9.8757100  16.5810192  26.2226892  10.4419684  16.1659348  26.8732929
  10.2999163  16.3980377  25.3843570  42.1935987  66.6126823  25.5718255
  41.4876842  66.7308235  26.2074065  41.9477272  65.8265734  25.0841618
  26.1158466  14.3439603  41.8987846  26.3730001  15.1899695  41.5322161
  25.5562186  13.9524817  41.2281179  62.9233694  52.4647331  39.1071391
  61.9867945  52.3190641  38.9735842  63.1679535  53.0908394  38.4256721
  73.3230686  15.5195248  39.0882826  73.2429934  14.9734044  39.8703146
  72.9837179  14.9735308  38.3790851  60.7035589  15.3785086  41.9868040
  59.9900579  15.9291327  42.3092318  60.6316757  14.5709944  42.4957085
  33.8567877  66.3958359  52.4129629  33.4779239  67.2541952  52.6024675
  34.3898249  66.1942244  53.1820250  77.6770926  55.9923458  49.7071600
  77.6626062  56.6224098  48.9867163  78.4032536  56.2786627  50.2611828
   8.0210197  56.7912531  18.4869587   8.7810755  56.8075514  19.0685785
   7.7939373  57.7129221  18.3637011  18.1236219  56.3527584  54.3218803
  18.9474297  56.1376572  53.8844967  18.3381963  56.3436556  55.2546740
   6.2065649  69.9815321  36.9913220   6.9528151  69.9923182  37.5906754
   5.4416603  70.0724936  37.5595450  62.1839237   6.5896267  31.4935803
  61.6989422   6.0006309  32.0716000  61.9417572   7.4675268  31.7883301
  75.9547138  13.4616959  40.3332138  75.9175301  14.3239975  39.9193454
  75.1254845  13.3867073  40.8054209  70.2423000   8.6525667  44.7000933
  70.8229589   9.4116235  44.6462536  70.8321476   7.9074222  44.8144197
  62.7551889  42.2092342   8.6603487  63.1811857  42.8786612   8.1249702
  62.1232700  41.7975140   8.0709469  65.5117178  30.5352616  57.4124575
  65.2322912  29.6214151  57.4675608  64.7127056  31.0396695  57.5653934
  65.7057047  57.4733591  36.3003635  66.0988283  57.7121878  35.4609323
  64.8720074  57.0651102  36.0668874  38.9076090   0.0980885  41.5827894
  38.2967782   0.7551120  41.9166136  39.5207453  -0.0469425  42.3033857
  24.4222203  21.5278686  -0.0614838  24.1253462  22.3527063   0.3228947
  25.0355664  21.1712517   0.5810591   4.2605153  59.4856548  30.2524686
   4.2045620  59.0297127  31.0922408   3.4742415  59.2134380  29.7792816
  66.1121655  10.2485335  48.0982447  65.6183720   9.7274894  48.7314177
  66.6017866  10.8738363  48.6325693  16.0247660  61.1376190  61.4362478
  15.9332466  62.0863771  61.3484478  16.8200839  61.0207844  61.9559145
  61.1046219   6.0771042  24.3262267  61.0211468   6.5679342  25.1437521
  61.5464640   6.6804022  23.7286997  57.5983572  61.0885191  27.7206302
  56.6515303  61.0016012  27.6102042  57.8797626  60.2366686  28.0543947
  78.7911305   9.5907885  22.4045110  78.1509814   8.9797062  22.0397949
  78.3060451  10.4086459  22.5142121   6.3105047  12.8893733  33.6724186
   5.4336125  13.0394781  34.0256333   6.1767918  12.2708273  32.9542589
  15.4254556  34.9333119  49.7900438  16.3777053  34.9444127  49.6934605
  15.2356446  34.0870571  50.1950836  34.6081543  38.3164597   3.0929616
  34.4900846  38.4129143   4.0379420  34.9043179  39.1780567   2.7994126
   4.1316327  48.7148046  28.9249754   4.2477617  48.2071924  29.7281456
   4.5984736  48.2143736  28.2557535  53.6273956  21.7527986  31.7858458
  53.4427977  20.8142257  31.8209910  53.3669472  22.0152283  30.9029365
   8.9396632   1.1857206  63.5570431   8.8138169   1.0407884  64.4948006
   8.6371559   2.0819582  63.4104872  72.3098898   8.8771653  50.5676889
  71.6471434   8.3503318  51.0142851  72.0300722   9.7819728  50.7064629
  11.9440603  45.1972485  53.9797544  12.6165378  45.8118773  53.6860943
  11.1162817  45.6309366  53.7725735  11.8542051   5.2946669  18.0828834
  11.3450122   4.8757046  17.3890352  12.5287640   4.6531227  18.3056450
  70.5702925  18.6953807  13.3198106  69.9554873  19.3187237  13.7067091
  70.2639008  18.5839915  12.4198389  33.4391665  31.7790961  24.1521668
  34.2256522  31.5685368  23.6488414  33.7679267  32.2102094  24.9410200
  58.1374311   1.9211060  25.9756327  57.5468111   2.0547214  25.2343178
  58.2943964   0.9769676  25.9896660  42.7510023   9.7089577  46.5461349
  42.3667383  10.3483462  45.9463358  42.0457935   9.5017970  47.1593237
   4.6310905  34.0203333  61.5547848   4.9505466  34.8037004  61.1069965
   4.9547789  34.1081429  62.4513054  73.8714170  52.4754953  37.9446411
  73.2542706  52.1720123  38.6104202  73.5558796  52.0848560  37.1297383
   7.5004399  69.5136786   9.6068662   7.1199644  68.7088490   9.2551291
   8.2723534  69.6712160   9.0632093  46.6861296  66.5177965  52.1803379
  46.6992998  67.4746370  52.1576214  46.2021399  66.3037920  52.9779530
  34.2203736  64.0745926  40.9224319  34.0978479  64.6062088  40.1359177
  34.8133183  64.5895815  41.4696407  62.6069450   5.5262733  38.4398079
  62.4429321   6.0395831  37.6487064  63.0099535   6.1458302  39.0480566
  54.8983955  12.7920175  53.7399626  54.9238586  13.7193286  53.9759254
  54.3124056  12.3966515  54.3853569  12.3864496   8.8772053  22.5906134
  12.2740400   9.6556622  23.1361413  12.4887204   9.2197233  21.7026663
  17.7260024  73.7908807  58.0087805  18.5231263  74.1395112  58.4078789
  17.5276668  73.0045824  58.5173368  54.8319387  18.2685614  55.5346966
  55.4624701  18.2533646  56.2547159  53.9815998  18.1520903  55.9584808
  60.5408096   8.3176845  47.4698687  60.5103683   8.9687312  48.1709003
  60.9181356   7.5401461  47.8813219  27.8649735  73.4464502  10.1587188
  28.5977125  72.8335476  10.2193213  27.1725154  72.9495764   9.7230023
  30.9723067  70.3171778  56.0439253  30.0420690  70.1462126  55.8967447
  31.3406825  70.4101276  55.1653481  74.8653793  16.8601120  55.2639151
  74.3682957  17.2398925  55.9884167  75.6261349  16.4560080  55.6812620
   6.1423862  28.9281917  60.6967068   5.4999834  28.6523724  60.0428915
   5.6341219  29.4269586  61.3363361  23.8524747  10.0466156  52.3120451
  24.2640877  10.2528942  53.1512451  24.4413090   9.4102025  51.9064760
  32.3784590  73.1447315  58.1901979  33.0818558  72.5000334  58.1138420
  32.2168851  73.4305429  57.2910643  12.3332071  61.7330217  22.3886371
  13.1100857  62.2145891  22.1044135  11.6594172  61.9672155  21.7503643
  13.1613219  49.4970560  16.7831361  12.6093614  48.9384747  16.2358177
  12.9305661  49.2563581  17.6803803  65.4398537  48.7605047  37.1527481
  64.8545504  49.0508509  36.4532113  65.0263119  49.0745735  37.9568481
  78.5775232  64.9226093  60.2956009  77.8232479  64.9027014  59.7066212
  79.2541599  65.3866911  59.8026323  60.2916384  12.5675523  53.0792475
  60.4961681  12.5086677  52.1460104  59.8637676  13.4181464  53.1774712
  48.1642723  10.5660152  25.6607676  48.6603403  10.7955861  26.4465427
  48.7843704  10.6880677  24.9418712   0.8275362  31.7722702  30.4919529
  -0.0223585  31.4449120  30.7864809   1.3830945  31.7305565  31.2703133
  28.5884213  11.2129152  40.1949501  29.4819021  11.1497581  39.8574066
  28.6111474  10.7346606  41.0237980  21.0860133  27.4699259  15.3177238
  21.7781329  26.9872332  15.7696176  20.6491017  27.9663134  16.0097802
   9.8853308  35.3368521  58.0076027   9.9518460  34.4498301  58.3611536
   9.6648043  35.8802962  58.7640905  25.9686089  15.0089359  60.1917934
  25.4122639  14.2310905  60.2326298  26.5517020  14.9262369  60.9463739
   2.6756838  10.2296734  45.6725502   2.1097814   9.6202517  46.1464596
   2.6442522  11.0357428  46.1878157  74.9026489  32.7460742  53.3423376
  74.4331789  32.1599245  52.7488279  74.8209667  32.3324776  54.2016935
   4.2847693   9.3485606  60.9396744   4.0592676   8.4192032  60.9806108
   4.0429953   9.6918029  61.7998886  68.7223339   9.3325806  14.8458207
  68.8692522   9.8815948  15.6160343  68.1916809   9.8752326  14.2625797
  74.7812462  45.9060812  53.3131123  74.1883850  46.4281368  52.7725506
  75.2105904  45.3145504  52.6950598  20.0152707   8.2889974  28.6891603
  20.7095289   8.4136087  29.3362379  19.7745550   9.1761625  28.4222794
  25.1174569  23.2065225  30.7285905  26.0130644  23.3727121  30.4344773
  25.1923537  23.1020403  31.6771197  35.3690267  18.0259049  15.9119523
  34.4589639  17.9059792  16.1833107  35.3371096  18.7404573  15.2758479
  70.7569981  29.2401910  44.1023207  69.8012161  29.2657804  44.0569830
  71.0436106  29.9339819  43.5084009  69.3527317  48.0864143  53.2745790
  69.6524620  48.9143181  52.8991175  69.8590946  47.4173069  52.8140068
  62.1734285   7.9052335  22.9879808  63.0242014   8.3113515  22.8221965
  61.6034508   8.2552302  22.3032475  12.8131366  48.1305647  53.7213945
  12.2157216  48.4699059  54.3878603  13.6638272  48.0938101  54.1586685
  69.6113205  13.4920239  37.4782586  70.4941654  13.8455451  37.3694587
  69.4390726  13.0224955  36.6621041  63.4878206  23.7345052  35.5668712
  63.0920792  23.5170960  36.4108801  62.7439356  23.8422632  34.9742007
  37.0801115  70.1999235  53.0048895  36.5190554  70.9450579  53.2198954
  37.9698014  70.5508518  53.0440426  69.4884586  39.8334503  54.9481153
  69.6897888  39.9608254  54.0210342  70.2984238  40.0642109  55.4030132
  46.3468933  68.9380646  53.9298439  46.9582605  68.3065891  54.3089294
  45.5647850  68.8728905  54.4778347  12.2468662  54.7656393   5.6180978
  11.4648449  54.2182207   5.6888753  12.3007023  55.2164841   6.4607555
  68.6387014   3.5712335   5.4791164  67.8041124   3.1255186   5.3340811
  68.5069656   4.0698799   6.2854844  15.5334193  73.2214259  56.0685205
  16.2500197  72.6868977  55.7264757  15.8268411  73.4857390  56.9404554
   2.1982336   1.8151534  31.8915820   2.2784796   2.7687851  31.9110465
   1.7448361   1.5962802  32.7056789  30.0773692   1.4719732  34.8154378
  29.2469215   1.7641915  35.1911998  29.8485446   1.1654156  33.9380026
  12.8891313  20.1185489  23.0033875  13.5209954  19.9108672  22.3150206
  12.8029132  21.0712671  22.9698586  67.1003103  10.4990268  41.1441803
  67.5206614  10.1159918  41.9141293  67.6659918  10.2494860  40.4134464
  40.3046703  71.7252779  33.5165834  39.4495749  72.0149422  33.1985664
  40.9279251  72.3274279  33.1101322  11.3890958  13.1555486  61.8341875
  12.2733736  12.7953327  61.7668962  11.1994052  13.1510806  62.7723932
   2.0770447  32.6001453   0.4999408   2.0043331  32.5479102   1.4529449
   2.9075029  33.0510521   0.3474505  21.6995311  67.6073885  24.6441078
  21.9573021  66.9012547  24.0515208  22.2405148  67.4760866  25.4227781
  27.1706343  10.5822921  25.6611896  26.7529273   9.8243970  25.2521062
  26.8927479  11.3263178  25.1269269   1.6283295  10.7390177  53.5974550
   0.7959616  10.9451997  53.1721497   2.2927466  11.1046576  53.0134249
  77.8505135   4.4473380  37.8936434  77.2004366   5.1480329  37.9451680
  77.3387671   3.6408043  37.9556870  63.0289698  58.8960838  42.9458570
  62.5396013  59.6667385  42.6580238  62.9189634  58.2635736  42.2358799
  69.4810009  56.5418863  18.7852001  68.9490414  57.2582483  19.1317201
  69.3176174  56.5566921  17.8421640  68.2213402  15.7690454  38.2887721
  68.6361361  15.9840190  39.1242123  68.6059523  14.9286675  38.0396366
  30.5646491  67.2696114  43.4017563  30.0014663  66.5187788  43.2138395
  30.4812217  67.8305244  42.6306200  15.7766271  30.6252956  57.2057533
  15.7196510  30.6608009  58.1606007  15.4026616  31.4561701  56.9124413
  70.1127577  57.8006840  28.4883666  69.9437618  58.7406015  28.5533834
  71.0582018  57.7181339  28.6130667   7.4388778  24.8872733  21.5424252
   6.9919211  24.0840912  21.8095613   8.3194357  24.8044443  21.9084716
  10.7943594  69.6567011  61.6325617  10.7105935  68.7141085  61.4885569
   9.9285185  70.0084782  61.4256668  69.8273897  40.1410341  52.1466589
  70.4162169  39.3883920  52.2018290  70.2639341  40.7429934  51.5439129
  49.3249750  36.9913697   5.9248501  49.0675306  36.4536428   5.1759809
  48.5891771  37.5897765   6.0542518   4.8433122  19.5642555  62.9282093
   5.2459669  20.4161954  62.7599859   5.5669791  19.0112829  63.2227612
  32.8455102   0.6584093   7.2714931  32.7004474   1.2110731   8.0394459
  33.3197891  -0.1013163   7.6092905   2.2719689   7.2169018  41.8627691
   2.1621817   8.0498034  42.3215246   1.3790272   6.9252175  41.6789055
  73.2217169   2.6514965  28.4713292  73.8316202   1.9176829  28.3954024
  73.5124302   3.2744628  27.8052735  17.0861626  22.8424144  30.4164195
  17.4242353  22.4100471  31.2006378  17.7083647  22.6093769  29.7273684
  43.5591173  67.8553200  37.9280329  43.3080053  68.6872196  38.3294249
  43.0274248  67.2007418  38.3808756  17.1211803  56.9217062  18.0242097
  17.3039520  56.9073963  18.9636898  17.0498645  57.8514862  17.8082168
  53.3412027  10.0838888  32.2454977  52.4274015  10.0372553  32.5266027
  53.7901402   9.4295293  32.7807570   8.6781198  40.8169270  11.1318147
   8.8686997  40.0768280  11.7081475   7.7713704  40.6796646  10.8575952
  51.5383339  31.7049527  53.7259245  52.3275328  31.6153812  53.1917143
  51.4691639  30.8720589  54.1925430  11.1585796   0.8337510  61.6138744
  11.5524495   1.5265197  62.1441269  10.3649342   0.5895738  62.0900440
  67.3951006  70.2863026   5.4128069  66.9241190  70.8783960   4.8264331
  67.3927975  70.7347488   6.2584561  78.1791427  21.1417341  41.9065952
  77.8888601  20.9391117  41.0172606  78.7326912  21.9162941  41.8072319
  23.0303025  24.0060592  17.8798985  22.1104670  24.2380404  18.0076313
  23.2817459  23.5672975  18.6926091  26.6445351  15.2653646  50.3951788
  26.0984278  14.8632908  49.7196531  27.5192308  14.9091446  50.2394676
   3.6171278  38.2676411  58.5663080   4.2104417  37.9164195  57.9023361
   2.7419534  38.0558467  58.2415867   3.9891559  28.0744219   4.5338255
   4.8679996  28.1694126   4.9010330   4.0995583  28.2510662   3.5995665
  11.5131891  34.6930933  27.9015636  11.7232299  33.7922907  28.1478739
  11.8146658  34.7703862  26.9963741  77.8079510  49.5649958  18.5458612
  77.9395723  48.9099121  19.2312634  77.9932308  49.0990829  17.7304900
  56.5353680  58.8173342  55.0713921  56.1917400  58.7950516  55.9645128
  56.7117643  59.7434282  54.9056721  17.8175306   7.2223556   2.9879218
  18.3092117   7.8451967   2.4526177  17.7266037   6.4483666   2.4321294
  17.3385894  16.3925016  41.9459152  16.4866579  15.9626460  42.0212030
  17.9605401  15.6735742  41.8338680   5.3613293   1.2657097  28.6472082
   4.4711703   1.3104296  28.9962769   5.6655753   0.3881716  28.8787103
  72.1657944  51.9447708  46.6472149  72.2304535  50.9920788  46.7137384
  71.5223694  52.0933628  45.9542847  57.5871944  71.8296337  26.4546418
  56.6301870  71.8303299  26.4355183  57.8369808  71.0792017  25.9154868
  37.4183631  17.1785903  17.3183048  36.5841699  17.4903595  16.9673729
  37.8420186  16.7437816  16.5782452  66.1376810   4.1513050  19.8954678
  65.3120136   3.7268099  19.6624315  65.8770418   4.9927920  20.2698994
   9.8568869   2.3251535  22.4213243   9.6113843   1.4414661  22.1473598
   9.1782850   2.5792119  23.0467725  20.8884096  18.2062984  49.4186497
  21.4108062  17.4392176  49.1842985  20.7700634  18.6766851  48.5934448
  50.3877020   8.3022976  19.6565235  49.5099592   7.9216397  19.6264863
  50.6679392   8.1867427  20.5644584  57.0078707  56.8547678  24.2576027
  57.2880983  56.7989397  23.3440447  57.7971458  57.1103716  24.7350383
  65.1187277  10.2165592  16.3564026  65.3484201  11.1437941  16.4173019
  64.1690254  10.2124166  16.2368906   3.0745593  62.8981447  50.4032898
   3.4921789  62.6241159  51.2198257   3.7896627  63.2551241  49.8765802
  55.9326744   9.4289732  40.5240393  55.4868698   8.6370677  40.8246613
  55.9258556  10.0108337  41.2840557  58.4943771  73.3394146  22.5290108
  59.3135643  73.4861994  23.0018950  58.2013559  72.4758339  22.8198695
   6.1296260  10.0913262   9.4560242   6.2447429  10.8188879   8.8447672
   5.9326631  10.5109704  10.2934837  75.3661585  53.3170557  17.9973674
  76.2130165  53.2729864  17.5533843  75.0436068  52.4158907  17.9879510
  68.2249641  14.3246639  31.4844346  68.1424570  14.5066535  32.4205446
  67.5450325  14.8601103  31.0755014  26.5448856   3.2821479  28.9767075
  25.7905841   3.7958491  28.6879611  27.2922134   3.8693744  28.8631439
  67.0434761  64.2972040  37.8846645  67.9367828  64.6011448  38.0454540
  67.0820999  63.8862753  37.0210218  11.2191129  12.5016487  11.2225854
  10.3493154  12.1426260  11.0471237  11.2592041  13.3002460  10.6964040
  32.3150301   9.1377521  30.2720523  32.3251843   8.9827800  29.3275332
  31.4914417   9.5991856  30.4302144   1.4002225   9.7166067  24.6392012
   2.2067177  10.1873255  24.4289136   0.8183337   9.8966610  23.9008141
  34.5319438  19.8900282  13.4628439  33.5830212  19.9020147  13.5878885
  34.6487546  19.6825087  12.5357401  62.6490259  17.1587753  11.7226326
  61.8458843  17.6402068  11.9211745  62.6357079  16.4129686  12.3224878
  21.6580081  34.8142624  10.6499922  22.2599936  34.5765638   9.9447656
  21.3215661  35.6742358  10.3980350  76.3145876  62.2835732  39.1841149
  75.7352257  62.3126507  38.4227180  76.3062286  63.1776953  39.5257330
  12.8778636  26.6039729   5.6201094  13.4754467  26.6323447   4.8729011
  13.2876098  27.1679640   6.2760460  67.3214483  71.5599537  35.9980536
  67.4913406  72.4265718  36.3672948  66.4291430  71.6160011  35.6561732
   8.6853635  64.7004747   1.3086426   8.6268896  65.6375456   1.4949581
   9.0963447  64.6530914   0.4454619   2.7169219  14.6488309  11.8901443
   3.4368628  14.2365158  11.4127421   1.9624491  14.5621097  11.3074934
   1.3733779   8.7891889  27.1034169   2.2663605   8.5659570  27.3660612
   1.4573397   9.0859175  26.1972523  59.0304375  18.2608008  56.9698143
  59.8115921  17.9319370  56.5249825  58.6312914  18.8613307  56.3403034
   8.2677788  44.9900246  58.0633307   7.6025176  44.5005035  57.5795650
   8.1371266  44.7337103  58.9762735  22.2248387   8.5475087  60.8811522
  21.5838122   8.1307030  61.4569902  21.7334700   8.7552738  60.0864077
  47.8013754  24.0502000   5.2318043  47.6198244  23.8301468   6.1455035
  46.9409513  24.0610743   4.8125410   9.5832580  26.9667673  51.1817217
  10.0361574  26.5923667  50.4261208   9.4812143  27.8934622  50.9647942
   8.4679025  12.7450454  26.3280153   8.1055361  13.2852459  27.0302296
   7.7886868  12.0939898  26.1518788   3.3940634  57.2720098  13.5134399
   3.7069568  58.1379461  13.7751269   3.9653820  57.0200634  12.7879393
  27.2743535  11.2715662  33.6690331  27.6253843  11.2673986  32.7785301
  27.3460555  10.3621662  33.9590049  62.9055500  26.3816905  47.8549242
  63.5708666  26.9367766  48.2616949  62.6416016  26.8607020  47.0693588
  73.0808592  12.8364491  48.9162683  73.9654160  12.7898014  48.5534811
  73.2057238  13.1484652  49.8125315   5.1901191  70.9856987   5.8463353
   4.4632021  71.5822411   5.6675613   5.9348464  71.5611649   6.0208380
   7.1765101   2.8352514   3.9970666   6.8231958   2.1310756   4.5407003
   7.7121359   2.3868519   3.3426398  35.8136845  24.9658298  61.2996006
  35.7978892  24.9209285  62.2556210  36.0008502  24.0694690  61.0207891
  18.1922805  56.7312622  31.5497208  18.7963545  56.4842892  32.2499561
  17.5154901  56.0546017  31.5675044  42.1551752  23.6427689  56.2143183
  42.9010344  23.1039619  56.4781523  42.1927404  23.6519361  55.2578974
  76.1787891  52.9243135  28.2194114  76.2596226  53.3004713  29.0958834
  75.2381754  52.9300880  28.0421090  20.7435393   8.8881606  39.0881133
  20.1400781   9.5033878  38.6715055  20.4854679   8.0316788  38.7474227
   3.4307763   1.5076226  36.8368363   3.6632034   2.4209033  37.0045495
   2.5199088   1.4360049  37.1221828  23.9045858   1.3773781  10.4774404
  23.2921791   0.7748845  10.0553119  24.3256807   1.8382579   9.7518361
  24.4679999  40.1093483  33.4665632  24.5424891  39.3910551  34.0948439
  23.7077618  40.6094360  33.7635279  18.5720980  66.2491655  12.6695776
  18.3129311  65.8153629  11.8566346  17.8462887  66.8411255  12.8670955
  67.0385742  28.0420446  23.1808615  66.5090418  27.3720813  23.6132693
  66.5920687  28.8651657  23.3791924  68.5507584  56.4872599  51.3558626
  69.1080999  56.9404125  51.9885206  67.6690292  56.8127346  51.5371180
  19.1683948  14.1381121  42.4852037  18.8876379  13.4722102  43.1128836
  19.2611611  13.6642432  41.6587210  30.5174732  11.3089418  24.6524763
  31.4609885  11.3149357  24.4913030  30.3504205  12.1231246  25.1272726
  10.6231534   2.3885171   8.5309052  10.0682366   3.1154644   8.2483339
  11.4496207   2.5238463   8.0673653  75.1485443  73.7763739  25.0510859
  75.7094145  74.0080309  24.3108201  74.7715330  74.6089029  25.3356719
   4.3372408   5.4240572  16.0484576   4.8644581   4.6914846  16.3672221
   3.6785519   5.0178409  15.4851198  12.3238051   5.5446732  44.5016956
  12.3374069   4.6948889  44.9420500  11.5077567   5.9519577  44.7922421
   9.9370801  69.3018818   4.7842583   9.1905051  69.6080589   4.2693666
   9.6025527  69.2422533   5.6791145  12.5712311  23.2242107  35.1915383
  12.8652334  22.3493218  35.4452372  12.8985846  23.3375096  34.2992187
   6.1029851  37.7985740  45.7877350   5.3293473  37.5451469  45.2842522
   6.8417346  37.4879622  45.2642822  17.2711861  61.9532681  43.2431459
  18.0157518  61.7598200  42.6735544  16.9657111  62.8131914  42.9542780
   3.1620872   9.3342644  14.7151971   2.5545424   9.0850103  15.4116118
   4.0212482   9.0629685  15.0384188  15.3124058  56.7495537  58.8633060
  15.1237094  56.6612577  57.9290533  15.7901168  57.5759983  58.9341068
  37.1111243  56.6935710   0.8858152  36.4698248  56.0107557   1.0826155
  37.5437158  56.3927154   0.0866981  10.3622103  27.6085401  55.4077196
   9.5952272  27.0411873  55.3297567  10.6910968  27.4465108  56.2919235
  28.3503628  23.1496811  26.9776583  28.5314322  22.8603530  26.0833812
  28.2381248  24.0974712  26.9046569  60.8728552  31.9320989  58.7660933
  61.0634661  32.8384829  59.0076923  61.6985893  31.5992165  58.4145451
  76.4352989  66.5153837  42.1834135  75.6608200  66.7781925  42.6807451
  76.3510084  66.9752455  41.3481569  41.6325235  13.6445105  34.7674561
  40.8044386  13.1767094  34.8754930  41.3795757  14.5053315  34.4339371
   9.4559449   6.1291313  15.4761899   9.0726793   5.7610548  14.6800375
   9.4572610   5.4026079  16.0994017  55.5901909  11.4599514  42.5696373
  56.0384655  12.2499883  42.8715038  54.9132776  11.3023663  43.2278061
  12.6382494  11.3544202  28.3946347  11.8809712  11.0937166  27.8704238
  13.1316805  10.5441701  28.5221243  63.4020662  53.1679630  30.2784705
  62.4773979  53.1737089  30.5258441  63.8697672  53.0352592  31.1030149
  36.4562845  16.7648494  46.2271261  35.5063820  16.7025018  46.3272524
  36.7752790  15.8819103  46.4139175  31.5166545  53.8508415  63.1456947
  31.0270405  54.2279673  62.4147463  32.3498392  53.5788488  62.7609205
  52.2875357   5.8096802  22.5391030  52.1626377   5.2369070  21.7824221
  52.7035856   5.2514309  23.1959820  50.4774523   4.6661410  25.8176017
  50.5665255   4.1569021  26.6231894  51.3279533   4.5829335  25.3863740
  77.3411417  68.0816412  11.8201745  77.1689081  68.9011765  12.2837853
  77.9731798  67.6220369  12.3729169  15.7177520  45.8055973  19.2887545
  15.0722241  45.9124660  19.9873984  16.5597129  45.9698868  19.7134209
  53.4016800  30.9014440  51.6681767  54.0740681  30.3672767  51.2453413
  53.7176704  31.8003917  51.5772295  49.5003366  49.1173363   6.0996419
  50.0941753  48.5418940   5.6175053  49.3366814  49.8472452   5.5024147
  19.0145278  10.4867446  37.9582214  19.3374956  10.7832849  37.1073461
  18.1121075  10.2151990  37.7904940  14.7996426  25.9317493  13.0242133
  15.0693130  25.5253196  13.8478184  14.7507155  26.8667436  13.2232702
   7.2239250  67.2872782  38.7629151   7.8729141  67.4961853  38.0910516
   7.3827618  66.3666439  38.9713168  68.5271263  27.5257182  13.9185297
  68.8635588  26.8847728  14.5448160  67.9419279  27.0227766  13.3521128
  31.9531226  60.1119423  27.1692085  31.4808702  59.3052626  26.9631076
  32.0391345  60.5606890  26.3281035  32.5064850  25.3423858  24.6980786
  33.1756878  24.7500420  24.3552542  32.9040861  25.7263160  25.4795790
  14.8694479  14.0929365  31.5240860  15.5037320  13.9272809  32.2215629
  15.2811968  13.7373984  30.7365012  15.5210364   7.6014811  13.9887691
  16.0732388   7.8197932  14.7395313  14.7070456   7.2792274  14.3758130
  26.1714673  25.1692891  24.8080182  27.0921302  25.4312086  24.8116183
  26.0136223  24.8366714  25.6915808  76.8901396  13.0360246  37.0947480
  77.5364542  13.3947015  36.4865875  76.7765951  13.7201500  37.7545309
  56.9393492  66.7659187  46.5100479  56.5309954  65.9670162  46.1765337
  57.8723192  66.6515064  46.3291883  23.2291842  21.3865733  14.8827553
  22.5119781  21.0454249  15.4170418  23.9354229  21.5520144  15.5073249
  56.1084986  72.4626875  15.7084513  57.0419598  72.2599649  15.6469214
  55.7787657  72.3457336  14.8174798  28.8918710  28.0279636  16.2280262
  28.5499406  28.0476594  15.3341985  28.7623739  27.1237493  16.5141344
  17.7334750  30.5431008  22.9180121  17.2526264  30.4133201  23.7354302
  18.1742811  29.7074842  22.7641773  69.9152374  60.3547001   6.5644252
  70.7010555  60.4351997   7.1050191  69.7412109  61.2455750   6.2606430
   5.4170275  39.8808742  51.0214329   4.7860271  40.1547813  50.3558159
   4.8825461  39.6786237  51.7893267  37.0955610   2.4560270  21.2329912
  36.6150951   3.2605708  21.4281678  37.0947146   2.4024090  20.2772927
  35.5536580  54.0186548  23.2979465  35.7517576  54.6687269  22.6238585
  35.0801587  53.3285666  22.8333950  12.9245079  30.5783963  21.1986041
  12.6978576  31.3821006  21.6664934  13.7681770  30.3164816  21.5671921
  32.7499461  48.4105825  62.4187231  32.0926118  47.7491093  62.6345730
  33.5383773  48.1241179  62.8797483  73.3311796  13.0575275  21.1007071
  73.8984966  12.5963306  20.4829025  73.0929279  12.3941016  21.7482686
  72.7327108  21.7373252  52.6770782  72.0608807  22.3110628  52.3086977
  72.5032520  20.8644009  52.3583508  24.4240475   8.8246816   7.9862171
  23.6903453   9.2971992   7.5929737  24.2927599   7.9145163   7.7205205
  74.3043089  66.8002129  32.3464203  74.5654202  66.4224339  31.5065765
  75.1281023  67.0611286  32.7581549  32.2039357  15.9359135   0.7790132
  31.3107243  15.6690182   0.9961983  32.3921862  15.4920067  -0.0478748
  63.9407110  55.7560587  46.9730616  63.6787987  54.8475838  46.8237066
  64.0148211  56.1313057  46.0956097  53.2351208  40.7296085   8.2920623
  52.8755617  40.1226044   7.6451486  53.1853008  41.5870762   7.8695738
  67.7766228  18.9371753  27.7610254  67.3240614  19.6340382  28.2362127
  68.7064838  19.1230857  27.8915119  78.7398863  20.4483056  29.6278095
  77.8269863  20.4434538  29.9155974  78.7503290  21.0384512  28.8742495
  12.4330544   2.4337474  23.0332279  12.3786366   1.9181016  23.8378286
  11.5218782   2.6157504  22.8033042  24.1073489  17.2074783  25.6415582
  24.9333048  17.5875187  25.9408855  23.7426519  16.7845368  26.4189577
  10.2899909  38.5060191   2.5717703  10.2955616  39.4618464   2.6226979
   9.3915766  38.2844496   2.3268388  52.2839403  19.2032540  21.0343266
  52.9486990  18.5221815  21.1366582  51.6234589  18.8095582  20.4642391
  29.0500307  17.7760875   9.8023403  28.2575989  18.2351208   9.5238215
  29.6030664  17.7574492   9.0212917  49.4388866  73.0688715  42.0867872
  48.5311556  73.3469629  41.9646072  49.5344782  72.3059893  41.5166092
  63.1743622  58.9887094   3.1843248  63.1035519  58.0342340   3.1702319
  62.5459385  59.2656803   3.8511091  32.3177624  42.2118616  19.2872536
  32.9191542  42.9539204  19.3497860  32.6656818  41.5688753  19.9051166
  21.3896060  22.7915812  36.5667987  21.4865422  23.2864904  37.3803687
  21.7272043  23.3768344  35.8887577  16.0883462  46.6585159  31.8180060
  15.4561138  47.2072840  31.3539338  16.0784638  45.8275938  31.3429189
  10.1722813  35.6074405  15.9377253  10.2339625  36.3489199  15.3355336
  10.9451199  35.6879425  16.4967179   9.6857041  63.7996531  60.9644842
  10.1228011  63.5580015  60.1479197   8.7591094  63.8587618  60.7317638
  70.0251675  57.5198317  53.5649300  70.0184298  58.4770060  53.5657024
  69.6683979  57.2771168  54.4193506  64.4864750  64.7738314  52.1227074
  64.6206427  65.5201101  51.5384960  64.9778366  64.0600300  51.7161560
  24.3804240  45.8744287   3.5889173  25.0063205  45.3665543   4.1052017
  24.1087461  46.5834856   4.1717216  51.0148478  62.5009155  63.7048626
  50.3507423  61.9507217  63.2895517  50.5308151  63.2645226  64.0192699
  29.5473790  43.4843349   5.4408437  29.7312331  44.3577862   5.0951380
  28.6430478  43.5347605   5.7504755  21.5563726   6.8358415  36.4446473
  21.9422889   5.9951276  36.6906142  22.2672486   7.3080224  36.0111332
  70.4408264  12.7555048   1.4849630  69.7017908  13.3023405   1.2184621
  70.7593393  12.3691416   0.6691770  52.1687937  10.6379974  19.9229014
  52.5624561  11.0308957  19.1438675  51.6632223   9.8973334  19.5881689
  17.7134347  30.6449556   1.5624510  16.9595265  30.9965801   2.0359625
  18.0483902  29.9492717   2.1281911  23.7948251  15.7120597  39.4545007
  24.1112232  16.0940361  38.6358309  24.5870090  15.5603588  39.9699235
  31.5148973   5.4532284  26.9787025  30.8135462   4.8304489  27.1697068
  32.2425508   4.9093848  26.6770577  16.8630826  20.3378272  46.0024118
  17.7721083  20.6141829  46.1187363  16.9258988  19.4626582  45.6198359
  65.0123549  13.4909904  47.0500469  65.8941221  13.8290763  47.2063065
  64.9979115  13.2822609  46.1159945  15.9830689  74.2704582  36.2745428
  15.1296997  73.9194012  36.5290093  16.5328336  73.4968472  36.1500025
  65.5200624  59.6369457  31.7868781  64.5743370  59.4917154  31.8141699
  65.7539558  59.5194626  30.8661580  54.6831083  34.2327118  55.2252913
  55.2076292  34.8144245  54.6750879  54.2523718  34.8170686  55.8491707
  38.0748987  40.5198717  11.6049886  38.1004214  39.6258235  11.2640142
  37.7511191  41.0459280  10.8737838  15.0819755   3.9675742  28.0254412
  15.2425694   3.2159996  28.5960340  14.4119680   4.4762081  28.4821844
  69.4953060  21.6498756  18.2190990  69.4511986  22.0113182  19.1043365
  68.8606787  22.1630502  17.7189660  18.1398582  25.5709553  24.1234565
  18.3291209  26.5082026  24.1679001  17.1906161  25.5234170  24.0098214
  63.2481432  18.6362922  27.3184490  63.1465435  19.4651926  26.8506527
  62.3590088  18.2880068  27.3845077  58.2493162  64.3358755  22.8329825
  57.3309135  64.1627693  22.6260829  58.4561634  63.7213135  23.5370803
  21.5756130  48.5818291  11.5358746  21.4798594  48.7396622  10.5966461
  21.1559272  49.3361425  11.9495189  24.3123007  10.8348930   2.8446928
  25.1011395  11.3769758   2.8553236  24.4655442  10.1756930   3.5215998
  48.6145306  28.8000131  17.2061586  48.7852097  28.0180240  16.6811872
  48.0817127  28.4863424  17.9368758  33.5998917  39.6031260  17.9193890
  34.0374851  40.3625917  18.3040369  33.1311512  39.9546909  17.1624768
  75.7480481  74.0930130  28.0156040  76.0155680  74.2792255  27.1156120
  76.5067175  74.3362177  28.5461736  59.7833014  18.8971972  47.1442461
  60.1163149  19.4476533  47.8529978  59.1999674  19.4718575  46.6485453
   3.1121510  44.3162155  20.2612782   2.4847609  44.8844051  19.8143184
   3.9614168  44.5618010  19.8943079  33.7372589   9.5552528  19.1016865
  34.3769550   9.8912704  18.4739041  33.6107349   8.6408508  18.8485229
  15.7199049  17.1421027  16.0903859  16.2633443  17.2948909  16.8634057
  14.9354589  17.6695323  16.2410319  70.5207777  12.9079473  31.6934991
  69.7676516  13.3651423  31.3193274  70.8993292  12.4275005  30.9572244
  31.4852500  44.9365711  12.0571029  32.0278287  45.3792381  11.4045024
  32.1000528  44.6763802  12.7430701   4.4099209  19.9335301  18.8273299
   3.7128448  19.2840004  18.9191341   4.4266805  20.1363087  17.8920054
  17.5695932  27.1858978  14.1402066  17.3403192  26.6223741  13.4012163
  17.9728436  27.9554725  13.7384868  78.7642622  12.0502770   5.6745803
  77.9938030  11.6534817   6.0810047  79.3067360  11.3064170   5.4126203
  17.1958899  20.2401638  36.8886399  16.3364649  20.3923512  36.4956260
  17.3428547  19.2998469  36.7864823  31.2648273  30.3275585  21.9248962
  31.8172574  30.7270336  22.5968146  30.9330130  29.5274162  22.3322082
  17.5979626   4.2178470  29.7001600  17.6347125   5.0955546  30.0803065
  16.7707491   3.8544095  30.0161719   3.6070126  52.2557783   4.0283370
   3.7860593  52.8427887   4.7629070   3.5709009  52.8318071   3.2647178
  52.7346039  15.5001163   1.1848268  52.7577353  15.9620404   0.3467797
  51.9270563  14.9871767   1.1533777  48.4894562  70.8332205  40.8481359
  48.9251518  70.4123926  40.1069880  48.7582874  70.3174543  41.6083622
   5.7402486  24.2369819  31.0888004   6.4849085  24.0640712  31.6648340
   5.8379889  23.6065388  30.3752065  11.4612675  44.7101164  20.3555107
  11.4871168  45.0497246  21.2500668  11.2032580  43.7936831  20.4545927
  58.3189154   8.7288171  46.2179422  59.0542698   8.4481758  46.7626715
  58.0158281   9.5406640  46.6244841  52.1187592  59.1910410  33.0389428
  51.4070368  58.7988615  32.5331020  52.7269602  58.4688568  33.1963420
  32.9182029  60.4693270  22.6977515  33.6093998  59.9309587  22.3122144
  32.2976995  59.8378754  23.0617213  23.4302711   5.1303971  23.4204865
  22.9522157   5.9004569  23.7282228  23.2095575   4.4440418  24.0501165
   7.2159922  69.9810600  56.0699081   6.7815381  70.7416248  55.6838703
   7.9161537  69.7666740  55.4534340  14.7305191  10.3850961  20.6589961
  14.3163466  10.9124899  19.9759519  14.4165611  10.7659864  21.4791083
  40.5153513  27.1064711  56.6226387  39.8236871  27.7677941  56.6446352
  40.4505968  26.6639280  57.4689245  76.5776968  39.3324947  22.3012590
  75.9648752  38.7954545  21.7989969  76.0855293  39.5928311  23.0798650
  18.9048195  47.0542002  63.9312649  18.3093739  46.7697191  63.2379055
  19.2449749  47.8948307  63.6248970  32.7426434  28.0377030   3.9134014
  32.3918724  27.9736948   4.8017114  31.9765806  27.9488063   3.3464119
  22.6689959  12.7196646  21.0207295  22.1250963  13.5008371  20.9198642
  23.4287834  13.0196226  21.5197110  76.8147755  64.8898125  39.6402669
  77.1471453  64.8371124  40.5363607  76.7556524  65.8283186  39.4615483
   6.1328709  47.8877926  22.9228592   6.6696984  48.6324549  22.6516986
   6.7318732  47.1414089  22.9044843  13.7954152  21.4316511  32.9887891
  13.4491086  21.7099071  32.1409225  13.3730173  20.5889559  33.1551528
  43.2532644  69.9948072  23.8951159  43.1817484  69.8243093  24.8342896
  42.4537754  69.6229362  23.5226154  40.8626556  39.9712467  51.8061447
  41.7350912  40.0603294  51.4225340  40.8390951  40.6274796  52.5025892
  13.1595063   8.3351547  16.8261003  12.8471899   7.6262343  17.3883474
  12.4779415   8.4312576  16.1609197  26.4623737  17.8413808  59.3530321
  26.1780596  16.9303834  59.4270611  27.1937346  17.9146171  59.9662066
  10.4872775  20.5380249  35.0376081  10.1215947  19.6732950  34.8511958
  11.4270425  20.3846645  35.1353526  75.2380276  14.0951216  60.0207233
  75.8763313  13.3941531  59.8886490  74.8926830  13.9419997  60.9002256
   7.1969241   7.2149861  41.6475868   6.4445823   6.7082691  41.9532824
   7.1908045   7.1030182  40.6969738  33.9009428  50.6410456  10.5492771
  33.4988308  49.9190712  11.0322797  33.4350157  50.6588364   9.7133172
  12.0617378   4.6788645  41.5840054  12.7924883   4.5480105  42.1882534
  11.2912202   4.7367832  42.1489668  45.4981699  32.4400534   0.9739490
  46.2275257  33.0496038   1.0867115  45.5053463  32.2280277   0.0405546
  30.6148124  37.4188876  15.6147921  30.5919766  37.3381901  14.6612728
  30.4175687  38.3405089  15.7819533  30.6355333   5.7862663  41.2645102
  31.2972283   5.1469612  41.5284824  29.8220372   5.4626644  41.6514730
  11.3028467  38.1388378  23.7243819  11.1318314  37.2965050  23.3031249
  11.7644048  37.9133701  24.5320702  67.2353745  50.7221556   8.5008901
  67.2305965  50.2353430   9.3250400  67.2895908  51.6404629   8.7654579
  37.3216128   1.9052264  13.1194746  38.0974460   2.2026442  12.6442313
  36.7904282   2.6940328  13.2283759  37.1904802  11.3517344  31.9179368
  36.5220952  11.9942892  32.1558785  36.7674613  10.7978904  31.2617779
  32.5799656  11.8819702  21.8480778  33.2827330  11.4785504  22.3575950
  31.8139696  11.8387830  22.4204540  28.3222938  50.8585358  55.5102682
  28.9478445  51.4285231  55.9575224  27.5145507  50.9456301  56.0164261
  29.0572858  35.4951715  26.1937809  28.8802099  35.8362460  25.3171158
  29.8433948  34.9593711  26.0880542  76.3710833  23.9535403  15.6669044
  76.6613674  23.0572629  15.4976261  77.1439791  24.3925881  16.0220087
  13.5726416  18.1858003  17.3066747  13.7508512  18.7380624  18.0679107
  12.9031670  18.6627531  16.8162143  70.6762028  10.6504285  10.0072658
  70.2830696  11.1920750   9.3229449  70.5320787   9.7510004   9.7131777
  52.6450253  20.3578877  27.8009415  53.0991602  21.0887861  28.2202005
  52.5557280  20.6245422  26.8859792  41.5455525   0.1329109  43.0913067
  41.7411917   0.9390423  43.5689116  41.7001026  -0.5657032  43.7271404
  71.4150858  42.3809195  35.2322841  71.7598629  41.4889479  35.1905799
  70.5742550  42.3342133  34.7772431   3.3273339  20.0627565   2.0731249
   4.1045690  20.4262948   1.6488883   3.4950036  19.1212380   2.1139067
  15.9480906  22.9609060  22.1222687  16.1563897  23.2707620  23.0036497
  16.7635334  22.5718021  21.8062305  13.9487052  22.7570915  39.9162626
  13.2401311  22.5797653  39.2976284  14.6757066  23.0541182  39.3690205
  63.3177757  67.5946331  17.0590806  62.5709724  67.3098326  17.5857735
  62.9788351  68.3211279  16.5360534  75.2992678  56.7587042  37.2746897
  75.0794363  55.8651257  37.0112085  74.5710135  57.2895575  36.9520879
   6.3723403  25.3663564  47.6806498   6.0785991  24.9810719  46.8551207
   6.8286520  26.1671352  47.4222660  50.8429384  14.8354483  18.1888425
  50.6591654  14.7788477  19.1265297  50.0730610  15.2680695  17.8195751
  17.0254683  17.2804642  36.9081330  16.9989765  17.3876333  35.9573197
  17.1760762  16.3443661  37.0395470  73.3061743  16.9803977  11.1325765
  73.2349062  17.8918695  10.8490777  72.6942873  16.9088912  11.8651819
  20.1527023  52.3051929  32.0120335  19.3970251  51.8071127  32.3236394
  20.7124138  52.3985672  32.7829003  36.7882967  72.2686720  24.5593309
  36.1981392  73.0172205  24.4720197  36.3905168  71.5857935  24.0192604
  74.9505520  55.2697515  52.0789528  74.0092325  55.1003075  52.1168566
  75.3381395  54.4214249  51.8636417  39.9788213  58.8567019  64.0427446
  40.8824635  59.1113615  64.2293215  39.8506117  59.0857840  63.1222486
   1.5004559  23.5574532  34.3728685   1.0476092  22.7697325  34.0717745
   0.8043794  24.2040515  34.4895673  12.7068424  58.3068323  35.3977203
  12.4307525  57.5882816  35.9666610  13.1721997  57.8782988  34.6793652
  10.5874836   6.3585413  27.6856661   9.8310709   6.3161248  28.2707071
  10.3238869   5.8536232  26.9163752   3.9647305  28.2229137  15.0172400
   4.7110629  28.7876749  14.8165822   3.9477164  28.1791353  15.9732878
   3.4013867  16.8109536  48.8956022   3.1772238  16.2580371  49.6441078
   4.3551284  16.8848360  48.9295101  45.1740217  21.1638594   6.3709986
  44.2864513  21.1129141   6.0162389  45.7324219  20.8323169   5.6677926
  38.0128241  29.9847865  27.9984713  37.6529050  30.2376366  28.8486218
  38.9317608  29.7851849  28.1772065  18.4650862  23.1783438  18.1792188
  19.0060067  23.9323139  18.4140921  17.6982439  23.2472634  18.7479317
  60.2724934  51.8949556  38.6221933  59.4636011  52.2114801  39.0243626
  60.0302410  51.0597467  38.2222366  14.7160041  24.0868402  31.0877609
  14.0723085  23.4380817  30.8031607  15.5322742  23.8141370  30.6687546
  24.6694875   4.7255340  10.8143008  24.6834302   4.1106427  11.5477490
  25.2116275   4.3104759  10.1434481  32.5015879  30.5447602  17.8095460
  33.2359314  29.9497986  17.9611695  32.4183917  31.0357404  18.6270118
  10.4001820   7.2832650   3.7255102   9.6635145   7.8680611   3.9031833
  11.1673772   7.7626258   4.0383282  22.7779531  29.8667407  16.1419213
  22.3881197  30.5623484  16.6714406  22.8763390  30.2543187  15.2722454
  42.3890400  62.6611662  54.5580435  42.7661514  62.4783659  53.6974621
  42.4200392  63.6147261  54.6354771  16.1394870   9.6957797  58.5441637
  17.0087349   9.2973047  58.5010672  15.5409753   8.9550555  58.6408234
  21.5779662  70.2690887   8.9423454  22.3692608  69.8265219   9.2492998
  21.2892580  69.7501993   8.1915891  59.8227692  54.3820095  60.7002640
  60.0561953  54.0869379  61.5804195  59.9551630  53.6124372  60.1466703
  32.9582858  16.7742515  12.6243043  32.4972963  16.9804919  13.4374380
  33.2691646  15.8771777  12.7461350  30.3331947  38.1994152   6.2544775
  29.6890402  38.9061499   6.2117982  31.0876989  38.5334158   5.7692957
  76.5891838  20.7299638  15.1067519  76.8750429  19.8534977  14.8492205
  77.0816183  21.3198543  14.5359886  62.9478121  71.5675259  12.6567745
  62.0289087  71.8063307  12.5350344  63.4209251  72.3974705  12.5969064
   2.8380331  36.4985704   4.1889217   2.2688474  37.0631266   3.6659157
   3.6249375  36.3909078   3.6546725  65.2329826  28.7859082   1.7801109
  66.1342859  28.6710501   2.0812620  65.3130579  28.9439678   0.8394537
  70.6952143  53.0489063  57.3947763  70.0374031  53.3933926  57.9988003
  71.2845230  53.7863779  57.2364044  22.2459555  69.6887970  28.5005808
  23.1671309  69.4533443  28.3899999  22.1993542  70.0679874  29.3782330
  36.8523812  36.1651754   6.2676740  36.3813066  35.3900123   6.5733588
  36.5268922  36.3082743   5.3789604   0.9023541  70.4680300   5.5509716
   0.2441467  70.9341764   6.0664344   0.4948634  70.3495884   4.6929768
  78.2585703   3.8454689   0.5506845  78.4052549   3.5503115  -0.3479818
  78.5248791   4.7648681   0.5472990  25.5862617  71.3026047  53.8795471
  25.7536340  70.3722906  53.7287569  26.0194230  71.4920712  54.7118330
  78.3953377  16.4507675  60.9429121  79.2813179  16.4357209  60.5809116
  78.3605110  17.2571445  61.4574766  12.9226947   1.3019261   0.0861613
  13.2340562   2.1963954  -0.0524382  13.7062669   0.8112928   0.3342058
  47.6811457  25.8150697  47.0094061  47.9968452  25.2831078  46.2789392
  47.0295048  25.2640224  47.4429321   5.3108805  17.4616814  15.6080270
   5.9065932  16.7323422  15.7795560   4.6589243  17.1020436  15.0064909
   6.5782154  28.5214448  23.4543681   6.0877210  28.0599976  22.7741385
   6.9720715  29.2671394  23.0015492  75.2055454  66.2713575  11.8230128
  75.5638599  65.6075096  11.2338233  75.6493330  67.0808363  11.5699673
  67.2211599  47.2698736  26.9982004  66.3423157  47.4444818  27.3349190
  67.1683168  46.3843632  26.6385984   5.7850903  29.8322630  13.8154078
   5.5474418  30.7588744  13.8492680   6.7376804  29.8257351  13.9090037
  19.6723354  13.2047474  19.1854572  20.2730846  13.2642460  18.4426296
  19.0505993  12.5208652  18.9364946   4.3033981  11.2986732  43.5860682
   3.7461394  10.7077527  44.0925312   4.9359149  10.7224238  43.1570101
  75.5580091  35.1100564  27.2849822  75.0452423  35.6131935  27.9175591
  75.1584148  35.3111053  26.4387345  58.6448669  56.3448048  13.3417988
  59.2536736  56.2790871  14.0775096  58.0619526  55.5926657  13.4453571
  39.3508434  71.5405750  55.9910297  39.6037626  72.2205353  56.6154575
  39.1928172  70.7662344  56.5310860  66.9477463  46.2027311  15.4378557
  67.8848743  46.3974810  15.4477191  66.8072939  45.7433128  14.6099424
  61.9474173   8.9016593  12.9980123  62.1942186   7.9793298  12.9299736
  61.8781948   9.0622824  13.9390969  72.3593712  13.5226989  37.1027565
  72.9511213  13.4136772  36.3583207  72.1593332  12.6294219  37.3825312
  42.3073721  45.5815983   7.0019054  41.8502283  45.0626802   6.3401115
  43.0026197  46.0276747   6.5182996  40.0874501   1.0326931  12.3833072
  39.9402862   0.1224014  12.1265113  40.4885321   0.9750673  13.2505119
  78.1963205   3.9213949  24.4892740  78.6240578   4.1691566  23.6695886
  78.8847589   3.9944312  25.1502943  73.2320261  35.5616546  14.8789263
  73.5875559  35.1605606  15.6719923  73.9766550  36.0175538  14.4866025
  31.3799286  46.0830688  30.0686312  31.0139751  45.5418015  29.3690991
  32.3184752  46.1121702  29.8828578  60.7505751  67.6404476  14.8844886
  60.6520939  67.1782017  14.0521061  60.4742670  67.0054150  15.5452597
  49.7551584  64.9163008   8.9199120  50.5280161  65.3066730   9.3279946
  49.8833036  65.0560999   7.9816866  54.0230799  66.0846758  58.0024099
  53.3431864  66.7227221  58.2189226  53.7458897  65.7143497  57.1644068
  60.7743168   7.8792858  19.3042147  61.2635136   8.3437145  18.6250794
  61.3980293   7.2447288  19.6571255  36.0582352  28.0406213  12.0341134
  36.8648982  28.5287333  12.1992576  36.0262418  27.3873496  12.7330005
  47.5663662  62.6687431  63.8769054  46.8876123  62.3805761  64.4872189
  47.2846174  62.3290491  63.0275202   5.9806281  45.9514427  34.2669845
   6.8866694  45.9873486  33.9603376   6.0198730  45.4314804  35.0696898
  14.8122263  33.3076620  47.4150848  14.2072880  32.7540088  46.9213724
  14.3329287  33.5349345  48.2118607  65.1877689  68.3348513  18.8341022
  64.7510958  67.7914762  19.4900680  64.6625042  68.2224560  18.0418301
  14.4863975  16.1479235  54.5235252  13.5691905  16.4188278  54.5631981
  14.9017429  16.7918849  53.9499092  20.6642532  61.6534376  17.9890072
  20.4118037  61.0292721  18.6693907  20.3116488  62.4910212  18.2895958
  24.5822215  28.0696511  24.0376663  24.0155959  27.5918984  23.4319282
  25.4076767  28.1712914  23.5638261  11.7838216  50.6471062   8.2458067
  11.0721338  50.7392025   7.6123631  11.6665924  51.3831186   8.8464522
  10.1088345   7.2083676  36.4904428   9.2405206   6.8353355  36.3384271
  10.1312459   7.3877341  37.4304223  47.7367735  51.3304567  12.6800680
  46.9285202  51.8372869  12.7580547  47.4702501  50.4269409  12.8499174
  48.4403181  51.7931557  61.8268394  48.8355255  52.4386549  62.4128199
  48.8586426  50.9657717  62.0648909  22.7968025  42.1137333  19.9181092
  21.9081330  41.7585611  19.9369621  22.7298355  42.8978586  19.3732321
  32.2104478  41.5191507  16.6913867  32.1925521  41.6272640  17.6422930
  31.3448453  41.1736155  16.4732850   8.7446243   9.0941113  29.8320365
   9.1686708   9.8993921  29.5354891   9.4635689   8.4722692  29.9445629
  33.2479954  56.1836290  27.3420668  32.6038003  56.1781359  28.0500293
  33.0375862  55.4088974  26.8207693   7.7915281  20.9974051  56.4763832
   8.4368491  21.0343790  57.1823788   6.9563138  21.1835432  56.9053411
  29.4164109  33.1980610  22.4765968  29.0257764  32.8317404  21.6832209
  29.3777943  32.4848843  23.1138706  33.4086943  36.1233354   4.6549800
  32.6675844  35.5930328   4.3621218  33.0156994  36.9496202   4.9361199
  20.7951212  18.0425036  35.0862360  20.0573444  18.4413242  34.6248674
  20.7328629  17.1105134  34.8770642  20.5605268  23.4796906  48.7765026
  21.2802148  23.9737821  48.3838749  19.8749137  24.1312432  48.9236164
  25.8488989  19.9459231   1.6845541  25.7600975  19.0014112   1.8120067
  26.0692668  20.2850056   2.5521329  28.7313676  26.5524197  21.8379760
  28.7200212  27.4012017  21.3956261  29.1134143  26.7348289  22.6964617
  57.5386620  42.8058338  19.4061732  57.7725649  42.3646212  18.5895622
  58.2765436  43.3893490  19.5830035  16.4769590   9.4291008   4.2857707
  16.8440998   9.0945375   3.4675366  17.1817482   9.9515653   4.6685711
  15.2677310  10.0306153   8.6804622  14.5596838   9.6219629   8.1825626
  15.0590801  10.9647489   8.6709404  10.6847835  57.9840946  40.0827789
  11.2251639  57.4945641  40.7029247  11.2258649  58.0532837  39.2962193
  13.0766153  13.8697135   1.3347712  13.6059666  13.4165716   0.6785078
  13.1783497  14.7981143   1.1251241  39.1042376  49.2392397  14.6460032
  38.8948083  48.9952278  15.5475748  38.2630992  49.4901943  14.2642450
  17.8108716  73.6923647  31.9706202  17.9376030  74.4293356  31.3730884
  17.1849453  74.0147114  32.6191115   9.8675877  59.3343592  16.5461099
  10.2416718  58.9572811  17.3424160   8.9604014  59.5326900  16.7782950
  57.7472925  56.1202812  18.7282276  56.8785048  56.5170336  18.7916994
  57.7889633  55.7764435  17.8358877  38.4483433  38.1401563  10.4008913
  39.2541528  37.6306176  10.4861808  38.5143709  38.5501552   9.5384681
  56.6551495  24.8111558  17.8322518  56.1028242  25.3125453  18.4320652
  56.7303038  23.9485526  18.2402956   6.9773066  26.5647149   7.1090293
   6.9827640  26.6974688   8.0569631   7.4288690  27.3318529   6.7571419
  27.8764081  57.5815487  36.8456602  28.1199265  56.8037462  36.3437104
  26.9199181  57.5583553  36.8743038  55.3308630  34.1907859  21.3409734
  55.6219101  33.2922935  21.1853027  55.7612896  34.4438887  22.1576142
   9.9766481  54.4795132  28.5461855  10.5858493  54.7355843  27.8537011
   9.1263151  54.4271135  28.1098127  25.8100271  24.4752192  13.9705753
  26.0215044  23.6578321  14.4215596  25.1155829  24.2371297  13.3563340
  76.1226225  25.3543997  24.7999740  75.7801008  25.9265518  25.4866719
  75.4679108  25.3981709  24.1030765  29.1584492  65.1542377  59.7359705
  29.4609499  64.8305511  58.8874722  29.9057555  65.0281954  60.3206730
  31.7521429  34.3468857   3.3964381  31.9755888  33.4414816   3.6121836
  30.9345198  34.2807698   2.9031318  18.8167286   0.6214246  26.8744683
  18.8454545   0.0525022  26.1052251  19.6975327   0.9917851  26.9314790
  54.1463232  22.8322101  12.1437037  54.5526886  22.4770474  11.3531601
  54.0218163  22.0716500  12.7113986  17.9342377  10.9957039   5.8319122
  18.0860662  11.1134422   6.7696315  17.2002137  11.5770674   5.6332779
  77.2066641   2.6730579  51.2186813  76.6771555   3.4603554  51.3452435
  78.0179548   2.9911676  50.8226538  40.6106091  21.4798856  22.4415874
  40.2763557  22.3054242  22.0908856  40.4816341  21.5517211  23.3873343
   6.6342998   5.1302534  19.5363486   6.0929930   5.8235949  19.9138355
   6.0396367   4.3859726  19.4433248   5.3741252   6.0449588  49.6114588
   5.6473213   5.1473075  49.4222021   6.1061460   6.5856868  49.3148279
  10.1369476  27.2028971  37.4831104  10.9633851  26.7226887  37.5344229
  10.3412509  28.0694771  37.8345752  16.2247837  39.6612930  27.8210616
  16.5198147  40.2283335  27.1085620  15.7932305  40.2543449  28.4361124
  28.5837507  37.3171329  17.6367271  29.0013528  36.6465473  18.1772423
  29.0675712  37.2948313  16.8111050  26.8665791  36.8363452  34.2642093
  26.1844683  37.4047613  34.6217799  26.6459489  36.7517543  33.3366323
  49.2912579   3.2516724  30.0519943  50.1280689   3.5423014  29.6893454
  48.9212656   4.0353349  30.4584527   7.1651995  26.1797833  34.2948747
   7.0676988  25.5311346  33.5977530   6.6767853  26.9416881  33.9831281
  27.6908088  23.4019828  29.6398473  27.9800391  23.3698440  28.7279582
  28.2179022  24.0970278  30.0339460  67.8397274  71.5550661  59.7399473
  68.2070971  71.0377836  60.4566717  66.9866991  71.1558151  59.5691538
  29.2683220  54.4496298   9.3707538  29.7610521  54.6350145  10.1701796
  28.9754200  55.3082323   9.0653962  40.1039362  35.3529811  12.9675639
  39.4153523  34.7204185  12.7627516  40.2419519  35.8301091  12.1493149
  68.5771561  51.7721987  35.7407212  68.7063408  50.9031296  35.3609014
  67.6982546  51.7402315  36.1185360  18.1983817  29.1823626  19.1099882
  17.8068423  28.3832908  18.7572646  17.5449896  29.5186853  19.7233355
  23.6471248  27.6459217  13.7525713  23.6846137  26.7392564  14.0571737
  22.7237773  27.8863311  13.8291562   5.9422755  51.0075045  42.1176291
   5.2141929  51.4881134  41.7237473   6.0294646  50.2210903  41.5789461
  66.7482948  20.8671570   5.2990568  67.6948071  21.0067916   5.2700353
  66.6029024  20.0967050   4.7499689  32.5691748  60.3220129  29.7986817
  32.1402907  59.5510244  30.1699901  32.2305965  60.3773546  28.9050722
  17.7546704  32.4882960  19.9774659  17.0321572  31.8836188  19.8084307
  17.3625076  33.3579469  19.8990488  28.8748693  71.0625553  59.1113329
  29.4291425  71.8429422  59.1137171  28.0127215  71.3803005  59.3796110
  58.5362482  59.4557524   8.2610387  58.0812883  59.1362381   9.0402395
  58.3184385  58.8203526   7.5790888  37.6743174  65.6104374  63.9675093
  38.1276441  64.7931194  64.1741896  37.0599556  65.7331848  64.6911955
  24.4838500  46.9004107  22.7653456  25.3533220  46.5917063  23.0201960
  24.6470881  47.5056314  22.0419550  65.5126286  38.7427139  52.9470110
  64.6178007  38.6012816  52.6379490  65.9582090  37.9124451  52.7786541
  11.7590654   5.4936278  62.8750992  12.4403751   6.1431992  63.0486107
  11.5820503   5.5766487  61.9380808  37.3302054  68.4031153  41.4830112
  37.0262313  67.5941849  41.0713577  37.2865582  69.0576553  40.7859421
  60.4991436   8.2646215  59.7151232  60.3302193   7.5251234  59.1313076
  59.9139881   8.1211042  60.4589128  49.3909740  64.6693468  14.9343836
  49.7024870  65.5694389  14.8393822  50.1878309  64.1503763  15.0435460
  22.7885151  19.2214072  56.1694527  21.8626666  19.2619467  56.4090204
  23.1284642  18.4688985  56.6535997  30.6867838  52.5614405  12.8439796
  31.6253638  52.4502802  12.9954350  30.2733445  51.9194937  13.4212196
  45.8683681  62.0588923  31.1917400  44.9175024  62.1449423  31.2602043
  46.2069511  62.9064655  31.4802027  59.5675659  36.2806797  11.2911820
  59.1672182  35.6893587  11.9285953  58.8904047  36.4113235  10.6273925
  16.7067933  10.5283463  16.6343188  16.2193799  11.2264681  16.1969578
  16.1244428   9.7696221  16.5964210  70.7192659  25.8584261  11.9874966
  70.9081316  26.7955279  12.0365012  71.5277386  25.4356885  12.2771406
  77.5689268  71.9436598   6.2923855  77.1866941  71.2982941   6.8870550
  76.8240786  72.2823620   5.7956791  21.2363219  10.6182778  52.2794056
  20.6407094  10.0140405  51.8362665  22.0890284  10.1850593  52.2413683
   2.9267630   4.7334141  33.3390737   3.8579226   4.5727178  33.4918833
   2.5047499   4.5013225  34.1662812  52.8346729  66.1767483  21.2640953
  53.5138464  66.6038322  20.7420254  52.8577662  66.6320658  22.1057510
  30.4706025  64.8939514  14.7453415  31.0685539  65.5456209  15.1114190
  30.6190014  64.1094160  15.2732706   9.8365778  66.6637373  61.6694927
   8.9542401  66.8936920  61.3782310   9.8090130  65.7146597  61.7908192
  24.0423393  29.3093085  61.7079544  24.0441108  30.1463461  62.1722794
  24.9388194  29.2115474  61.3870192  38.3579946   5.9387100  63.4697723
  39.0819478   6.5298676  63.6763048  37.5858164   6.5039718  63.4484720
  63.4935045  69.2117596  11.3036871  63.8883543  69.5447969  10.4978287
  63.1639767  69.9922132  11.7492580  55.6577587  54.3565750   7.1171570
  56.4334393  54.1449881   6.5977508  55.9904718  54.8925018   7.8370988
  20.3925872  12.5056720  34.5075321  19.8319173  13.0950320  35.0120497
  20.0415230  11.6326058  34.6828651  39.7520041  65.8466864  46.1154222
  40.4457569  66.4316559  45.8108759  40.1088142  64.9671459  45.9916115
  38.2723761  58.7687588   5.9986323  37.7785969  57.9543686   5.9027898
  37.6023865  59.4504547   6.0499430   4.7808677   3.4588599  10.3016543
   4.1138148   3.8924730   9.7694397   5.5658633   3.4655052   9.7539592
  42.3231745  61.4946890  39.1497326  42.5720596  60.5729961  39.2187881
  42.1606779  61.7672110  40.0528145  27.1785927  47.5204992  18.1967711
  27.7912664  48.2531834  18.1332350  26.3152885  47.9203892  18.0917609
  11.7710185   1.8915278  10.8479071  12.0679879   2.7836034  11.0274684
  11.2152600   1.9754964  10.0731075   6.3715798  33.7837704  63.7710136
   6.9273455  34.0328510  64.5094695   6.9850118  33.4853514  63.0995383
  64.8190069  63.2197332   7.3442447  65.2673578  62.8483391   8.1040347
  64.8130798  62.5118399   6.6999733  51.1812210  34.0710545   1.9731914
  50.9010124  33.5100675   2.6963854  52.1208763  33.9071441   1.8931104
  65.8935070  66.0998297  31.6104436  66.0934782  67.0352125  31.5743947
  66.7125320  65.6903839  31.8893456   5.8511889   8.6444426  32.5901389
   5.7326978   7.9324490  31.9614434   5.8705580   8.2101846  33.4429431
  67.8793097  52.7681684  30.5043292  67.3301983  52.0027351  30.3345799
  68.0387974  53.1451607  29.6390676   4.0737501  68.5467339  27.2190928
   4.9170631  68.2507420  27.5617957   4.2707837  68.8609838  26.3366795
   9.7254068  61.7973375  44.6512794   8.9334244  61.2681293  44.5567608
   9.4154948  62.6312685  45.0044727   8.6849040  13.1975210  51.2533998
   9.1084820  14.0474200  51.3737535   8.9194387  12.6999497  52.0367575
  44.3181086   1.4344169  45.9789133  43.8227320   0.7482536  46.4261389
  44.8958254   0.9611850  45.3801441  17.1383202   5.7038337  10.1072133
  17.9819739   5.2704573   9.9781215  17.2364199   6.5524429   9.6753895
  37.6705980  10.7821262  53.2549572  38.4697938  10.4080689  53.6259079
  37.8934741  10.9663165  52.3424721  60.6669474   3.8036260  28.2233357
  59.7358608   3.6248067  28.0916834  60.7128525   4.7508106  28.3535886
   6.0171926  63.7667608  13.8090420   6.8207091  64.0021133  13.3451438
   5.6784344  64.5990849  14.1387570   5.7994169   2.6315629  39.4463062
   4.9486187   2.8075802  39.8480415   6.4365637   2.8812748  40.1155758
  61.5056801  57.9736757  38.6220312  62.0204782  57.7687168  37.8415132
  62.1341372  58.3683062  39.2266345  75.1171350  48.3056450  22.9774904
  75.8614922  48.8835716  23.1453085  75.4326582  47.6963663  22.3100638
   0.7670887  12.3348963  61.8289280   0.4122273  11.5231228  62.1913242
   1.7135055  12.2573888  61.9494247  26.4795327   3.5562474  44.4170189
  25.9626937   2.7912584  44.6698093  26.5673566   3.4825751  43.4667110
   2.6413751  59.6387053  43.8476992   2.5003484  59.5956087  42.9019260
   2.1144313  60.3844881  44.1346979  15.1458561   0.8100162  43.0264521
  15.1517344   0.9263366  42.0763636  14.8482347   1.6527781  43.3690977
  74.5181894  48.2884169  25.5933237  75.3390932  47.8831244  25.8727598
  74.5877361  48.3376169  24.6399212  62.8537750  49.1976166  45.6870699
  63.4566975  49.9220085  45.8543205  63.3421707  48.6070538  45.1135349
  33.3255839  69.1568136  53.0608034  32.9224992  69.7015762  52.3847961
  33.3611059  69.7208881  53.8333225  27.1490026  12.4730957  23.5765672
  27.4265385  11.6401577  23.1952262  27.8789830  13.0688214  23.4078264
   1.7817430  46.6571569  15.8746529   2.5819772  46.8953085  16.3427794
   1.6461781  45.7335901  16.0864925  45.2674150  68.1393766  15.2585185
  46.0076094  68.2335186  15.8580875  45.4501295  68.7600613  14.5531130
  18.9025283   6.7398024  53.5973644  19.5776045   6.2726265  53.1051731
  18.4449589   6.0551900  54.0853882   7.6196080  42.7369547  31.1027813
   6.7698205  43.0633020  31.3987374   8.1169045  43.5256720  30.8863282
  58.9683485  19.8273027  27.7693772  59.7413635  19.3056190  27.5536871
  58.6431837  19.4474781  28.5856104  51.7562246  57.1866226  29.4895315
  52.5656080  57.1828651  30.0005293  51.0831547  56.8957329  30.1048279
  70.2187538  66.5294504  10.7588053  69.4454527  66.9793320  11.0991585
  69.8807383  65.9645271  10.0639403   3.9998147  72.2409487  45.2231503
   3.4370077  71.8506002  44.5544863   3.8867193  73.1847143  45.1102543
  59.5779085  56.0929203  30.0795579  60.1728487  55.3681707  30.2719784
  59.0874767  55.8024931  29.3105578  15.1021504  59.9925137   1.9101858
  15.5560935  60.5976629   1.3237050  14.3100703  60.4617596   2.1721980
  57.3374510  69.0881729  32.3675585  57.4004650  68.3599138  32.9855371
  57.1031046  69.8420334  32.9088593   4.4773167  61.4675093  11.0048127
   4.4658336  61.7018270  10.0768065   5.4058141  61.4545536  11.2370992
  14.3235970   3.9406112  21.8904877  13.6815631   3.3022052  22.2010708
  15.0572550   3.8583028  22.4997520  68.3166316  73.7052846  48.8163710
  68.9608076  73.0415464  48.5699558  67.4788645  73.3460765  48.5242271
  77.2025776   4.3141735  34.1166735  76.4310598   4.8171741  34.3774128
  76.8734598   3.4263670  33.9762616  33.6248469  55.8138990   0.0711295
  34.1054177  55.9417629   0.8890143  34.2912292  55.8868361  -0.6121327
  63.4770870  11.6488492  27.6024079  63.2150507  11.6551447  26.6817927
  64.3490028  12.0437932  27.6059628  67.3232746  10.7535636  11.8997300
  67.0090485  10.5546212  11.0177350  68.2658482  10.8829725  11.7946672
   0.9876354  32.3929691  44.5239687   0.5603553  31.5383840  44.4661093
   1.2107027  32.6109791  43.6190128  35.3891063  63.8709307  13.8023853
  35.0501823  63.7650776  14.6912944  36.1767149  64.4044876  13.9083087
  74.3989611  66.0279226  60.2490950  74.1436481  66.7407513  59.6635008
  75.1199675  65.5916452  59.7951794  76.9517517   4.0228856  18.5396433
  76.0373116   3.9471030  18.2670915  77.4423981   4.0771487  17.7195501
  56.1566591  53.7265778  28.4180474  56.8971205  53.6609745  29.0210795
  55.9591675  52.8202677  28.1817651  53.6827278  67.2362709  41.3160276
  52.8494310  67.0165253  41.7326260  54.1250038  66.3944864  41.2063551
  52.3662567  71.9714022   4.6911317  51.8266344  72.5752544   5.2014297
  52.6226234  72.4741840   3.9180088  48.9922237  54.9675417  19.4129574
  48.8179159  55.1110840  20.3431439  49.6944809  55.5831861  19.2030799
  27.5326085  67.8078556  38.8048196  27.1196198  67.1216440  38.2806182
  27.7620125  68.4877968  38.1713510  65.8806467  36.5343928  19.6749794
  66.6317225  36.5444088  20.2682948  65.1264191  36.3877130  20.2458191
  69.4264174  21.5291810  25.4206228  70.0229979  20.7854772  25.5056310
  69.8498917  22.1043134  24.7833467  40.7513285  10.0775361  21.2474537
  40.8102608  10.5505085  20.4173613  41.4389849  10.4616666  21.7913342
  33.7585664  14.3846238  42.2200871  33.2614994  14.1487062  41.4368200
  34.4695568  13.7446618  42.2543383  12.3333275  26.4048052  29.3072581
  12.0700943  25.6899095  29.8867965  13.2858336  26.4444637  29.3932295
  45.8865690  42.4363756  12.3156559  46.6594315  43.0009079  12.3007429
  45.5708170  42.4386740  11.4120364  76.3532877  73.0980492  38.0295634
  75.8251381  73.1355906  38.8269877  76.2725258  73.9719391  37.6474333
  75.8991098   1.4947274  34.3079972  75.9782267   1.5242434  33.3545280
  75.9403849   0.5629063  34.5230246  46.1798096  66.3046837  20.5535340
  45.7586956  66.5356112  21.3815236  46.4843130  65.4063559  20.6820607
  47.9863214  57.7010965  -0.1108000  47.0594358  57.7965117   0.1083158
  48.3502722  57.1838474   0.6076892  73.8247919  67.0878220  24.4079638
  74.5538044  67.6409435  24.1271830  73.0419350  67.5700760  24.1419005
  65.2274370  63.4880638  18.4355414  64.3678665  63.3643055  18.8380933
  65.6230307  64.2050695  18.9311659  39.2418098  46.1169624   6.4382458
  39.7420287  46.9237089   6.3150555  38.3695054  46.4133215   6.6980320
  65.4940653  46.0231924   4.4168866  65.9835386  46.8457651   4.4216016
  66.0888433  45.3882694   4.8160666  22.6766634   1.6998982  14.4496512
  22.3279285   2.0385340  15.2742362  22.1118712   0.9566323  14.2379975
  75.3535986  66.4635706  62.4864721  74.9103165  66.4307117  61.6387367
  75.9523964  65.7169199  62.4727440  17.1547687  43.7865686  11.3670993
  16.5124333  44.2450714  10.8254230  17.5213265  44.4670868  11.9316900
  19.7112393  21.0215735  45.3273487  19.6921468  20.1093602  45.0379801
  19.8865640  21.5220165  44.5304489  62.4216127  68.6550856  22.3121357
  61.9507360  68.0677032  22.9033113  63.2619524  68.8069487  22.7445626
  54.0631533  57.0870304  31.0176086  54.7803068  56.4663219  30.8886051
  53.8317251  56.9968748  31.9420242  77.4268055  16.6174483   1.2274725
  77.7777004  15.7463348   1.4125803  78.1716919  17.2063386   1.3482358
  35.8530045  42.2070742  62.1883059  36.3822460  41.4206696  62.0552492
  34.9812365  41.9647551  61.8760014  56.4108038  14.6153390  13.1307161
  56.1205578  13.7571681  13.4398007  55.6195021  15.0235915  12.7794230
   0.8954306   1.7015231  34.2994428   0.8922663   2.6122913  34.5939302
   0.3552904   1.2404157  34.9412060  64.9329424  60.2887344  23.6682701
  65.1979065  59.3979025  23.4392738  65.6458426  60.8407450  23.3468819
  71.5011740  64.0313864  47.0326185  71.0308313  64.7945690  46.6971159
  71.3599205  64.0599298  47.9789114  56.5143728  73.2415867  31.4341855
  57.1035910  73.6463642  30.7976270  56.0458183  73.9772797  31.8284488
  50.5553055  23.2290006   7.4817276  49.8708200  23.4684658   8.1065214
  50.2018070  22.4695420   7.0185959  28.5194921   0.3582479  13.1813383
  28.8198161   0.5176202  14.0761209  27.5696707   0.2692444  13.2597709
  52.7619600   1.6051193  37.0537663  52.1113443   1.6838913  36.3561058
  53.5561037   1.3097465  36.6084361   9.8704600  66.7472839  64.5482635
   9.4885010  67.1366692  63.7616730   9.7628373  65.8041620  64.4251108
  61.1502552  51.0081053  16.7472005  60.5589867  51.7472363  16.6046655
  61.9181108  51.2089968  16.2121546  75.6746483  46.2788105  39.7196555
  76.1654902  46.3801670  38.9041615  76.3421726  46.0894060  40.3790236
  25.7377124  16.8160748  29.5278144  26.2891579  16.9662297  28.7599635
  26.2089682  16.1555982  30.0356722  60.9210443   9.3059713  36.3761520
  60.1759434   9.7311485  36.8007445  61.4246273  10.0268519  35.9980416
  56.7665577   1.4131291  37.9917693  56.9924355   0.4856504  37.9211068
  57.3899841   1.7636816  38.6279154  55.9428215  55.4395056  30.7002020
  56.0383654  54.7382593  30.0557184  56.1510277  55.0251961  31.5375948
  56.4498091  64.8339081  16.1863852  56.3238859  63.9085293  15.9765041
  55.5627537  65.1878262  16.2504554   6.7692274  54.8190117  15.1769841
   6.5932035  53.8821077  15.2633560   7.4622011  54.8728466  14.5188653
  19.2873883  64.2785883  14.4592988  19.2610431  64.8059654  13.6609221
  18.9290094  63.4303522  14.1979682  36.1039948  59.2252779   1.7378248
  36.4163494  58.7137079   0.9915239  36.8737006  59.3265343   2.2977631
  43.3970594  62.8146410  13.8830054  44.2027950  62.3710394  13.6179900
  42.8552294  62.1217442  14.2605639  55.8496714  65.0553083   1.2592818
  55.7849503  65.6929779   0.5483504  55.7862902  64.2048168   0.8246839
  74.2043543  19.4729841  46.7665052  73.6943054  19.4601989  45.9566164
  73.6210203  19.8743236  47.4106169  37.5777006  58.1367493  19.8492134
  37.5074339  58.8925791  20.4323220  38.5103106  58.0807161  19.6410513
  47.9666424  73.8220978  50.7697296  47.1009350  73.9284086  50.3754234
  47.8739929  74.1823292  51.6517067  60.7757568   4.8866734  33.6454701
  59.9955320   5.4253590  33.7770152  60.5636358   4.3383008  32.8901386
  27.2489572  35.1793027  13.5443914  27.9230595  34.7737241  12.9991174
  26.8722653  35.8631015  12.9905391  57.4772263  52.2022629  46.2428904
  57.9089451  51.3758230  46.4593267  57.3734283  52.1763372  45.2916908
  20.1436257  54.5000315  20.8398342  20.3356099  55.1834440  20.1977110
  20.7606649  54.6617794  21.5535069  78.7677860  15.9271824  18.6180902
  78.0500507  16.5231681  18.8322973  78.4201050  15.3757060  17.9172170
  61.0507584  49.3289661  22.2932959  61.3133049  50.0855112  22.8176451
  61.3554478  49.5330000  21.4091206  71.5433359  69.3207216  18.9485717
  72.4952364  69.2342043  18.9998317  71.2166595  68.8188076  19.6952975
   1.5967888  25.6493950  19.5245659   1.9054611  25.6652641  18.6186409
   1.3618639  26.5578818  19.7135019   7.3002356  10.0454974  51.0724640
   7.2451484  10.6127822  51.8414783   7.1881890   9.1603857  51.4192390
  21.2271792  72.4981084  21.6031647  20.8191163  72.3302083  22.4525905
  22.1671540  72.4932258  21.7838621  45.7643700  30.7883501  56.6865158
  44.8629141  30.9611297  56.9580889  45.8727169  29.8444033  56.8025112
  46.1545134  70.5175304  16.7040026  45.4975986  70.3100300  17.3685622
  46.0242605  71.4479542  16.5207756  22.1017766  54.7626591  22.7084637
  22.9171848  55.2201176  22.9135752  21.8895984  54.2811728  23.5080767
  41.7414427  72.5402403  35.7804585  41.8540144  73.3829451  35.3406715
  40.8313894  72.2993517  35.6072259  32.4003482  66.0024309  48.3232641
  33.2006764  65.5625391  48.0365610  31.8354917  65.9995794  47.5505018
  49.6619225  71.7159796  27.7903652  48.9348412  71.1767292  27.4792480
  49.8456764  71.3859367  28.6698771  72.2774315  56.9530439  46.5713120
  73.0655670  57.2465515  47.0283890  72.5948858  56.3156557  45.9316349
  64.2108297  48.6811352  20.0477505  65.1042986  48.8187838  19.7331119
  64.3156433  48.4376812  20.9675217  63.7858963  41.6734695  40.6761551
  63.1248140  41.9992685  41.2869453  63.3059978  41.5227652  39.8617768
  77.7061558  14.7095335  44.6777105  78.3852243  15.1180196  45.2145815
  77.3361826  15.4313481  44.1694403  75.3308535  41.1993313  36.4909625
  74.5328331  41.6085386  36.8255448  75.6656408  41.8206596  35.8443546
  66.0704231  35.8628774   2.7319214  65.4413176  35.2948737   2.2871432
  65.6574059  36.0669327   3.5709724  34.4069672  10.5272973  59.2998600
  34.2944503   9.8271483  59.9427938  35.2491069  10.3390253  58.8856268
  30.7173892  68.9296309   1.1830850  30.3209453  69.7236268   0.8244272
  31.2507623  68.5839121   0.4673859  26.5322733  70.1926327  41.8876934
  26.9028258  69.3144846  41.7995071  25.8477902  70.2319527  41.2197304
  66.0385513  57.5348616  23.2261181  65.3081465  56.9353580  23.3788919
  66.7468309  56.9738340  22.9101825   0.2506747  62.7740049  51.2019491
   1.1654209  62.5638437  51.0140514   0.0790180  62.3610735  52.0482683
  38.3853865  22.1522927  63.4240150  39.1680098  22.5251079  63.8298941
  38.1645775  22.7647758  62.7223444  58.4037781  17.8354251  38.3586168
  59.1559362  17.3106182  38.6326098  57.9421663  18.0357885  39.1728640
   6.1876297  59.8066521  14.1905963   6.3832271  60.5426979  14.7704303
   6.3057017  60.1587772  13.3083832  77.3324025  66.9351006  36.4640307
  76.7171191  66.3805771  35.9842801  78.0856984  66.3685274  36.6306782
  40.3261662  64.4100142  40.7557344  40.2570486  65.3496122  40.9248972
  39.4663548  64.0606022  40.9899759  43.3312416  40.0042868  50.6564951
  43.7830305  39.1825819  50.4643393  43.8914013  40.4412651  51.2979794
   3.3725074  57.2230721  37.3513126   3.5301757  56.4124680  37.8353524
   3.8810775  57.8847504  37.8201032  47.7754688  50.8425570   1.3037328
  48.5049582  51.3341475   1.6811068  47.9881477  49.9259186   1.4791530
   3.8290876  61.9229650  28.8855457   4.5204356  62.5847197  28.9043927
   3.9663208  61.4104605  29.6822500  32.3373771  24.8141479  28.6905313
  32.1674728  24.0078926  28.2033753  33.1845117  24.6660256  29.1108322
  68.8045692  52.9209518  14.3971300  68.0789566  53.5325289  14.5224059
  69.4458485  53.1706619  15.0624371   0.1170559  54.4381762  45.3704453
  -0.2561247  55.0225353  46.0303688   0.9433521  54.1422129  45.7523775
  77.8151178   9.1269368  41.6097689  77.7304983  10.0189900  41.2731504
  78.7013197   9.0897954  41.9696283  72.3565817  13.9620757  14.4316983
  73.0047989  13.7515998  13.7595785  72.2431183  14.9102843  14.3664384
   7.4164116   6.1251599  61.1562300   7.0362884   6.4980477  61.9516468
   6.8221450   6.3967168  60.4567051  24.6337700  48.8446665  18.0079222
  24.2716956  49.1583824  17.1792376  23.8685203  48.5825539  18.5197067
  57.9413939   7.8663319  29.7756195  57.1396065   7.4953878  29.4071507
  58.3014059   8.4056324  29.0715051  76.8834734  64.4588852  54.9802160
  76.1313105  64.7273731  54.4525862  76.6848183  63.5593367  55.2401829
  21.0034537   3.2585225  24.6892905  21.7015100   2.6759794  24.9886131
  20.9516931   3.9363164  25.3631949   6.5672135  40.2514362  39.7714567
   6.3120770  40.3734589  40.6859207   7.0288599  39.4129753  39.7614336
  53.6160755  56.2983418  22.4943447  53.9314795  57.2014570  22.5280285
  54.3532467  55.7752895  22.8093457  64.3480682  26.1178660  27.8925872
  64.2854214  27.0037031  28.2498002  64.5177507  25.5638266  28.6544776
  76.9363070  59.2803144  49.0480185  76.4796162  59.9627113  48.5560846
  76.2830353  58.9528370  49.6662617  43.3772659  54.0792847  10.1603770
  42.8139877  53.6397409   9.5233905  44.2523241  53.7330294   9.9854249
   9.4703913  66.6688967  47.1670151   8.8560963  67.4006891  47.1090937
   9.6842855  66.4631367  46.2569904  58.9130688  46.9419003  52.1016598
  58.2744265  46.3901615  51.6500473  58.9891005  47.7206850  51.5503454
  39.6236992  64.7704029  52.0150995  40.1899385  64.7183943  52.7851009
  39.6569180  63.8931084  51.6336775  19.0619588   1.0726388  18.7149286
  18.8585985   1.8369904  18.1758153  18.5692203   0.3575889  18.3122575
  73.4276247   3.2004324  51.6040277  74.3381453   3.3313847  51.3393736
  72.9229736   3.7537628  51.0078859  77.7475500  32.4813819   2.0999691
  77.0572662  31.8195963   2.0578519  78.5108709  32.0565152   1.7087349
   6.7589790  54.3785524  19.1426659   5.8942711  54.0466881  18.9010465
   6.8460697  55.1975584  18.6549401  73.9178801  71.3361740  25.2454495
  74.3222141  72.1630621  24.9827695  74.0015984  71.3208532  26.1988592
  55.5176353  58.7475348  34.5093369  55.4716778  59.3660498  33.7802601
  54.8015976  58.1331921  34.3477464  41.9620371  70.7567120  19.1535473
  42.7502060  70.7003260  19.6937692  41.4482307  69.9871349  19.3984687
  46.4248085  61.8042755  26.5205288  46.9576740  62.2564220  25.8664274
  45.7789516  62.4552917  26.7948890  38.6924577   8.5302633  11.8915319
  39.3036461   9.1704357  12.2560310  38.7355423   8.6696458  10.9455144
  16.2088263   6.1438519  50.4998922  17.1257973   6.2585258  50.2503967
  16.1497498   6.5239763  51.3763857  13.1005871  73.9177561  35.6210613
  13.3636725  74.8337412  35.5317092  12.3477232  73.8267279  35.0369859
   3.7894037  16.6542566  13.6361599   3.2402804  16.0477483  13.1393266
   4.4176373  16.9880688  12.9957509   8.7638611  51.9643021  56.7072964
   8.2817447  51.2334013  56.3205433   9.5735937  51.5714121  57.0331860
  69.2923260  65.4950809  38.8285184  69.5574093  65.1513672  39.6816444
  68.7128687  66.2283707  39.0352702  65.6785345  56.4498615  20.1565218
  66.4578485  56.1623621  20.6321669  64.9628067  56.3440466  20.7832360
  42.8126478  14.0032208  59.6596909  42.4456120  14.6069038  59.0138721
  43.5915852  13.6432648  59.2355204  34.6283007  60.1255512  27.8305554
  34.8425603  59.2192888  28.0519414  33.7347364  60.0840473  27.4898934
  47.9331923  68.9696074  23.3774447  47.5767612  69.7252893  23.8444948
  47.1624327  68.4775305  23.0945492  12.1569574  45.7553101  17.9612017
  11.7782390  45.0492859  18.4849703  12.6762342  46.2636757  18.5842180
  59.9489975  65.2109098  25.2392507  60.8607340  65.3329229  25.5039811
  59.5137310  64.8798990  26.0248733  33.8858926   1.3933346  18.6058939
  33.8907199   0.5052730  18.9630413  34.7566300   1.7367670  18.8061559
   1.0220528  55.3012419  15.8679855   0.4089702  55.3594589  16.6007698
   1.5629959  56.0871458  15.9452641   5.7007474   1.5394346  34.1158414
   4.9987137   0.9511016  34.3937707   5.6720448   1.5115750  33.1594777
  21.8081665  60.6477261  38.3566904  21.0411239  60.6679821  37.7844429
  21.6096139  61.2816095  39.0458965  77.1415997  26.6962790  38.7662125
  76.2452459  26.3672185  38.6991262  77.1240807  27.2872472  39.5189929
  68.7358284  26.9033957  51.0950375  68.0192184  26.4402223  50.6612492
  69.0554047  27.5204539  50.4367542  75.4522705  73.3996105  16.4010763
  75.1948881  73.4379244  15.4799259  76.3777685  73.6439180  16.4015245
  46.5302896  38.4707093  62.8055525  47.4323845  38.7416458  62.9760075
  46.5363359  38.1776690  61.8943357  34.0736914  56.2689304   6.6671509
  34.6085405  55.5261660   6.3870311  34.7072053  56.9570589   6.8705511
  67.0383739  54.0642691  33.9874935  67.5946569  54.2586851  34.7418022
  67.6262522  54.1244650  33.2344961  34.3363142  64.0399551  50.9814548
  33.8798451  63.2634640  51.3053894  33.8212967  64.7759151  51.3121319
  73.9801598  54.5293951  36.2000251  74.0892982  53.8355827  36.8503690
  73.0601597  54.4731092  35.9418440  18.6637807  26.3240170  34.7862768
  19.2745018  25.6926227  35.1665282  19.1183674  27.1641064  34.8481870
  56.0768986  51.2138081  14.1606688  56.9999170  51.4486122  14.0650725
  55.9334517  50.5334711  13.5027933  55.3998709  61.1730003  63.3712959
  55.5798101  62.0947886  63.1864929  54.9237156  61.1836958  64.2015934
  33.1869674  59.5156336  13.1435001  32.2329879  59.5883608  13.1140649
  33.4111667  59.6751928  14.0602922  20.1440024   3.1522995  39.3016505
  19.4456458   3.5538524  38.7846541  19.8549521   2.2494826  39.4343257
  30.7675982   7.0120007  44.8036242  30.9781480   7.6514691  45.4840469
  29.8152852   6.9242024  44.8438835  61.9396353  70.2806091  35.6485295
  60.9945059  70.1519585  35.5684280  62.1795607  69.8048973  36.4437437
  16.0699499  64.8878384  50.4991102  16.1365521  64.0473270  50.0459671
  15.1812363  64.8985767  50.8545017  73.4490871   6.2647814  42.5935650
  73.2751942   7.1791923  42.8168297  72.5895119   5.9033984  42.3773146
  56.3790512  59.3455172  39.9710345  56.1948967  59.4686460  39.0398216
  57.3178577  59.5129490  40.0537109  24.4958806  30.6945276   5.5261809
  23.8123250  31.3364887   5.7182002  24.9534011  30.5756092   6.3585049
  19.0017915   0.9845213  21.4221859  19.4681609   1.7551234  21.7460752
  19.1146994   1.0179413  20.4722571  37.0620305  36.5763529  62.3094782
  37.8756101  36.5284689  62.8115022  36.3889319  36.7695244  62.9620538
  72.4319983  57.6101160  58.6235857  73.1431866  56.9891262  58.4660530
  72.2910452  58.0327845  57.7764034  63.7259960  49.7627068  39.3399572
  63.0244112  49.3022823  38.8795066  63.4030581  50.6588888  39.4337893
  54.2431068  68.9778233  14.1206896  53.5246611  68.6570883  13.5755289
  53.9775467  68.7662745  15.0156534  78.0724239  51.7816162  61.2787056
  78.4497261  51.0355663  61.7448425  77.1495819  51.5529156  61.1678123
   1.1896670  18.9392483  27.1967840   1.0464718  19.8428249  27.4783468
   0.3250259  18.5320234  27.2496533  39.2488241   1.0734238  38.7877274
  39.5463777   0.3255847  38.2696247  39.1728735   0.7323779  39.6788788
  36.3596398  73.7010035  56.5766096  36.2838132  74.5510173  56.1430645
  36.4687592  73.9137577  57.5034618  32.6400185  10.4403579   8.9671141
  33.5824132  10.4358733   9.1347474  32.2455764  10.6149697   9.8216075
  29.5296407  65.7673120   9.1680819  30.0503588  65.1079607   9.6267098
  29.8727512  65.7644272   8.2744938  10.5978286  33.4054184   2.3171329
  10.2363944  33.8627362   3.0763811  10.4844654  34.0192580   1.5914747
  37.7016306  73.7880230  22.3544550  36.9281888  74.2239332  22.7122259
  37.8927779  73.0884743  22.9792190   6.3605607  17.4171150  32.5913906
   7.2234994  17.8105617  32.7208853   6.3410670  17.1825385  31.6635847
  49.0926695  46.2804890  11.0696304  49.9689341  46.5643740  10.8092499
  48.9711380  46.6501570  11.9441628  69.7660255  28.3093429  23.8362694
  69.4845390  29.0268993  24.4038153  68.9538670  27.8681564  23.5873079
  70.0651026  58.4386301  21.5512776  70.9992218  58.2700825  21.6747355
  70.0265980  59.3283129  21.2002516  54.5299911  71.5584612  13.3832574
  54.7258520  70.6420088  13.5781491  53.9427137  71.8328905  14.0875518
   4.6845949  13.7916362  29.4079638   4.0650424  13.3189702  28.8521099
   5.0400907  13.1226540  29.9930406  11.5482354  19.6742117   4.4866920
  10.7889414  19.4286239   3.9581183  12.0804632  20.2160525   3.9041319
  46.9398403  54.9151278   8.7195152  47.6628351  54.4702864   8.2772231
  46.4336920  54.2087793   9.1209120  57.1317196  61.8950987  19.4779003
  57.9772091  61.7528057  19.0523052  57.2251558  62.7388811  19.9200916
  62.0595932  65.4056215  28.3183479  62.3177099  64.9272251  27.5304723
  61.1867571  65.0720263  28.5259438  20.9863257  27.8665662  35.3895688
  21.1544728  28.6181903  34.8212194  21.4145660  28.0905223  36.2158155
  54.4704723  10.4608417  14.4472492  54.8584223  11.2691092  14.1119456
  53.7074518  10.3117812  13.8888490  55.3006220  60.2193403  17.8692400
  55.9907341  60.8633757  18.0279660  54.8682356  60.1177168  18.7171459
  66.8582487  69.3370628  37.6397896  67.2100830  70.1180267  37.2125483
  66.1310434  69.6616554  38.1708670   4.1412616   0.7504673  11.6903365
   3.9525837   1.5498784  11.1988342   5.0760156   0.8062687  11.8887115
   1.0955715  11.0808098  33.5984993   1.8678096  10.8568549  33.0791497
   0.8212750  10.2513969  33.9897370  66.0152197  50.9677219  29.6432757
  65.6804228  50.0857544  29.8053861  65.3193283  51.4009857  29.1490602
  64.6992302  54.8522520  35.2617812  64.1536093  54.5086050  34.5543647
  65.5932045  54.7939730  34.9246669  11.4736891  23.1261587  25.6728959
  11.8507755  22.7559972  26.4710283  12.0509791  22.8228164  24.9722171
  65.1446915  22.6566958   6.8538666  65.6711912  21.9985747   6.4000982
  65.7029963  22.9573035   7.5709152  69.7998714  64.5930433  21.0857821
  70.5682230  64.8563433  20.5792880  69.4585323  65.4115152  21.4460945
  18.4278858   6.5850234  49.1095591  18.8076305   7.1148866  48.4086514
  18.9760172   5.8009291  49.1408730  61.7259026  50.0263453  19.3817616
  62.6618147  49.8303795  19.3381274  61.4882708  50.2610731  18.4847307
  21.0285664  11.7242193  13.4352148  20.6510973  10.9656572  13.8805592
  21.7115951  12.0353341  14.0292764   0.3192576   1.6607183  44.1354704
   0.2046117   0.8661620  43.6141539  -0.0776853   2.3531874  43.6071205
  14.8511231  19.7801805  20.9805512  15.2227354  18.8993001  20.9338069
  15.5668533  20.3565955  20.7127666  47.8970909   7.5762844  20.6026745
  47.0570183   7.8187817  20.2131844  47.7357388   6.7248565  21.0092068
  24.0440392  34.3203688  30.9477997  23.2191610  34.1859436  31.4144206
  23.7810159  34.5253205  30.0505543  52.8348112   9.9451351   1.6587682
  52.0999479   9.6820343   2.2128323  52.7845812   9.3619210   0.9014244
  56.6167688  32.9449940   8.6203706  57.5370646  32.8054500   8.3971858
  56.1713552  33.0023956   7.7750623  11.9748974  31.5484905  47.0862293
  11.0730720  31.4158583  47.3783779  12.4447393  30.7763386  47.4012899
   3.7739685  45.2015638  44.1042662   3.8200530  45.6886101  43.2815266
   2.8373563  45.0738287  44.2548418  24.9854612  72.5029087  18.4713113
  24.8418713  71.6695833  18.0227745  24.8287201  73.1665802  17.7995968
  68.5621500  49.6064997  34.1847825  68.5415602  48.6503744  34.1443968
  69.3079853  49.8533154  33.6379337  14.2297900   3.5494062  18.8474393
  14.7254634   4.3589258  18.9707994  14.1024780   3.2092008  19.7330368
  74.1245747  70.9397173  16.3669789  74.7175550  71.6896343  16.4142466
  73.5710669  71.1195803  15.6070375  59.9730730  57.0025206  41.6237450
  60.4044342  57.3577929  40.8466101  59.1429090  56.6541052  41.2986755
   4.8301497  62.1385288  59.8279762   4.2735910  62.7775669  59.3828869
   5.6301481  62.6212740  60.0358105  30.6099486  59.3092918  54.6068668
  29.9374437  59.9725485  54.4517374  30.1717424  58.4773874  54.4275951
  32.8383517   2.4908331  35.9252357  32.2331119   1.7669396  36.0861611
  32.2781682   3.2656148  35.8789706  77.4053049  45.9297371  18.8568735
  77.2068310  45.4955006  19.6864974  78.3251953  46.1831141  18.9332187
  56.2369251  56.3283110  27.0686507  56.3798380  55.4583883  27.4415445
  56.1396313  56.1731434  26.1291361  18.3087444  26.4766717  16.9648516
  18.0687892  26.4488101  16.0386348  17.5475550  26.1170840  17.4203932
   3.7004262  68.3089209  15.9955287   3.2845247  67.6070404  16.4961553
   4.2999086  68.7230873  16.6162694  74.2274857   2.3438363  39.8796892
  73.6613178   3.1126446  39.8117542  74.6396637   2.2730888  39.0186787
   5.5635363  20.3409076  31.0208845   5.2284777  20.5078697  30.1399231
   6.1754012  19.6131265  30.9104800   4.5954967  41.1715269  41.6991997
   4.6574566  41.5255594  42.5863600   4.2471981  40.2878571  41.8177462
  64.2504692  19.9768376  34.6131206  63.7720394  19.2500579  35.0120258
  63.7133169  20.2347112  33.8639879  45.4789734  70.9104872  40.7505035
  45.4004574  70.0086737  41.0616302  46.4035988  71.0053015  40.5217934
  31.1625838  27.0823026  23.2288456  31.4960957  26.7548585  22.3935103
  31.4748192  26.4497948  23.8758969   7.6598364  18.6901033  30.0345492
   8.5077125  18.5995889  30.4694557   7.7042276  18.0842996  29.2947769
  33.2747459  18.6598599  54.5592022  32.8047657  18.1217432  53.9221954
  32.8678775  18.4470272  55.3990793  31.1610198   7.8994024  39.3464756
  31.8507242   7.4701983  38.8401890  31.0917282   7.3784828  40.1465225
  44.1971159  70.7290268  36.3715100  43.5440445  70.4218388  35.7427335
  43.7749958  70.6267977  37.2245026  67.6301289  52.4326658  22.5761580
  67.0144033  52.5999451  21.8626261  67.5111675  53.1712627  23.1732774
  12.2180808  36.3376665  17.6717937  13.1187940  36.1318922  17.9220021
  11.7122614  36.2144256  18.4750319  28.1794777   8.1601728   0.5193945
  28.4015360   8.7633003  -0.1899389  27.6067534   7.5108589   0.1112171
  19.6570253  18.0052471  27.3509932  19.9360287  18.3248556  26.4929485
  18.7392688  18.2688236  27.4179411  35.8165073   4.8381427  35.2632356
  35.4322791   4.1334945  35.7848406  36.3429570   4.3876040  34.6028590
   1.8784998  10.1646960  42.3946762   2.6459950  10.3766418  41.8633938
   1.5801626  11.0092878  42.7321529  43.1565666  61.1902428  31.6257715
  42.7358246  60.8790016  32.4272323  42.4676466  61.1500216  30.9624410
  36.0785556  35.2634978   3.6238772  36.1008191  34.3159986   3.4897691
  35.1468349  35.4828095   3.6292338   7.8072917  48.5284519   8.7070632
   7.1224564  48.0074263   8.2878190   8.4593272  47.8860760   8.9871305
  16.2503815  70.7375908  19.9058092  15.6456184  70.1747608  19.4223630
  15.7021451  71.1737633  20.5580521  66.7639875  25.9706354   0.3415072
  66.5452051  26.5217566   1.0929266  67.4792910  25.4154372   0.6518754
   8.2813632  73.2699633  19.7948420   9.1743320  72.9388714  19.8908460
   7.8830445  73.1375599  20.6551003  17.5580645  50.3853369  29.2982841
  17.9200816  49.7412348  29.9068165  16.7400599  49.9930573  28.9929676
   0.4272319  53.6580563  48.7976885   0.1727078  54.2771626  49.4819069
  -0.3969778  53.4148788  48.3760500  60.2541256  14.9293339  34.4076610
  60.9637928  14.5655203  33.8782835  60.3936529  14.5617640  35.2803922
  42.0907688   4.5222193  24.0330172  41.4620018   4.0734139  23.4678149
  42.9463243   4.2846739  23.6754918  36.6378856  25.9968305  28.4361148
  35.8368015  25.4810238  28.3442354  36.6789675  26.5200782  27.6356435
  76.5795088  52.6592159  37.6035929  75.7261086  52.3014212  37.8483796
  77.0840502  52.6530600  38.4170008  34.6149302   4.4446379  18.3458626
  35.3318834   4.3233159  18.9683497  34.2931008   3.5593688  18.1756949
  47.4875116  64.4459009   4.5162964  48.2201099  64.2706728   5.1069111
  47.4966478  65.3957987   4.3986133  57.7837324  63.7816238  11.2579226
  57.6928234  63.1566238  10.5386591  58.7071037  63.7300253  11.5048003
  38.1165385  72.3112583  26.9771457  37.9311061  71.9338799  26.1172414
  38.0990386  73.2572842  26.8323588  59.8212528  23.9718747  20.9760785
  59.7802925  24.3335104  21.8613887  60.3125191  24.6222496  20.4741788
  44.2389891  72.9620801  64.0115389  43.5982821  73.5604988  64.3957519
  44.8418579  73.5314284  63.5333953  16.0190165  39.0627193  22.7123857
  16.9618618  39.2268682  22.6942444  15.8932948  38.3225536  22.1185994
  37.4598742  34.6527791  21.9907737  37.3437476  34.6654916  21.0407305
  38.3989978  34.5159173  22.1154666  73.4042072  73.4378433  37.3062348
  72.7887678  72.7275085  37.1248651  74.2645550  73.0184793  37.2933173
  62.3500395  23.6043978  18.1375372  62.3577356  22.7226353  18.5099161
  61.6520548  23.5818505  17.4829066  14.4011974   1.7230724   4.4026926
  14.5101452   2.5302613   4.9054930  14.5235884   1.9900182   3.4916538
  24.7896647   8.7555313   1.0311885  24.6133566   9.1083533   0.1590279
  24.6381140   9.4925576   1.6228446  38.6539173   4.9412665  34.3152523
  38.0896592   4.7758994  33.5599375  39.1388440   5.7332230  34.0831280
  75.7736306  65.1617718  35.2086568  76.4131502  65.0727510  34.5020294
  75.7750403  64.3082380  35.6419063  11.0250187  27.0998812  33.0124164
  10.6316531  27.0785284  32.1400404  10.6881630  26.3159752  33.4462976
   6.4289415  22.5801373  22.6509380   7.1683276  22.1094990  23.0356956
   6.0982513  21.9924021  21.9716406  39.2747808  70.0619173  30.4947710
  38.4898567  70.1548862  31.0346603  39.1495013  70.6866074  29.7804189
  75.2589512  60.7996893  57.5843096  74.9355793  61.3953114  58.2602501
  75.8425331  61.3381863  57.0498085  78.2686428  65.6843281  18.4344518
  78.0205004  65.3141594  17.5873208  78.1002044  66.6222954  18.3445621
  42.7256250  24.6303868   6.0742480  42.2855616  24.5722580   5.2261943
  42.1007967  25.0870633   6.6375142  36.2961507   9.5318592  35.5640006
  36.9162273   9.1689712  34.9315071  35.4752398   9.0733844  35.3847241
  25.2633834   3.9956883  32.5018620  24.9662161   3.1960309  32.0677280
  24.5279622   4.2540801  33.0573988  29.7023726  14.7258294   2.3625913
  29.9439025  13.7996590   2.3523594  30.2119708  15.0983107   3.0821744
  20.7363176  44.4759560  27.6841402  20.3180313  45.0973034  28.2801223
  20.3526306  43.6293602  27.9128075  76.9087791  11.9385767   1.4992967
  76.3275242  12.1530104   0.7696456  76.3290691  11.8828917   2.2589469
  55.5275965  16.9086170  17.0519710  54.9099684  16.9767463  16.3238716
  55.0949144  16.3298750  17.6797259  30.3557420  12.3695719  56.0086584
  31.2711573  12.1627402  55.8203363  29.9607849  11.5267169  56.2318993
  41.0704708  33.8858151  24.7558713  41.2136221  33.0271101  25.1538253
  41.1044168  33.7217069  23.8134551  30.4831862  13.8342857  50.1877403
  30.8564401  12.9564106  50.1086855  29.8155570  13.7502718  50.8685064
  25.5781484  24.6286917  37.1332359  26.1855650  23.9542389  37.4371910
  24.8697019  24.6206522  37.7768755  29.8440886  15.0961471  30.4346752
  30.6614470  15.0702763  30.9321547  29.9873185  14.4909596  29.7070312
  20.1946640   0.4339982   9.3075770  20.6507134   0.9725428   9.9542749
  20.8605552   0.2346515   8.6494881  63.3491707  72.8450441  31.2042737
  62.5546646  72.8978968  30.6730509  63.6398649  71.9378519  31.1108255
   1.6175465  65.3379345  20.3190374   1.3729094  66.1643553  20.7354665
   0.8442173  65.0858879  19.8143935  24.0216851  41.4330006  13.0386376
  23.6154127  41.9036102  12.3108327  23.8304090  41.9699574  13.8076150
  17.6303196   8.2669008   8.9535022  16.7919922   8.6933374   9.1312408
  18.2536006   8.7168688   9.5238364  69.7192287  29.1901803  17.5740755
  70.2059412  28.6363339  18.1844831  69.0147829  29.5665312  18.1016612
  20.2202463  65.7550764  34.3527389  20.6360316  65.1483727  33.7401485
  19.7709179  66.3892078  33.7939787  61.6042280  34.6092653  55.5779505
  61.6680956  33.6893129  55.3213549  61.2401342  35.0477028  54.8088932
  60.7965755   6.2917501  28.9455438  61.1521864   7.1170866  28.6160111
  60.9045029   6.3465834  29.8950577  39.4354296   2.8518412  18.7112033
  39.7190094   2.7020669  17.8093266  40.2475977   2.8724208  19.2173612
   2.7191144  57.7175379   9.7852260   3.2132795  58.2152176   9.1338050
   2.3297426  58.3841801  10.3510964  16.2210453  39.6663690  10.1026940
  15.4175413  40.1857281  10.0730014  16.7462337  40.0767422  10.7897198
  19.4649088  52.6934576  18.8192916  19.5993054  53.3120918  19.5372438
  20.1930404  52.8595304  18.2205629  31.3244343  63.8570642   9.9521327
  30.9950829  63.3404160  10.6875479  32.2362900  63.5823488   9.8557675
  41.3039827  11.9499624  49.8423624  40.7985067  11.9697905  49.0297556
  41.6152143  11.0472202  49.9088669  64.8433971  43.8749266  39.2883658
  65.3714418  43.6074972  38.5361147  64.6436453  43.0569935  39.7436929
  30.8913565  28.1183577   6.4334756  31.5201950  28.8389826   6.3948250
  30.8099675  27.9212880   7.3666269  17.6719272  70.3735495   3.7565258
  18.4160089  70.7724619   4.2075700  16.9462109  70.4524326   4.3756744
  29.8680973  13.5714221  20.7502842  30.2318287  14.1666317  20.0948024
  30.0505900  12.6967168  20.4070330  15.1811182  73.6248016   6.5882367
  14.5150292  74.1281223   7.0564502  15.1700354  73.9810419   5.6998664
  66.4054871  56.7352819   1.4175093  67.3563862  56.7708015   1.5212178
  66.0616159  56.9701815   2.2793713  75.6304455  22.9322100   6.5676343
  75.6299734  23.1085849   7.5084442  76.5013695  23.1998348   6.2742126
  35.3826761  61.6287374  30.0829363  35.0179172  62.5122166  30.0314736
  35.0958419  61.2037325  29.2746496  11.7848372  14.8959255   7.3401010
  11.8431175  15.8332336   7.1549314  11.2730432  14.8426044   8.1472290
   9.2019618  68.8271856  43.3267450   9.3184334  67.9069853  43.5631847
   9.4495136  69.3102407  44.1151667   5.7164198  66.1630201  49.8286438
   4.7878271  66.3137913  49.6519661   5.8508885  65.2365971  49.6289253
  13.4667087  29.1390753  50.2155638  13.8655972  29.3011451  51.0704613
  13.3482635  28.1898022  50.1826191  32.6482296  27.5067854  10.6862509
  31.8300319  27.9748082  10.8528078  33.3206201  28.0427408  11.1068106
  52.1334887  30.3259921   8.4423935  51.7727947  29.7865415   9.1460449
  52.7313328  30.9284687   8.8849211  47.3763657   0.6906629  19.4456649
  47.0517349  -0.1585490  19.1461873  47.7059889   1.1141454  18.6530483
  36.4387417  26.7757058   9.7338986  37.3400712  27.0297909   9.5357192
  36.2916327  27.0908237  10.6256902  57.5002098  47.7355051  62.3590803
  56.5448999  47.7093601  62.3049307  57.7578115  48.4048176  61.7251301
  29.6036386  36.8615532   3.4210756  28.8109279  36.4333200   3.0978796
  29.5478225  36.7815852   4.3732947  62.5807095  10.3275084  29.7250319
  62.1346283  11.0834908  30.1067805  62.7951622  10.6011379  28.8331962
  76.6573715  68.3746672   4.1651618  76.4053679  67.4647999   4.0074566
  77.0651627  68.3636045   5.0310791  66.8142414  24.4920897  56.5342331
  66.0378933  25.0405097  56.4213276  67.1536684  24.3719578  55.6473351
  76.0718679  15.7705855  38.5388446  75.9692478  15.7093644  37.5891328
  75.5500460  16.5335608  38.7874484  59.7453594  51.4291430   7.2084987
  60.5724907  51.9107914   7.1987134  60.0024939  50.5138254   7.3194468
   4.9598145  12.2907782  21.0176277   5.5531472  11.5626359  20.8332467
   5.5385774  13.0292356  21.2072229  53.9950657  29.8161578  16.9823694
  53.0453157  29.7146916  17.0449090  54.1268539  30.3660655  16.2100577
  69.2518139  68.5647583  47.5490379  68.6260748  68.1021452  48.1064177
  68.7454891  69.2790079  47.1621084   8.6769724  14.1672778  34.8288393
   9.1617233  13.4341514  34.4496655   7.7696991  14.0176034  34.5629740
   8.1566978  59.6515322   2.0898363   8.3769828  60.5381441   2.3755492
   8.8022548  59.4509459   1.4121550  36.9420671   8.7708604  42.5090837
  36.2542677   8.2872528  42.0516014  37.2783065   9.3845475  41.8559647
  57.4384880  67.0039797   2.5576895  56.9927120  66.4452744   3.1943735
  56.9697952  66.8529034   1.7368761  15.2404141  62.4033785  12.3849142
  14.7708833  61.6366434  12.0564508  14.7499526  62.6695728  13.1626165
  24.2874312   3.7340477   6.5333855  24.6540666   4.4253129   5.9820575
  24.3680525   2.9391778   6.0062104   3.7245983   2.2967689  53.5313702
   3.7022588   2.7111983  54.3939161   4.6504983   2.1059933  53.3812189
  71.3166666  46.9671917  64.0822983  72.2540712  46.9240046  64.2710781
  71.1185598  47.9035234  64.0657997   6.2886441  20.6486964  60.3367472
   6.9173294  20.0061941  60.6656504   6.0956848  21.2035680  61.0924721
  48.0798388  70.7588243  56.3986778  48.1741714  70.9835100  55.4730177
  48.2699680  71.5736866  56.8635178  12.9992330  69.8179293  39.6085405
  12.1043098  69.5703745  39.3760347  13.1393886  69.4272614  40.4710770
  77.0616722  71.7530203  19.3384278  77.6596212  71.4145899  20.0048757
  76.2545538  71.2543488  19.4653511  16.9544351  59.6355629  17.6874328
  17.5048864  60.2943182  18.1108427  16.1393654  59.6460915  18.1892109
  29.9945903  42.7864361  26.1435175  29.6592355  42.1039343  26.7248631
  30.1840091  42.3306847  25.3233695  49.6737909   6.9085777   6.4730024
  50.2769470   6.1666852   6.5180743  49.0248013   6.6502148   5.8185643
  78.5027266  59.3216324  14.9337983  78.7320137  58.9275455  14.0921605
  78.1310511  58.6009312  15.4424000   7.6212007  73.3340733  39.2080832
   6.7340166  73.2437112  39.5558906   8.1702954  73.4592427  39.9820733
  36.8251777  22.1124506  19.5768905  37.3429155  21.7954493  18.8368297
  37.1599078  21.6250396  20.3296304  11.4121664  73.4374762  14.1889834
  11.5354121  74.2548704  13.7063754  12.0069480  72.8178501  13.7664580
  43.1902409  40.8653498   9.5575392  42.7067089  40.5316257   8.8018572
  42.9225779  41.7816973   9.6275127  42.7518129  28.7000966  59.6404076
  42.1984386  27.9259658  59.5368290  43.5992575  28.3531690  59.9191761
  70.9621572  17.0872819  51.2682867  71.3647604  16.2435961  51.0625219
  70.6857586  17.4340129  50.4199886  18.0115557  72.6729345  49.7484446
  17.9790449  72.2144175  48.9088392  17.0936227  72.8172493  49.9782324
  24.7543573  43.2692862  17.9679549  25.3498125  42.6343155  18.3660495
  25.0720477  43.3653784  17.0701408   9.9645954  61.4666939  27.8493381
  10.2640510  62.0935965  28.5077810  10.0003612  61.9505453  27.0242095
  38.9508438  37.6726675  14.7222543  38.4800935  37.3342705  15.4839075
  39.3947601  36.9078779  14.3558288  20.4263973  13.9293933  38.7173295
  20.8571362  14.3099391  37.9519033  21.1446667  13.5978532  39.2562199
  55.3008080  24.8198795   6.2011367  55.9353209  25.3205705   6.7139095
  55.8031559  24.4870138   5.4574454  14.7341990  35.4810333   5.8850431
  14.8896420  35.3420472   4.9508309  15.3245389  34.8659110   6.3201898
  57.7273130  70.0084305  63.5336828  56.7932415  70.2041721  63.4600544
  58.1522036  70.8661509  63.5374069  31.6652846  12.8422201   7.5609463
  31.7198825  12.1805966   8.2505143  32.2097468  13.5632050   7.8771347
  30.5365777   3.7436861  16.9092715  29.9368906   3.8556427  16.1716580
  31.1597562   3.0803898  16.6127598  76.8273973  12.6364553  52.9247904
  77.5822401  13.1182492  53.2628965  76.1051941  12.8881907  53.5003614
  78.3099842   0.0094149  46.3854742  78.4209633   0.8220237  45.8919334
  79.1860676  -0.3751728  46.4137793  12.4009311  30.5744386  12.7812791
  12.3511231  31.2281680  12.0838618  11.4898849  30.4222250  13.0323911
  49.9027586  12.8810012  58.4575844  50.2493906  13.7553906  58.6351299
  48.9526129  12.9968071  58.4509850  69.4409323   3.9317310  48.1290436
  69.0766001   4.1572034  47.2730923  69.8822737   4.7299773  48.4193039
  34.4622326  42.9027700  12.1059799  34.5173287  43.7218189  12.5982761
  34.4183183  42.2221422  12.7775824  17.0108879   4.9369967  32.8723383
  17.8882718   5.3192639  32.8896666  17.0823717   4.1487798  33.4107018
  56.2464046  18.5663092  21.0637689  56.4062738  19.1148734  20.2958179
  55.5297232  17.9889214  20.8006668  65.2168179  70.6724405  39.2727590
  64.7952509  70.1302958  39.9395370  64.8268747  71.5391111  39.3870592
   5.0354034  67.4408102  11.5188336   5.0248736  66.9416142  12.3354864
   4.3345904  67.0550108  10.9932363  56.6494370   1.4709114  18.5514820
  55.8352184   1.9127738  18.7923908  57.3392439   2.0817268  18.8109052
   7.7116358  70.4426432   3.1655011   6.7757827  70.3548002   2.9846856
   8.1340855  70.2927876   2.3197398  54.5676517  38.3676481  21.0368013
  54.4164991  39.3102765  21.1063647  53.9710474  38.0797577  20.3458476
  42.1020842  66.6111231   0.0357144  41.3544464  66.1815453   0.4513282
  42.8677988  66.2082481   0.4451079  47.4605465  14.2973363  27.8056645
  47.9415894  15.0739944  27.5199485  47.1882343  13.8717318  26.9926834
  22.2681475  72.6451540  15.7941973  21.6906023  72.5002527  16.5436494
  22.8963089  71.9239426  15.8329260  25.3569603   0.3060081  42.6516008
  25.8843184   1.0797626  42.4530315  25.3421497   0.2652038  43.6078167
  22.4072886  22.0661116  29.1468787  22.4778247  22.8227115  28.5648036
  23.0962300  22.1996737  29.7978425  28.8401222  32.8543663  10.4456139
  28.9848089  33.2440662  11.3078392  29.4490385  33.3158231   9.8689765
  29.2423153   2.6614752  19.0510333  29.6384168   3.1911805  18.3591163
  28.5755968   3.2301989  19.4360912  59.6894693  57.0397997  49.4164801
  59.9026442  56.6069412  48.5897875  59.3115330  57.8799105  49.1564655
  42.5843287  20.5481315   9.3937594  41.8581820  20.7678699   8.8100976
  42.5481319  21.2126374  10.0817657  23.3398032  14.9904478  24.0146232
  23.9541006  14.7935009  23.3074570  23.7934971  15.6396699  24.5521212
  12.9706895  17.5232315  35.0495791  12.6422668  16.6489565  35.2593756
  13.3585930  17.4309254  34.1793823  35.0856161  35.3097486  20.6866908
  35.0341129  36.1174726  20.1756525  35.7405877  35.4937029  21.3600469
  29.7329330  61.8638372  19.8428833  29.2703843  61.1264133  20.2409887
  30.1684141  62.2976875  20.5766153  69.0281487  22.3741055  20.7296848
  68.3593130  23.0409503  20.5741072  68.5989666  21.7316699  21.2947583
  33.3791256  10.9602940  24.7106075  33.6802483  10.4365754  25.4530883
  33.6020589  11.8607664  24.9465799  29.8480296   8.3911800   5.6201887
  28.9439273   8.7021738   5.5742401  29.9276090   8.0148453   6.4966995
  31.4231801  61.9801760  61.8989325  31.1172509  62.8446579  62.1733665
  30.9238935  61.7904472  61.1046076   2.2941679   6.6880035  55.4713535
   1.4438871   6.6703111  55.0321054   2.7960333   5.9903347  55.0499058
   9.9307889  67.0430660  53.0131245  10.2628696  66.1577702  52.8641033
  10.3614855  67.5760794  52.3448229  44.1595178   0.4732963  16.9260430
  44.1884928  -0.3880432  17.3425579  43.7113469   1.0316154  17.5613809
  77.0827484  39.5094061  61.3783121  76.4173222  38.8238168  61.3199615
  77.1448088  39.8592210  60.4894876  63.5251379  23.5708714  21.5727091
  64.0584278  23.8370371  22.3217034  62.7273130  24.0942597  21.6486812
  54.5575857  17.6209390  25.2060056  55.5020428  17.4704778  25.2459407
  54.4553423  18.3362317  24.5782065  43.4238672  49.5138931   2.0955966
  44.1852427  49.0088987   2.3811029  43.2154322  50.0756550   2.8420648
  39.2759609  62.6196623  21.8504667  40.1068211  62.3865652  22.2646689
  38.9711452  63.3844233  22.3387909  21.3692236  26.0189438  32.7086711
  20.8739638  26.8360424  32.6512361  20.7377076  25.3390741  32.4737287
  29.4880390  16.9291067  40.1959324  28.9831877  17.1147597  39.4041657
  30.1980305  17.5709665  40.1832819  76.2137365  17.1608019  10.3533638
  75.2933025  17.1914947  10.6143141  76.6029882  17.9368114  10.7565069
  77.0793962  72.7513981  47.7410412  76.9324160  73.6283493  47.3866606
  76.7678928  72.1606588  47.0553112  44.8778200  12.2907865  58.6556387
  45.1817989  11.5345645  59.1575909  45.6426620  12.5658226  58.1500721
  57.0795965  20.4784179   6.7787600  57.9170132  20.9174180   6.9278973
  57.3016024  19.7126067   6.2491572  63.7866306  26.5948486  60.9241056
  64.2140913  25.7550764  60.7559061  64.4588709  27.1240616  61.3533592
  25.4270363  15.0322318  21.9974422  26.0141206  15.0942707  22.7509117
  25.7891321  14.3205202  21.4696312  59.7707081  20.0404692  31.5445757
  59.1592789  19.5716953  30.9765673  59.2373514  20.3267479  32.2860670
  26.1253071  38.6050677   6.3754237  26.2935209  37.9294443   7.0322871
  26.6354609  39.3590307   6.6712540  39.8482299  42.3119640  30.4887724
  40.1641607  43.0630016  29.9864149  40.4722404  42.2263241  31.2095428
  12.3511326  64.6013927   8.1899744  11.4035058  64.6939039   8.0916035
  12.6970470  64.7269201   7.3063350   0.4398006   3.0315921  21.6899776
   1.1846098   2.8227669  22.2537875  -0.0172751   2.1980050  21.5784144
  33.2286406  67.2741604  40.0819874  32.3044157  67.1564007  39.8625016
  33.3806515  68.2139301  39.9822187  40.0934362  34.1917992  20.7910061
  40.5351591  34.1909456  19.9418247  40.6659555  33.6765575  21.3593173
  54.5036268   2.6307485   2.5313601  53.5679913   2.4777701   2.3993939
  54.7256470   3.3156219   1.9005780  68.8156939  71.2423038  42.6679754
  68.5199976  71.8525648  43.3435345  69.1165686  71.8035364  41.9533205
  45.4489326  68.5106468  61.0878944  44.6693659  68.9579058  60.7585526
  45.3013086  68.4349155  62.0306063  16.5999973  45.3919649  62.9175425
  16.6860437  45.3708029  63.8706303  16.6110313  46.3232708  62.6966810
  67.3161602  28.7925053  37.9668999  66.7073059  29.4446492  38.3136511
  66.7632914  28.1881237  37.4716330  55.3301144  36.5969992  15.5102575
  55.5888748  36.7889571  14.6089101  55.7636929  37.2716975  16.0327733
  50.4768229  11.8284845   3.4815240  51.2892342  12.1284080   3.0737704
  50.2722359  12.5012195   4.1309872  32.0688438  22.9558110   7.2484875
  32.9442644  22.5958228   7.1060759  32.1087718  23.8368940   6.8765616
  38.2285738  55.7072115  15.9381485  38.8206506  55.1715899  15.4101455
  38.7107420  55.8688211  16.7490911   9.4434148  10.4871428   4.1013923
   8.4926552  10.5903566   4.1418311   9.7589368  10.8477020   4.9300507
  74.2365360  64.7281933  54.3963480  73.9826155  64.8508835  55.3110647
  74.2895079  63.7786484  54.2877817  75.3058243  36.0824537   6.8877435
  74.9743414  36.9125080   6.5451652  76.1892891  36.0099912   6.5265399
  66.7670584  57.9810476  45.8973742  67.6205349  57.5602484  46.0009766
  66.1478615  57.2539997  45.8323956  26.4837241   5.9219927   4.8042992
  25.8131456   6.5888059   4.9523374  26.8523622   5.7562643   5.6719816
  25.0908256  29.9971199  14.3053794  25.9232998  29.5955110  14.0565264
  24.4621587  29.2755151  14.2881489  65.9981441  26.1910701  41.5853882
  66.1010885  26.4096928  40.6591940  65.5616999  25.3391647  41.5833235
  18.0116713  69.2139149  34.3923473  17.5685084  69.5858955  33.6298060
  18.6651361  68.6197186  34.0233731  61.4710569  29.3109179  13.7490857
  61.1123896  28.5108805  14.1331863  62.3667669  29.3564916  14.0835357
  72.5148106  39.5799279  19.8765063  72.6554155  38.8736176  19.2459607
  73.0322456  40.3103113  19.5373404  24.4690759  73.8801968  32.2687888
  25.0243766  73.9216058  31.4902234  23.6019380  74.1412130  31.9586682
  21.2919903   7.6692820  41.6835499  22.1808124   7.8429961  41.9934702
  21.3384867   7.8010559  40.7366037  24.0541506  14.3722999  32.2021747
  23.2944369  14.0044451  31.7507863  24.8011899  14.1167915  31.6609907
  63.8420179  73.4498689  48.5043192  63.6231234  72.5590724  48.2308245
  64.6967640  73.6188803  48.1079912  35.6535816  15.5147243   2.1263929
  36.1138296  15.7311964   2.9372835  35.0413632  16.2392056   1.9977458
  47.9015064  27.1730399  62.8744411  47.7707386  28.0212760  62.4506140
  48.7730837  27.2325945  63.2656431  26.7928600   6.9968230  36.4617324
  26.7902851   7.6798177  35.7911015  26.9608545   7.4648678  37.2796202
  17.8070402  58.2881165  29.3228006  17.1527338  57.6579237  29.0211844
  18.2208383  57.8628063  30.0738764  39.9794483  29.8341203   6.7191869
  39.5594525  29.3427968   6.0131860  40.6689215  30.3360057   6.2844801
  39.1090536  55.8463573  11.9669271  38.5588646  55.3621292  11.3512611
  39.8872137  56.0794306  11.4605892   6.5900475  57.1031761  49.3157005
   5.8306879  56.5733910  49.5584679   7.3430383  56.5432978  49.5048428
  43.4293842  34.7399545  20.8736610  43.8642263  35.3106356  21.5072775
  42.7903509  34.2502761  21.3914299  69.9413347  69.5778370  55.1647902
  69.4176769  68.8790178  54.7727919  69.5563984  70.3853655  54.8242807
  67.2143126  47.5632858  50.5652142  67.0835257  48.3067894  51.1537123
  68.1629086  47.4366093  50.5465078  10.0156200  51.3114882  50.6511354
   9.6235144  52.0001316  51.1880302   9.2772120  50.9254217  50.1800346
  17.5240564  12.2529280  58.9209604  17.2253454  11.4052558  58.5916328
  17.8108716  12.7258325  58.1397247  40.3872776  27.0201969   5.1346046
  41.1058712  26.7796350   4.5498073  39.7572184  27.4664855   4.5688447
  30.9825158   8.0810064  19.9865448  31.8288350   8.5280114  19.9737740
  31.2007785   7.1587157  20.1206064  27.4011517  59.2525721  25.7050514
  28.0817580  59.7247314  26.1847091  26.7073846  59.8991156  25.5750585
  17.4977300   0.6020853  61.9179678  17.2408006   1.4186499  61.4896679
  17.9464671   0.1041195  61.2346745  18.3489788   8.8266152  32.0574045
  17.5388539   9.3276590  31.9631505  18.5607851   8.8867515  32.9889393
  10.4597700  24.5855284  50.2419472   9.6371019  24.3658805  49.8046780
  10.2832961  24.4399261  51.1714029  53.5505915   0.8724088  15.2861679
  53.9448404   1.7366622  15.1684141  54.2857742   0.3025305  15.5119479
   8.0896443  18.5872293  21.7708230   8.6708820  17.8582382  21.9875383
   8.6719590  19.3429613  21.6932940  13.4059048  25.4335403   9.6067202
  13.6211395  26.2314391  10.0896978  12.6569009  25.6774378   9.0629005
  60.3003740  46.0568094  48.6706543  60.8726454  45.4755497  49.1715336
  59.5198202  45.5313540  48.4949732  77.1151495  58.4608507  54.6631718
  76.2188005  58.6808252  54.4093943  77.1259117  58.5606813  55.6150913
  39.9613166  59.7293329   8.7238336  40.0326538  58.7851477   8.5836375
  39.3173909  59.8191833   9.4263428  32.5285298  73.2483873   6.1301970
  32.1216495  73.2474782   5.2637810  33.4551103  73.4173251   5.9594899
  57.9927778  23.3379149  27.7152109  58.3443022  23.4172845  28.6019802
  58.7657118  23.2411337  27.1589398  36.9359398  24.3607783  16.7605710
  36.8723392  24.4894099  17.7069545  36.8378997  23.4162641  16.6401088
  43.3175421  55.0115728   3.9077681  42.4061489  55.3021479   3.8736612
  43.3375740  54.3686008   4.6165839  48.3711529   4.6630591  32.6867127
  47.7668095   4.6843076  31.9447231  48.1701803   5.4570454  33.1821203
  35.4556489  37.6726532  25.1796317  35.6726742  36.8518066  24.7376513
  36.0376287  37.6968312  25.9392023  75.6977701  30.2122521  63.6662054
  76.2653732  30.7832718  64.1838884  76.2120676  29.4150758  63.5387659
  62.7809143  32.6749778  22.5148439  62.3376083  33.2728982  23.1166744
  63.3221197  33.2438493  21.9673777  30.1125622  61.7100239  59.0213299
  30.6421995  61.4035797  58.2852554  29.4076109  62.2145796  58.6154985
  78.5772490  69.9827671  41.3727093  78.2537537  69.7101545  40.5140638
  77.8251634  69.8797035  41.9557810  74.2001867  68.4074974  42.9925156
  73.6257029  68.3578682  42.2284889  73.8845634  67.7164364  43.5747957
  29.4782996  34.8033500  34.8497772  28.8848734  34.8591375  35.5987525
  29.2338729  35.5439854  34.2948484  27.7120495  10.6419969   7.8135175
  27.6768398  10.2108610   6.9596350  28.0094767  11.5311670   7.6207918
  33.8754034  66.9391346  31.9640660  33.8376760  66.5018320  32.8146982
  33.2838869  66.4323139  31.4077616  71.7206001   6.5612680  45.6402731
  72.4148893   6.8765402  46.2188864  71.9412756   5.6439030  45.4791021
  18.8781917  38.0644321  22.8592014  19.3238688  38.8533664  22.5506806
  19.3392038  37.8281760  23.6641145   1.2682016  50.5845642  49.4814062
   1.3530244  49.8326445  48.8951874   1.5846811  51.3267183  48.9663506
  34.5121264  58.5136127  20.5311966  34.3631458  57.8398180  19.8678422
  34.9972129  59.1990089  20.0716805   4.7094455  33.6265577   0.4055925
   5.3992548  33.0720056   0.0410791   4.7732272  34.4439854  -0.0883488
  77.4319410   8.0602956  11.6397703  77.4248219   8.0679423  10.6826282
  78.1968069   8.5842800  11.8777931  25.6188989  15.2332103  53.0093718
  25.2594805  16.1170006  53.0865860  26.0658693  15.2295303  52.1629429
  54.2370605  54.8290348  14.9390388  53.2813883  54.7943687  14.8975742
  54.4943476  55.2986288  14.1456175  74.9813700  38.7413096  43.9482307
  74.5059824  38.5504627  43.1396437  75.8764362  38.4500623  43.7742710
   2.6801941  28.3565760  63.1521320   2.8929994  29.1992927  62.7511597
   2.6229134  27.7483654  62.4152231  20.7567811  27.7399397   6.4094853
  21.1983037  28.4330511   6.9002867  21.2641168  27.6578093   5.6019592
  26.0464668  27.7886677  60.4138041  25.1240468  27.5331402  60.4227400
  26.5157247  26.9841814  60.1928234  31.0603404  13.0955124   4.4553256
  31.9447398  13.4282231   4.6081987  30.8627152  12.5742364   5.2334309
  10.2466118  29.9999714  62.3115969  10.8374858  29.2551041  62.4223709
  10.6502926  30.5252314  61.6206741  18.7747169   9.3333226  12.7202260
  18.8785875   9.4232517  13.6675143  19.6433043   9.0810901  12.4069118
  60.7625723  40.7716990   7.4615103  60.5827141  39.9996614   7.9980195
  60.0636816  41.3865185   7.6846248  47.0187473  55.3701019  64.0402031
  47.1278906  55.4626465  63.0937624  46.6936493  54.4774961  64.1576672
  60.4322290  42.1379709  21.2971044  60.2848148  43.0746889  21.1664724
  60.5754137  42.0471334  22.2391629  52.4156857  53.4160280   2.0000477
  53.1303310  52.8694582   1.6732801  52.1420574  53.9313650   1.2412407
  11.8103671  40.2432966  31.2470007  12.1613324  40.8144283  31.9302750
  10.8886206  40.1305437  31.4791727  14.2756391  72.8488350  38.3429265
  14.8515999  72.0861626  38.2897449  13.5120237  72.6093864  37.8177714
  57.2423506  44.4454670  56.6547298  57.6227427  44.9989605  55.9726906
  57.9246426  43.8032007  56.8501854  75.5125666  70.6867647  59.9100494
  75.1221752  70.6742334  60.7839298  75.1631498  71.4794970  59.5029736
  46.0897636   4.9212885   8.6932003  45.5458593   5.3774637   8.0510914
  45.8872318   5.3486490   9.5254111  68.0296087  56.2933779  21.3290191
  68.6952972  56.9271374  21.5963006  68.5211468  55.4928589  21.1451936
  54.6393728   3.4082988  14.9521017  54.9571514   4.0172306  15.6187737
  53.9010382   3.8620737  14.5456767  23.7555766  24.8331952  39.0542364
  23.8735795  25.0572872  39.9773240  22.8186679  24.6569133  38.9684391
  44.5536852  63.7132263   5.3068799  44.9225330  63.2575941   6.0635710
  45.3140354  63.9497328   4.7756845  19.4634414  15.5564165   1.3822220
  20.0200391  14.7781312   1.3557050  18.5749054  15.2194571   1.2673625
  31.6601396  49.5009851  28.3624244  30.8271980  49.9577761  28.4798169
  32.3162985  50.1072407  28.7061429  75.2227831  21.1035228  23.6714888
  75.5590439  21.8680096  23.2038116  75.0937796  20.4436135  22.9902291
  49.7251511   8.8569510  14.5407856  48.9739561   8.7074935  13.9666760
  49.7765541   8.0667704  15.0785625  24.6061468  69.0014505  24.2694879
  23.9450049  69.6892405  24.1915965  25.4411912  69.4691086  24.2544937
  74.7937918  54.6731806  47.8462458  73.9932919  54.1921329  48.0560637
  75.4853964  54.0121269  47.8766060  26.6196275  64.8567629  55.8974695
  26.3821459  65.7103872  56.2596273  25.8135486  64.3429375  55.9469652
  46.8809366   7.1379209   1.8990633  47.2331905   6.2480354   1.9150124
  45.9313440   7.0201111   1.9240722  62.4064016  41.1697721  29.2215276
  61.9791365  41.8326473  29.7639942  61.6849136  40.6567383  28.8575435
   4.6196046  72.7450085  63.4621477   5.4473948  73.0051184  63.8663006
   4.0384990  73.4922504  63.6041880  41.9402504  23.5413289   0.3266702
  42.3588896  24.2602468   0.8000946  41.0686445  23.8725114   0.1102297
  71.0850716  27.1534729   9.2206872  71.4471149  28.0051780   8.9762402
  70.5272722  27.3382711   9.9762923  38.7704468   7.7693093  17.3944235
  37.8140283   7.8062564  17.4058819  39.0128279   7.5588644  18.2961977
  53.2673216   8.2910913   9.9125701  52.8203392   7.6784575   9.3285161
  53.2801247   7.8474480  10.7606554  48.5957241  60.5526018  33.9171767
  47.6721239  60.3012562  33.9217496  48.9931488  59.9922180  33.2506537
  70.9422493  70.0413847  45.7190895  70.5567980  69.3407488  45.1929998
  70.5185699  69.9600887  46.5735579  58.0158186  55.1861238  32.5957227
  58.3640575  54.9771738  31.7289472  58.4226322  54.5447445  33.1782770
  63.8971949  33.8119745   1.5738307  64.1855383  33.1416130   2.1932730
  63.0619240  34.1198111   1.9256693  76.0408497  11.6286159  61.9912004
  75.9860229  12.1071148  62.8184032  75.1985550  11.1798525  61.9178104
  55.1380301  42.2384644  48.7128687  55.0633478  42.9875565  48.1216717
  54.7338200  41.5145779  48.2345009  20.8796787  60.2033854  51.1844015
  20.4747128  59.7220278  50.4629230  21.0386729  61.0779858  50.8294010
  61.8736744  35.7420588   9.5127296  61.4844084  35.2552748   8.7862682
  61.1562586  35.8566260  10.1359653  67.0767832  23.3788276  30.8787060
  67.6321173  23.8662028  31.4872265  66.6571808  22.7103496  31.4202809
  62.8689814  38.5257888  47.9523754  62.9291344  39.2065072  48.6226225
  63.5443830  38.7571192  47.3147583  53.5144520  59.9459743   2.5830001
  52.8597069  59.6387815   3.2100374  53.4796810  59.3092585   1.8691286
  53.3061981  28.4614348   0.8385550  52.5203419  28.1473279   0.3913388
  53.0228329  29.2558336   1.2911755  76.0364342  64.6851015  58.6225700
  76.6598320  64.5995951  57.9012537  75.1795244  64.5607471  58.2145643
  61.2131691  26.8891788  14.8924768  62.0935154  26.7106557  15.2231574
  60.6339693  26.6681004  15.6217813  22.7816010  69.5480490   5.5045152
  23.3703685  68.8051414   5.6374514  23.2999587  70.3124523   5.7559657
  22.3730183  62.4016190  48.2138872  22.6809764  62.3385859  49.1179991
  23.0559993  61.9733286  47.6978111  75.9693193  57.1118641  30.6221628
  76.9265175  57.1138859  30.6210732  75.7276917  57.7547455  29.9554157
  62.4888468  70.9311485  47.6975679  61.9537544  71.4412403  47.0895243
  61.9890642  70.1273251  47.8400993  35.7498574  29.4560766  20.9547830
  35.4864097  30.1467276  21.5629196  35.2705622  29.6504998  20.1493597
  30.6109977   3.1121105  39.2082047  31.0557842   3.4145314  40.0000000
  30.3941154   2.1976537  39.3897629  45.8000851  23.0105209   1.6734155
  45.2176905  23.2820725   2.3828606  45.6725168  22.0641327   1.6077834
   3.2439315   3.4007612  14.3547499   2.9011533   3.1309834  15.2067792
   3.9986360   2.8303903  14.2087007  69.5516586  36.9485688  55.1762962
  69.4626713  37.8933549  55.3015661  69.8394489  36.8534017  54.2683601
  68.1794739  49.7656775  28.0043221  68.0492258  48.8231850  27.8995466
  67.3150253  50.1021385  28.2404518  53.9664745  67.8272200  32.3409557
  53.0777597  67.4979067  32.4750161  54.3263674  67.9115868  33.2239008
  42.9777718  54.3295670  13.0222130  42.8016520  54.2064095  12.0894504
  43.8444996  53.9456749  13.1550336  57.1737480  27.6258707  15.5419493
  57.7062416  28.1629252  16.1286807  56.2968302  27.6500702  15.9249139
   6.3066572  13.8856268  37.1577263   5.6485927  13.2558656  36.8634748
   6.3544053  14.5298243  36.4513540  24.8996615  34.0642452  22.3489237
  24.5385671  34.9265647  22.1433830  24.9927783  34.0644455  23.3015823
  74.6308327  15.2691042  43.1634712  74.8713684  14.4049954  43.4976721
  75.3518534  15.5101967  42.5818920  39.5113492   3.5980195  12.0572591
  40.2167273   3.0015165  12.3079836  39.8408794   4.4675216  12.2844338
   9.9042159  11.8310845  29.4826937   9.8980927  12.7388036  29.7864056
  10.3053486  11.8716943  28.6145473  39.3857646  31.9235373   9.7151369
  39.1286564  32.6796436  10.2428031  38.5810208  31.4144206   9.6180677
  54.4225359  63.0522108  61.1136293  54.0857267  63.4842968  61.8985462
  54.0330410  63.5383034  60.3868246  41.2267017  47.7664423   8.7337041
  41.2975788  46.9704962   8.2067567  41.5344810  47.5069571   9.6021324
  35.2572894  26.2636304   7.3445308  35.6628203  26.5294051   6.5192193
  35.8042407  26.6644192   8.0201375  78.9507151  34.4525123  10.2077818
  78.1422806  34.2160869  10.6625021  79.1287994  33.7080097   9.6331221
  47.0704317  51.4215279   4.1108575  46.9628906  51.2308931   3.1790173
  47.7546167  52.0902634   4.1411209  72.3951340  27.8262472   5.3768325
  72.5713778  26.8858361   5.4050928  73.0185890  28.1676126   4.7357348
  45.3096104  21.8207812  19.7085345  44.5215130  21.5702224  20.1905632
  45.1750326  22.7435303  19.4925392  68.0140400   8.7446368  19.8474038
  67.6477337   9.6217465  19.7345781  67.6761198   8.2464033  19.1032231
  59.3093634  66.6644859  48.6616707  59.5156336  66.1079359  47.9107141
  60.1611423  66.9664383  48.9771461  55.5244923  73.6801386  18.2921183
  55.5320120  73.5107088  17.3500621  54.6013641  73.8202190  18.5029197
  35.9531498  72.8517056  15.5685723  35.1663661  72.7879477  16.1099946
  36.0701466  73.7909317  15.4257512  50.2267742   5.8697575  59.5309401
  50.6001139   6.7228252  59.7525835  50.8358526   5.2359933  59.9098825
  72.2506046  33.3365369  17.0178139  72.8339243  32.6955342  16.6115057
  72.0742130  32.9814434  17.8890347  21.5418959  37.3838091  57.5559950
  21.4916921  38.2296085  58.0013418  20.9601784  37.4755526  56.8013954
   3.3743790  36.9950223  31.6673565   4.1529799  37.0111918  31.1108041
   2.6430410  36.9225907  31.0540628  56.7622948  19.5985997   9.7490031
  56.8396807  19.6050322   8.7949580  57.6614571  19.6945941  10.0628877
  69.6529913  40.5886984   2.0056418  69.6502352  41.0376024   2.8510457
  70.4839754  40.8410883   1.6031483  20.6328535  72.2399950  29.8860502
  21.2001729  73.0104160  29.9150157  21.0948372  71.5826607  30.4063535
  49.4781780  60.1322460   3.4851447  49.6107388  60.0739193   2.5389645
  48.5350418  60.0182486   3.6023363  38.6815143  72.5012922  63.4534788
  39.3064189  71.9300556  63.9000368  38.5772324  73.2487917  64.0422106
  73.8139820  26.1233544  43.9692116  74.6950579  25.8006668  44.1584587
  73.3643913  25.3754997  43.5757494  13.9476764   9.4120908  43.1362343
  13.8366544   8.5971689  42.6465368  13.7873065   9.1675675  44.0476751
   4.7593436  14.2022824  51.6067982   5.2879775  14.2803550  52.4009514
   5.3873587  13.9694953  50.9229565   1.2666087   4.8642555  12.7896953
   2.0013005   4.4635814  13.2543671   1.5864566   4.9862581  11.8958020
  55.9290218  43.2556868   0.3283942  55.7192659  42.3219204   0.3460889
  56.2740421  43.4402609   1.2019639  73.3928967  33.7530041  34.6687889
  73.5062790  32.8062057  34.5854163  72.4660683  33.8655686  34.8798442
  65.5986786  57.8734589   3.8128328  65.3820038  57.4412870   4.6389759
  65.0901556  58.6842966   3.8261139  58.7802076   4.4223210  14.1383791
  58.4314489   4.8426503  13.3522975  58.7301350   5.0986469  14.8138857
  49.5584774  18.2749581  14.3879580  49.6490145  19.2143452  14.2280006
  49.9334240  17.8622842  13.6099160  15.1597631  69.1264296   0.8315182
  14.9335134  68.6162853   0.0538323  14.6696603  69.9427652   0.7334028
  44.9586487  73.0748796  23.8476562  44.0587234  73.3740568  23.9774990
  45.0461388  72.9835224  22.8988504  72.4648380  56.6910839  23.9171767
  72.3982430  57.3987722  23.2761073  71.5625858  56.3981915  24.0451908
  65.3002882  34.1049194  53.8868666  65.3258085  33.4113646  53.2276583
  65.6864691  33.7077403  54.6674728  72.3992443  42.3013210   5.6402069
  72.4845648  43.2188511   5.8992231  73.0870819  41.8494940   6.1290479
  70.1312733  41.6522884  22.8191209  70.4318190  40.8504009  22.3914790
  69.8222351  41.3642883  23.6780667   5.7300532  63.8759041  29.9490476
   5.4136175  64.7616625  30.1266289   6.2868965  63.6657095  30.6987000
  64.9043989  69.4309378  23.4130597  65.1590633  69.6978521  24.2963123
  65.6248951  68.8766479  23.1132603  41.2487507  14.4974136   6.1820662
  41.7917681  14.7259843   5.4276675  41.3980865  13.5605776   6.3096112
  41.7193127  62.0899868  20.0832844  42.3112726  62.0804882  19.3311357
  40.8648634  61.8595409  19.7185314  45.1702738  56.7067766   4.8525456
  44.5779848  55.9761381   4.6747923  44.8455524  57.4181080   4.3004590
  59.7783804  18.3501339  11.7533100  59.3000984  17.6064813  12.1199965
  60.0926399  18.0379093  10.9047902  71.0430384   7.4611330  11.4143896
  70.1691055   7.5013542  11.8027973  71.6381359   7.6235962  12.1463013
  31.3712907  20.5723524   8.0913430  31.3398075  21.4399028   7.6881105
  31.1114359  20.7212281   9.0004885   3.1494829  47.2717762  59.0104246
   3.1623176  46.4376831  58.5409975   2.5879335  47.8367233  58.4796429
  46.2988949  60.5506468  62.0597363  46.5105867  59.6183443  62.1069813
  45.4283381  60.6187487  62.4518156  71.8313408  69.3057966  50.5260468
  72.0692730  69.3349504  51.4527464  72.0248652  68.4077358  50.2572203
  48.7421465  16.1848879  61.8839025  49.1259003  16.1010349  62.7567911
  47.8441048  15.8696508  61.9857883  52.7557182  16.6446841  18.2775319
  52.6302290  17.1030819  17.4466562  51.9098091  16.7148936  18.7199521
  15.6147063  41.7983627  23.0595136  15.4839492  40.8539677  22.9743505
  14.8704457  42.1857166  22.5987911  37.7115679  28.6775684   7.6005840
  37.2123051  29.0650082   8.3195138  38.5369682  29.1622329   7.5937027
  21.5702081  50.6542015  61.7852449  20.9792972  51.3807058  61.9833469
  21.7930150  50.2866459  62.6405144   0.3310763  35.5428481  16.2361407
   1.1230289  35.3572130  15.7315779  -0.3661418  35.5826855  15.5815172
  28.6319375  31.6185164  20.0170541  27.8562045  31.9591975  20.4624820
  28.7461948  32.1942854  19.2609680  25.0125885  43.7604952   5.2932572
  24.1863060  43.4291792   4.9415165  25.6820202  43.4008169   4.7112575
  69.5373392  36.2463307  24.5300102  69.1976452  36.8526626  23.8718319
  69.4469357  35.3820086  24.1287565  19.0230858  58.8377762  58.0120611
  18.8339555  58.8502312  57.0738125  19.9564028  58.6321259  58.0655432
  61.9301033  42.0500469  23.5419393  61.8701887  42.1839190  24.4878340
  62.3981094  41.2205172  23.4466124  53.6753988  33.9024043   7.0800722
  54.2165852  33.2734060   6.6028810  52.7822018  33.5723925   6.9825184
  78.0525446  69.7729683  60.0000668  78.1900406  69.8193741  60.9462023
  77.1982336  70.1819611  59.8618460  69.2048120  56.3425589  16.1275268
  69.8623228  56.4042759  15.4346287  68.5146570  56.9483471  15.8574510
  29.8960066   0.5167414  52.7429628  30.2712536   0.9083286  53.5316849
  28.9710641   0.7615627  52.7707958  75.7698536  55.1986361  15.4976332
  75.1320410  55.2138042  16.2112105  75.6820297  54.3250227  15.1164198
  42.5649500  58.4110260  17.4632812  42.7367687  57.7046919  16.8405402
  43.1585217  59.1136456  17.1982658  20.3776431   7.8091139  55.6875038
  21.0771155   8.2451820  55.2008677  19.6577787   7.7384400  55.0605822
  58.1366825  16.3457155  21.9741654  57.4796391  16.9646430  21.6556430
  58.9157915  16.5329146  21.4505458  14.6979213  61.7608213   5.4162854
  13.9335966  61.2701702   5.1141268  14.6318579  62.6054001   4.9706912
  54.2575264   0.5212618  54.9194145  54.8334503   1.2340260  54.6428108
  53.9859772   0.1021308  54.1028214  69.3369150  43.1730843   3.4566545
  69.5001793  44.0284300   3.8540918  68.6111593  43.3248663   2.8512859
  54.4692135  20.1016283  14.1416287  53.9567757  19.7955334  14.8899245
  55.3316689  19.7047043  14.2635012  71.4917850   1.7698646  63.6590195
  71.0483360   1.5882775  64.4876385  70.8815861   1.4628036  62.9884958
  -0.1668306  24.4692826   2.3513573   0.7604889  24.3495965   2.1464576
  -0.5399509  23.5895729   2.2954732  58.4287071  55.2891064  57.6235294
  59.0258551  54.5997667  57.3329115  58.7547064  56.0828876  57.1994114
   4.1957742  27.6895523  17.8356528   3.8664377  28.2491970  18.5389078
   5.0374055  27.3684311  18.1593359  65.2999306  48.3820200   2.1763690
  65.5634403  48.2398033   3.0855274  64.4344521  48.7861729   2.2382720
  69.3231297  47.1536827  24.5279551  69.7461700  46.5773726  25.1644564
  68.5707903  46.6521978  24.2137361  55.6500530  38.0660033  25.9277987
  55.8250332  37.7611184  25.0374842  54.8203325  37.6513934  26.1642170
  68.5887194  44.1314745  36.0532618  68.7928581  44.9403286  35.5838799
  68.9173317  43.4351254  35.4846334  63.8447285  55.9257269  22.8090191
  63.6516905  54.9890614  22.7686787  63.6840439  56.1642838  23.7219834
  21.8891931  54.1082907  25.3951883  21.8867755  53.3047724  25.9153628
  22.7666855  54.4704533  25.5179644  61.3341236  27.0961761  37.4666142
  61.0887337  26.2384415  37.8134632  61.9687462  27.4368334  38.0970407
  67.2900200  61.9616938   8.6743736  67.2055912  61.0398197   8.4309518
  67.9616547  62.3045492   8.0848062  13.5838079   7.6303053  63.2810831
  12.9170942   8.3170539  63.2710552  14.2378342   7.9221410  62.6460123
  51.5355682   2.6935297  41.8703699  50.8722496   3.3272919  41.5972710
  52.1583891   2.6705867  41.1438751  23.6773849  62.5156736   1.2122756
  24.3147898  62.3818493   1.9137290  23.4035707  61.6322374   0.9657064
  73.8941050   0.4823301  12.9839432  74.0585184  -0.4476752  13.1397986
  72.9977131   0.5143708  12.6497507  42.6732445   8.6313236  61.4619684
  41.9826365   8.1788450  60.9776545  43.4288883   8.6132926  60.8746719
  40.5729771  17.0172584  64.0808773  40.6505585  17.7621472  63.4847593
  41.3271284  17.0982075  64.6647692   4.1900408  67.8042603  62.1515799
   4.4750640  67.0879459  61.5842295   3.3202997  67.5404167  62.4518585
  25.6530547  51.0770559   9.4675934  26.3744140  51.3059282  10.0536728
  26.0293484  51.1377621   8.5895568  72.0300770  66.8748856  28.1813955
  72.4651432  67.0509291  29.0156364  72.6348352  66.2998486  27.7125382
  63.5384846  32.4674463  13.4436429  63.1528139  32.6036048  14.3090618
  64.4526052  32.7329087  13.5443401  68.3686686  25.5548668  16.1440992
  67.8225517  24.7835064  15.9924674  67.7610207  26.2178540  16.4718890
  50.3586245  72.2687483  21.1760163  49.5644331  72.7910328  21.0632586
  50.0433683  71.4134884  21.4682102  51.3012123  58.2784319  22.6465917
  51.9897413  58.2400751  21.9827461  51.3927841  59.1477251  23.0366945
   3.4114859  47.7987766  22.0128584   3.3519608  47.8424072  21.0585070
   4.3501824  47.8367186  22.1962714  55.3560400  57.4252748  17.4074721
  55.3220177  57.6272821  16.4724493  54.9464226  58.1798697  17.8305972
  19.6604538  15.8839095  44.5937586  19.4912660  15.3513718  43.8165808
  19.8887837  15.2498484  45.2735138  69.9375296  37.8512597  27.0727634
  69.0546656  38.1041861  27.3426032  69.8008108  37.2379971  26.3506508
  31.2893176  62.6667976  54.0944719  30.5174899  62.1172428  54.2305088
  30.9365773  63.5469103  53.9632940  63.0773354  39.3728352  20.5358648
  62.2589064  39.5331073  21.0056710  63.4060717  38.5512686  20.9008217
  45.8066940  41.7705488   8.7414408  45.1136208  41.6110802   9.3821025
  45.4135704  41.5376806   7.9003370  58.8801003  11.3193691  47.5091648
  58.7322664  12.1766961  47.9083729  59.0125084  10.7292950  48.2511330
  63.7255144  38.6959124  25.2585912  62.9769945  38.7523723  24.6646500
  64.0668440  39.5892572  25.2993464  35.2412724  13.0161774  54.2565012
  34.8798132  12.1382475  54.3782282  34.6076417  13.4600377  53.6928225
  32.3545170   8.5179508  62.5746012  32.1066952   9.3391627  62.1498346
  32.1718121   7.8446513  61.9192219  56.9737816  43.8668776  10.2222347
  57.5723743  44.3387938  10.8012128  56.9571638  42.9753017  10.5701470
   5.3447473  25.9118176  13.8433313   4.5018476  25.5209756  13.6131287
   5.1218730  26.7775917  14.1853797  71.6843319  53.4561872   1.5771519
  72.4281597  52.8606796   1.4859411  71.0673809  53.1739902   0.9018977
  29.2841935  13.8940108  23.2487082  29.4652224  13.8737309  22.3090029
  30.1420283  14.0166676  23.6552906  54.7180367  31.2659645  14.6745968
  55.3555918  31.9430113  14.4479632  54.6141434  30.7562184  13.8711047
  74.2552567  71.8214321  28.1304765  74.8213339  72.5875616  28.0364871
  74.8150873  71.0801935  27.8994226  51.6618681   8.3612710  22.8859806
  52.5457859   8.6393446  23.1259751  51.7043161   7.4050194  22.8823471
  23.4120202   4.5968738  19.1921413  22.5395060   4.9780869  19.0940166
  23.9993405   5.2357739  18.7882924  10.7863653  48.7433672  57.2226572
  10.2619255  48.8683176  56.4317226  10.1682556  48.4007168  57.8682327
  78.2865797  25.7182707  -0.0866322  78.3291637  25.4135383   0.8197637
  77.5354682  26.3113369  -0.1048903  69.2040253  52.9304409  19.5671260
  68.8632393  53.1199551  20.4413009  69.4131851  51.9966269  19.5888484
  32.6848542  46.8972037   1.0770031  32.4463510  47.6265852   1.6491457
  32.5765716  47.2425763   0.1908728  31.5057468  36.9125366   8.2660824
  32.4177623  36.7031479   8.0645519  31.2174535  37.4569058   7.5334287
   2.7316362  38.5390909  64.2246481   1.8440611  38.2976826  63.9597634
   3.1026322  37.7324112  64.5822194  31.0503936   4.3539733   2.2820921
  31.2947083   5.1917291   2.6754203  31.6240120   3.7146729   2.7045709
   5.3658658  56.8805075  28.6858106   4.8488259  56.5489101  27.9516816
   5.3508216  57.8316212  28.5790896  46.9311523  60.6931210   4.2396653
  47.5158691  61.0375690   4.9147177  46.3801050  60.0603104   4.7002441
  77.5686407  48.8116360  60.2607107  78.3850908  49.3026829  60.1684570
  77.4296331  48.4143591  59.4010115  13.0842078  39.5773315  29.0105057
  13.7613118  38.9203858  28.8486886  12.6250422  39.2613745  29.7886896
  57.3914099  17.5002944  25.4701209  58.1580114  17.5920796  24.9043226
  57.6745796  16.9025254  26.1620164  34.1603661  18.6943412  37.7081609
  33.8356161  19.3970633  38.2711482  34.5170093  19.1457927  36.9431591
  20.0210309  28.6097193  58.6415100  20.3658605  27.8045273  58.2555199
  19.1441274  28.6979461  58.2680273   4.7382027   9.3590289  55.2507401
   4.5256126   8.6531717  55.8613157   3.9632550   9.4357610  54.6941423
  10.4487956   2.8314435  54.3878651  10.1453531   3.7294272  54.5212078
   9.9082392   2.4999516  53.6708260  44.4945765  60.0479412  58.7429333
  44.3437243  60.9830475  58.8809490  45.3929758  59.9958467  58.4167385
  64.3538857  38.3951449  11.7851746  63.5963058  38.0376172  12.2482979
  63.9952087  38.7338448  10.9648919  15.8207369  69.2663908  49.4258022
  15.1796591  68.5900497  49.6444607  15.3632820  70.0914097  49.5880175
  68.5644817  41.6464186  -0.3102818  68.8425159  41.4301920   0.5797602
  67.9444122  42.3671007  -0.1990858  61.8298960  18.3494985  51.6368532
  62.4903917  19.0334249  51.7474318  62.2725153  17.6687908  51.1299419
  74.9828427   0.5508158  27.5075817  75.6111091  -0.1655367  27.4161410
  74.2463439   0.2958509  26.9518900   3.0283478  62.0333052  55.1838207
   3.8605258  62.3308516  55.5514860   3.1596363  62.0664835  54.2362499
  77.1594048  73.0440331  58.5612345  77.0210075  73.0891800  59.5072985
  77.8884554  73.6421490  58.3970118  35.6230879  18.0894673  55.6163216
  34.8710489  18.4162331  55.1224661  36.1234283  17.5781846  54.9803352
  29.5340109  10.6535590  52.7776241  30.3585839  10.6053925  52.2938919
  29.7170019  11.2492585  53.5041809  51.8555689  29.3689728  54.8609734
  51.4708614  28.4969211  54.7728682  52.7943945  29.2081404  54.9556637
  40.5479431  18.3623731  49.8094416  39.8287773  18.6827517  49.2650223
  40.2541161  17.5035501  50.1132870  52.8742409  46.9627810   8.7353969
  53.2770014  47.1647453   7.8908682  52.0160913  46.6026735   8.5114920
  48.7459421  33.8424420   6.2306094  48.1237030  33.1257105   6.3545024
  49.5747375  33.5007858   6.5661657  74.4866657  51.3299417  25.1552868
  74.1044617  51.7314100  24.3749166  75.3217793  51.7826748  25.2729750
  57.4188232  19.6978557  55.3035736  57.9671860  19.5912981  54.5262909
  56.5865469  19.2881823  55.0675297  31.6097260   1.1247564  49.3421698
  32.1517634   1.4191836  50.0741100  31.5432644   0.1770859  49.4593668
  69.4369030  48.8482904  21.9479918  69.4304991  48.4049940  22.7963328
  69.5894194  48.1483364  21.3131428  31.9908857  64.9806166   4.5032394
  32.6128840  65.1337910   3.7919822  32.1312475  64.0669012   4.7515446
  77.7339029  57.1929932  47.2542191  77.3987722  58.0407286  47.5462198
  78.5878992  57.3923111  46.8705654  75.1003838  21.6967058  12.0374489
  74.1598988  21.6670609  12.2130609  75.3267241  20.7994485  11.7926347
   8.0254710  35.8210421  35.3542113   7.3437381  35.5020809  35.9455943
   8.0156726  35.2040410  34.6224689  13.0777383   6.3055009  20.8418655
  12.3518956   6.0883397  20.2568650  13.1850147   5.5277181  21.3893843
  77.3062849  43.6262369  32.0059180  77.4388266  43.0899858  32.7876472
  78.1591129  43.6309719  31.5713000  71.3886166   9.6945328  21.0753512
  70.8256626   9.1089368  21.5816998  72.0378828  10.0067973  21.7055655
  61.6468477  56.5359592   4.4148883  61.0036421  56.3753843   3.7244275
  62.0976114  55.6983376   4.5218104   4.5887041  69.7672558   2.9488838
   4.5341921  69.7240353   3.9035523   5.0836331  68.9861393   2.7016315
  10.3557205  41.1318684  28.9593959   9.7772396  40.8340406  29.6614575
  11.2364042  41.0574913  29.3269515  39.9212098  63.7762642   7.8056294
  40.4450798  63.7448359   7.0051277  40.5566454  63.9453268   8.5012364
  38.0936193  63.7833261  28.7587929  38.3785677  63.8547707  29.6697998
  37.1490669  63.9351034  28.7906742  60.6243086  21.9260168  24.7578239
  59.8183966  21.4131069  24.6973133  60.5327272  22.5967288  24.0810752
  25.4610109   5.8906657  30.3804302  26.3527369   6.0824835  30.0901484
  25.5664706   5.2080482  31.0431099  65.8191872  15.4475367  22.2139335
  65.5821466  15.2315283  23.1158113  65.0285339  15.8426809  21.8465614
  42.5699759   2.4933457  54.5067787  41.7038012   2.0869905  54.5359659
  42.6197720   3.0091962  55.3115463   7.9970270  13.5455644  23.5258627
   7.7892500  12.7208102  23.0867243   8.1467634  13.2997453  24.4387603
   1.9586761  61.4441109   0.3021965   1.0353605  61.6923380   0.2563429
   1.9770926  60.7002497   0.9043333  58.9296770  72.7797508   7.5253004
  59.8095894  72.4036551   7.5020313  58.3750153  72.1171141   7.1136045
  47.3287725  65.8092880  10.2497435  46.8860245  64.9680567  10.1377785
  48.1419897  65.7199526   9.7528285   8.3865255  69.5606995  50.0163031
   8.3885795  68.6092520  49.9115419   8.8438880  69.7115612  50.8435202
   6.7990351  34.3449855  17.4158442   6.4279467  35.1082301  17.8585458
   6.4064968  33.5947871  17.8623271  68.2658863  63.4354258  28.8321209
  68.0211210  62.8499126  28.1155348  67.4586868  63.9037085  29.0451407
  76.7521667  58.6108208  23.9736724  76.3125181  57.7649307  24.0597868
  76.3019323  59.1794491  24.5983124  17.9463542  67.5291824  43.2044792
  18.0561924  67.0290375  42.3957634  17.2144496  68.1190109  43.0237913
  16.3680172  62.6303530  58.2866240  17.2032666  63.0921268  58.3598042
  16.1717308  62.3473835  59.1797256  12.5835133  10.5327666  36.6573024
  12.4309766   9.7237229  36.1690283  11.7247224  10.9535539  36.6978979
  63.2573080  41.8748379  35.7641172  63.3453083  42.7481842  35.3823304
  64.1467237  41.6373682  36.0263848  28.4541273  21.9625330   1.4742972
  28.5161114  21.6470313   0.5727161  27.6735425  21.5336657   1.8249997
  75.3644609  57.2429895  18.9637589  75.3472376  56.3336754  19.2622280
  75.9379387  57.6888561  19.5871007  63.5150290  68.6519814  14.1861188
  63.5227537  68.7239027  13.2316554  62.8318596  68.0078840  14.3722546
   8.1700552  59.6076870  26.6423297   7.4829841  59.5045042  27.3007512
   8.7895322  60.2216053  27.0367742  69.1997671  58.3568525  24.2656779
  69.3209743  58.5590029  23.3379507  68.3849573  58.7996578  24.5028281
  10.8916318  32.4116755  60.4051399  11.6431296  32.6871181  60.9301281
  11.2295973  32.3614788  59.5109940  49.0016890  53.6796570   7.4800271
  49.8764753  53.9446211   7.7642339  49.1145897  53.4235001   6.5646750
   7.4506640   1.8677483   9.5784777   7.8636444   1.0088830   9.6680850
   8.1383646   2.4277928   9.2184085  20.0030303  50.6395626  24.0842319
  19.6876335  51.5293837  23.9261866  20.4370189  50.6870413  24.9360728
  61.1960125  43.8390255  11.3775575  61.0385132  43.2102823  10.6732059
  60.3292131  44.1877842  11.5855491  71.6737604  47.0406008  10.2935636
  72.6035118  47.2609854  10.3503275  71.3811588  47.4451160   9.4768721
  48.9955521  60.3057241  20.7708597  48.5505247  60.2410126  19.9258780
  49.9269915  60.3183222  20.5506516  68.2316017  55.9690952  27.5304627
  67.3514318  56.3322210  27.4321294  68.7729406  56.7177153  27.7809596
  39.9632716  71.5424204   1.8224393  39.3602252  70.7991314   1.8316071
  40.7601404  71.1993599   1.4180371  21.4204478  32.3288274  59.7715569
  21.2533236  33.0071259  59.1171741  22.3490047  32.4241209  59.9835300
  69.2059278  56.3420010   1.8566926  69.4504452  56.0170269   0.9901844
  69.9877739  56.7954731   2.1718262  55.5308056  60.5486584  11.1262643
  54.9263382  60.0895548  11.7094254  55.6682062  59.9424791  10.3983235
   5.8857453   7.9151845  22.6137567   6.8188846   7.7283478  22.7165914
   5.7804984   8.1032920  21.6811419  59.2679501  71.8893862  19.9280059
  59.8789930  71.1526394  19.9206233  59.4588566  72.3507214  20.7446814
  25.4739881  63.7950468  17.3336160  25.6352711  64.5978689  17.8292930
  25.1730657  64.0987062  16.4771879  74.3843508   7.0502931  21.6298199
  73.7642956   7.2585613  22.3286653  74.2734003   7.7562070  20.9929466
  48.8617229  64.1220379  38.9931369  48.9033318  64.9741745  38.5591292
  49.7743082  63.9061785  39.1850400   2.6869041  53.2750368  33.4488440
   3.4395087  52.8120947  33.0807376   2.9927722  54.1744757  33.5658503
  76.6943645  11.6534781  48.4654570  76.6134882  11.3376844  49.3654394
  77.3835611  12.3165381  48.5053158  71.7179966  38.0216622  50.0901175
  71.8933344  38.6352849  49.3767071  72.4310350  38.1672096  50.7119131
  46.0719204  23.8439059  47.6240873  46.2503719  23.0661845  47.0953751
  45.2907085  23.6166286  48.1283522  61.4764929  39.7278476   0.6473920
  62.2228050  39.3915558   1.1435350  60.7802677  39.8233390   1.2973064
  63.9982224  45.1784372  18.7586963  64.0412474  44.8444700  19.6547139
  63.0684853  45.3529406  18.6125147  64.7835350  65.9883213  36.4302254
  65.4421520  65.4311752  36.0154414  64.7850418  65.7179928  37.3484588
  76.1891842  62.6272106  35.8940029  76.6770077  62.6799488  35.0721264
  76.5650797  61.8727970  36.3476539  11.1789453  73.4577608  33.3160543
  10.3988528  73.6718988  33.8277531  11.6986096  74.2615747  33.3238697
  75.2520847  33.8342786  10.3023839  74.7220564  33.0604100  10.1115179
  75.8593798  33.5464787  10.9839964  78.0081402  24.2005181  29.9751759
  78.2388026  24.0144992  30.8853531  78.8465252  24.3697691  29.5454121
  74.3990946  65.8158588  26.8152785  74.2308044  64.8882914  26.6493607
  74.0248442  66.2663507  26.0581613  72.7580023  44.7052383   2.9469192
  72.2372246  44.1006041   2.4182957  72.6540995  44.3892002   3.8444483
  71.0800982  34.5061588  21.4960909  71.2466145  33.9155436  22.2307181
  70.1367712  34.6657348  21.5261292  26.2017751  33.2777762  56.3837433
  26.0633421  34.0950131  55.9050035  26.2361288  33.5416842  57.3031998
  69.9349546  54.3267107  22.1478391  69.9581575  54.6156836  23.0600834
  70.2562332  53.4254122  22.1738601  78.5123777  61.0485554  11.9180489
  77.7970409  60.4270887  11.7827666  79.2271996  60.7123423  11.3774681
  24.3648553  26.4325833  32.0479321  24.6746349  26.0801840  32.8822470
  23.4819961  26.0758567  31.9502711  43.9595461  43.1782675   3.2476735
  43.7175703  42.5996971   2.5245312  44.0995121  42.5892782   3.9891115
  46.7500687  20.8271241  62.5929546  46.9538450  19.8919499  62.5803757
  46.0099840  20.9029102  63.1952524  58.4307289  12.3373497  15.6252086
  57.6076317  12.5214541  16.0778117  58.1910181  11.7204618  14.9336731
   8.0800742  29.5461011  58.5265636   7.4974436  29.3769240  59.2669392
   8.8467872  28.9984035  58.6951208  72.6333952  67.8036165   9.8193163
  72.4718189  68.2964945   9.0148306  71.7666435  67.5066853  10.0964558
  60.6938171  58.4882736  29.1885090  60.6063890  57.9830122  29.9967790
  59.8005962  58.5573816  28.8514495   5.8992049  49.3979220   0.9730097
   6.5976474  49.5445804   1.6109033   5.9710262  50.1342718   0.3656717
  50.5839491  69.0488863  25.4734111  51.0172272  69.7957468  25.8865738
  49.9172592  69.4407415  24.9093151  19.0001655  14.9088514  12.9562819
  19.6654129  14.7645366  12.2833395  18.1680501  14.8513556  12.4866962
   8.9432269   4.2808148   0.4484706   8.9855105   4.8164567  -0.3436984
   9.5961207   4.6658134   1.0330538  68.6512804  18.8450098  57.6624107
  67.9457569  18.6204386  58.2690716  68.2096291  19.2748070  56.9299841
   1.8466640  41.5612078   6.1769241   1.8813878  41.1611986   7.0458424
   2.1693337  40.8802223   5.5866903   6.7801821  47.5317717  19.7338164
   7.5899673  47.0265627  19.6613979   6.8346161  47.9496145  20.5932760
  69.0583086  40.7335806  15.1774776  69.0357256  40.8007193  14.2229021
  69.3334341  39.8327279  15.3477764  10.0506568  10.3502345  38.3339190
   9.8938513  10.9770322  39.0401554   9.3945950  10.5668092  37.6714158
  24.5565462  46.6468573  14.3042755  24.7319961  46.2042618  13.4738803
  24.9351263  46.0700750  14.9677742  64.5458889  44.6899128   1.9412735
  65.1257563  43.9309025   2.0036189  64.8374939  45.2723598   2.6426655
  72.6581287  62.0828104  20.9588289  72.5230312  62.8670740  21.4907289
  72.3471403  62.3279476  20.0873780  76.5054131  14.7729719  12.3941135
  77.2406816  14.1765940  12.2528839  76.6959906  15.5250978  11.8335605
  64.4559050  18.3401549   6.0546106  63.7595892  17.6850164   6.0080314
  64.9556589  18.1033802   6.8358988  15.4001617  62.8844023  24.2656946
  15.3735280  63.1646061  23.3508134  14.5365191  62.5035572  24.4247842
  77.8406906   5.0097680   8.2244420  78.4501123   4.2736244   8.2785738
  77.5517845   5.0149250   7.3118979  39.0333898  73.5635745  31.9531941
  39.4287116  74.4177549  32.1273422  39.4821603  73.2473446  31.1690784
  60.4408932  47.1149111  14.3356109  60.7218361  47.6356077  15.0880599
  59.9583387  46.3821077  14.7181988  24.7697473  18.2547319  13.5335958
  24.1737747  18.3753788  14.2728484  25.2552843  17.4573755  13.7450325
  65.9063911  45.6394958  12.7108812  65.4815054  46.4752197  12.5178325
  66.4073324  45.4373169  11.9206822  39.6128583   3.5371020  30.1754737
  40.4480457   3.2472485  30.5424595  39.7033310   3.3956280  29.2331195
  54.3353415  13.4025884  50.3843021  55.2388668  13.7183881  50.3961229
  54.0247917  13.5982108  49.5002651   3.2053629  50.6450796  41.6987085
   2.8026304  50.8653831  42.5386524   2.5327688  50.1473713  41.2338066
  13.1039011  57.3950958  53.2741928  13.9829767  57.7536774  53.3961630
  12.8690183  57.6363420  52.3781681  19.5713949   1.7259097  44.8764277
  20.4923677   1.8744835  45.0908279  19.4532442   0.7806209  44.9697065
  54.2878485  18.4737492  40.6735802  54.8795509  18.0149817  40.0772142
  53.8297653  17.7751756  41.1408997  28.9749146   7.9963773  60.6097269
  29.1897845   7.1936858  60.1345968  28.6714387   7.6940686  61.4657307
  25.7293820   4.2603371  48.1217432  26.5844917   4.6832311  48.0431557
  25.2766538   4.4824502  47.3081493  26.9706607   1.5243959   5.9343505
  27.3188090   1.0168260   5.2012765  27.5997949   1.3852623   6.6422093
  46.5212250   4.4171113  17.8094053  45.6062412   4.5004994  18.0778873
  46.7337990   5.2638817  17.4169469   2.5785661  65.9882259  29.6481848
   3.2462710  66.1593390  30.3123569   2.5475046  65.0339603  29.5800781
  37.7471948   6.2926972  25.7243204  38.0389476   6.1318809  26.6216779
  37.4826455   7.2126025  25.7197046  70.4506350  32.6773143  23.3807516
  70.1293802  31.9922280  23.9669967  71.3742495  32.4644709  23.2470822
  17.7920355  64.0043484  63.7651760  17.4996008  63.1139742  63.9599836
  17.9305757  64.4041859  64.6237605  73.2252932  47.7108049  39.5108223
  74.0031624  47.1678686  39.3828821  72.7485037  47.6449347  38.6834359
  28.4869719  61.0351658  11.7841995  28.4341168  61.8723154  12.2453022
  27.6925278  60.5683708  12.0434165   3.0566573  41.5209055   9.0892577
   3.3370116  42.0448637   8.3388549   2.1818179  41.8490839   9.2970735
  51.5671396  65.0471306  17.5805461  50.6675577  65.1551723  17.8892672
  51.5212059  64.3214512  16.9580460  43.5609245   9.6914971  26.3939595
  44.1717672  10.4185760  26.2737346  43.3911657   9.6745396  27.3358345
  19.8833334  57.7457047   3.6434776  19.6941936  58.1947136   4.4673994
  20.6212258  58.2287121   3.2713899  35.6110978  70.2696037  10.3639066
  35.4418898  69.3952179  10.0131226  35.6320715  70.8369207   9.5932281
  72.3800135  47.8303480   6.0510862  72.3854780  48.6807489   5.6117463
  71.5691757  47.8287792   6.5597880  21.7619014  58.2309484  32.2493434
  21.1754608  58.3060026  33.0021286  21.4433789  57.4641514  31.7731094
  44.4196892  48.6995649  12.5267434  44.1684818  48.2149076  13.3130240
  45.3163958  48.4167719  12.3473454  66.5020418  11.7126405   7.7348930
  65.8974648  11.2985766   7.1190417  66.1831093  11.4484644   8.5978681
  59.4993591  53.0634880  15.6930935  59.8928070  53.8625002  15.3423679
  58.5845804  53.2965469  15.8515048  58.0632114  70.5980968  22.4935913
  59.0168524  70.6753969  22.5223184  57.8600693  70.4833937  21.5652561
  26.7632985  55.3551292  31.3576460  26.3022685  54.6226406  30.9488153
  26.0722709  55.8715868  31.7723608  76.8321419  52.6362276  45.0318670
  77.4559069  53.3620453  45.0503874  77.2643423  51.9623232  44.5071888
  76.4995480  58.6737537  21.1994362  76.8305111  58.4997368  22.0805812
  76.0720921  59.5274210  21.2683964  50.5156994  37.1644282   2.3566735
  50.3660679  36.2199044   2.3152445  50.1008844  37.4369693   3.1751364
   8.8326716  23.0476999  25.8979225   9.7875434  23.0657005  25.9621668
   8.5416532  23.7720919  26.4518142  12.6032615  66.3425112  18.2359433
  13.5211945  66.0848856  18.3211410  12.1108663  65.5657530  18.5013139
  16.2808347  72.3658371   1.9759758  16.7716599  71.9646978   2.6931977
  15.5312741  71.7852211   1.8445407  42.5418186  60.5420208   9.0742362
  42.9149008  59.6682644   8.9576775  41.5961170  60.4093218   9.0089136
  58.1559372  58.4791088  27.7939034  58.2819128  58.6348391  26.8578959
  57.8546667  57.5721312  27.8473902  13.6249948  19.5255756  57.8926134
  14.2842782  20.0987220  58.2838726  13.6081469  19.7755921  56.9687986
  70.4533386  32.5032735  56.8511248  70.6676865  32.8238797  57.7271938
  69.6237326  32.9297233  56.6363525  70.1199675  62.7043486  31.5831852
  69.9424458  62.9515934  30.6756687  70.0721312  61.7483473  31.5847135
  26.8281913  64.8527384  33.5288286  26.4560437  64.2429543  34.1659331
  26.9324541  65.6715202  34.0135503  37.6421022  25.1240993  58.4510517
  37.9293585  25.9732199  58.7867785  38.4446383  24.7059441  58.1391048
  31.7041111  43.4653521  63.0943251  31.8086123  42.6415205  63.5703564
  31.4624095  43.2002068  62.2069073  50.3475189  57.3552132  18.9299202
  51.0370541  57.5637865  19.5602119  50.8113337  56.9712067  18.1858444
  37.5554442   4.9597180  10.8103144  38.3672428   4.7145167  11.2542653
  37.8099442   5.0811219   9.8955888  52.1533775  44.1643429   0.8073461
  52.2965860  43.4494734   1.4275745  52.2006178  44.9575472   1.3410389
  63.6302948  46.9538546  56.0049772  63.2473469  46.9904613  55.1284838
  63.0025625  46.4465857  56.5196228  54.0000153  50.4251528  10.7943892
  54.2295027  51.2768269  11.1661685  53.0608606  50.4853773  10.6194890
  39.8653674  21.7704010  60.4080391  39.2649126  22.4056983  60.7980204
  39.6380281  21.7654204  59.4782448  77.0320463  47.9876280  10.7647121
  77.9378605  47.7218008  10.9230423  76.6560221  47.2673655  10.2586901
  52.4541903  12.7958393   1.9507073  52.8456545  12.1140635   1.4046566
  52.9980230  13.5682166   1.7960724  22.5800848  37.5653839  31.6240406
  22.7100444  37.9028177  30.7377672  21.9581795  36.8455863  31.5174747
   2.2432141  43.9609337  16.9332635   2.0387654  43.0325842  16.8210328
   3.1996540  43.9981985  16.9254160  23.0340385   6.4808553   4.5994800
  23.4617972   6.5315962   3.7446821  22.1030593   6.5951782   4.4085887
  72.9574108  60.1253557  35.7814527  72.9313564  60.3285360  36.7164755
  73.5894346  60.7461500  35.4189706  55.6003046  18.0235481  48.2804108
  54.9743843  18.1440032  48.9945126  55.2912426  18.6096311  47.5896025
  49.7132921  33.6624861   9.4204390  48.9685631  34.1319513   9.7962260
  50.0986147  33.1931305  10.1603448   2.6035815  16.0731232  17.7483869
   2.5462845  16.9630098  17.4004626   1.8428062  15.9913707  18.3235121
  77.3562050  70.8241177  16.2889946  77.5308561  70.1923513  16.9865608
  77.7963352  71.6245461  16.5750623  61.4869118  70.2005625  62.5649977
  61.1507368  69.6843529  61.8323708  61.0856724  71.0625744  62.4546623
  55.7399225  70.4674292  34.9737167  55.5257559  69.5354080  34.9325585
  54.9158049  70.9115934  34.7742772  52.6318741  46.5838575   2.4046344
  53.3726406  46.9046736   2.9190037  52.8405809  46.8315125   1.5038899
  52.9941225  29.8308492  47.5066423  52.8725243  30.7479334  47.7524137
  52.9590321  29.8325539  46.5500879   0.3168239  28.6043620  46.8972635
   0.2989516  29.3431401  47.5056410  -0.2298994  27.9380059  47.3135471
  76.6951513  67.3875713  26.5102124  77.1666956  67.3079681  27.3393941
  76.2426281  66.5499878  26.4106584  10.0488102  51.6921806  31.9411349
  10.4635799  52.4985504  32.2476673   9.1902697  51.9706392  31.6223884
  40.1190272   7.9426016   0.2322241  39.5188418   7.3743833   0.7150646
  39.6750536   8.7900986   0.2028843  11.7508864  41.2432337  13.6337435
  11.9694066  40.4431295  13.1559241  12.1829879  41.1413527  14.4817638
   5.6100780  55.9439325  42.2842693   5.8140486  56.7934084  42.6754475
   6.4390028  55.6484079  41.9077301  75.1349449  15.4052377  35.8944345
  74.1994524  15.5853510  35.8014989  75.4173326  15.1464283  35.0172186
  56.3369226  70.8778715  19.2592430  56.0992670  71.0518980  20.1699924
  56.1934137  71.7112684  18.8108218  15.2285290  63.9773607   7.4966884
  14.3634415  63.8303709   7.8791142  15.0633907  64.0670729   6.5581191
  50.5627108  18.2250023  60.8319521  50.0719929  18.5652900  60.0838661
  49.8898602  17.9535699  61.4563131  67.6506901  12.2522998  49.1822243
  68.2525158  11.5397072  48.9671564  67.9460335  12.5654233  50.0371838
   5.3193402  50.8645487  21.6778326   5.5515718  51.5855503  22.2630310
   4.4065601  50.6688499  21.8894124  21.7346358  71.9544888  38.1485343
  21.6714573  72.1726847  39.0783906  22.4222183  72.5300741  37.8136325
  33.9069581  70.8743477  25.5572677  34.3044829  71.0611534  26.4077425
  34.6440482  70.6335545  24.9960637  70.5158710  60.2454329  54.3012667
  70.2750397  61.1475468  54.5120525  70.2136278  59.7350693  55.0525379
  54.1267681  17.1999884  20.5407548  53.6471367  16.9918978  19.7389543
  54.0678310  16.4036691  21.0686135  58.9085102  10.8294356  37.4733639
  58.5653496  11.3599479  38.1924105  58.1685543  10.7306778  36.8742466
  42.2612476   1.5591690  50.6288338  42.2812653   1.9407541  49.7512102
  42.5901699   2.2536784  51.1995363  57.2457409  14.4775307  10.4987347
  56.6856527  15.2405500  10.3561378  57.4648190  14.5118964  11.4298928
  53.7976980  31.9038725  19.2406881  53.8956738  31.1810589  18.6208713
  53.8386059  32.6915932  18.6984193  36.2857246  14.1606784  11.3486707
  36.8186212  14.9447680  11.2165475  36.1148667  13.8354683  10.4647708
  20.3820658  37.0757914  55.0087261  19.7466493  36.5200019  54.5575333
  21.2264299  36.8295717  54.6310282  24.8837757  44.8632145  61.0611057
  24.9593544  44.2722988  60.3118801  24.2041469  45.4872656  60.8063507
  37.5680351  56.1361170   6.6301394  37.0689464  56.0295248   5.8203375
  37.8140187  55.2451468   6.8789202  32.4072099  34.2610550  16.2036216
  32.9280591  35.0640512  16.1917353  32.7822661  33.7428117  16.9156528
  10.8601129   6.9897890  50.9972858  11.7707682   7.1764821  50.7690620
  10.5789673   7.7519792  51.5035009  18.2627809  64.6543694  10.5365849
  17.8298759  63.8101625  10.4095423  18.0550742  65.1515102   9.7454202
  56.1746311  11.5692246   4.6342993  55.9588385  10.9597695   3.9284453
  55.3400278  11.7317700   5.0739020   2.0207858  38.9790511   8.2543594
   2.6806125  38.6024857   7.6720715   2.5059456  39.6029282   8.7943864
  57.8332996  20.5044389  25.0713158  58.0685902  21.0032535  25.8536530
  57.6279116  19.6286345  25.3984475  71.9777393   5.6883264   6.9933486
  72.0537281   5.5910480   7.9425561  71.2192345   5.1540816   6.7577899
  47.5483942   8.2228166  30.0055861  47.1206999   8.1400049  30.8579063
  48.1889868   7.5117642  29.9889684  30.4456973  69.3009472  26.2275338
  30.8634973  68.6689949  26.8126059  29.9849534  68.7630129  25.5836606
  66.2362576  19.9477339   8.3886790  65.4734421  19.5103920   8.7669307
  65.9983301  20.0952768   7.4733359  35.8276200  11.7424643  47.0563221
  35.9390163  11.1879110  46.2841225  36.0727334  11.1810005  47.7917862
  65.6289339   6.7748338  28.9041948  65.4352856   6.0570180  29.5070815
  64.8913240   7.3767281  29.0036345  13.4276795  22.3281360  27.5526857
  13.1673193  21.9364786  28.3863807  14.3612611  22.1309757  27.4766231
  46.1276627   7.8563058   6.5156209  46.0914326   7.0358163   6.0239744
  45.8068848   8.5174370   5.9022367   7.1111035  38.9098620  19.4790673
   6.7458248  39.2962289  18.6831260   7.8248727  38.3525276  19.1689956
  29.6908092  26.2467194  10.5153298  29.9961352  25.7108402   9.7833180
  29.0972829  25.6735563  11.0005522  77.4809885  40.0899220  19.8369455
  77.3379135  40.1568651  20.7810211  78.3701229  39.7454238  19.7532833
  39.3626595  58.1612730  28.2728195  39.2440081  58.0044603  27.3360348
  38.8498187  57.4736834  28.6976075  45.9869766  70.9109879   7.3443723
  46.4556742  70.1694584   7.7273721  45.8030653  71.4871264   8.0863100
  74.8783588  27.1580815  18.9241695  75.2554750  26.3203764  18.6553466
  75.4424763  27.4568176  19.6374464  30.4975843  24.0441680   9.2356563
  30.9085917  23.7397194   8.4265733  30.4298139  23.2596064   9.7798097
  23.5569668  53.0214310  60.8747673  23.3397698  53.3123112  59.9890804
  22.9254985  53.4712029  61.4361858  47.8448486   9.0528262  10.2527702
  47.8602695   8.4409839   9.5168066  48.2409477   9.8528850   9.9074543
   9.7059077  19.3582463  18.8555670   9.1211385  18.6004865  18.8643146
  10.2585196  19.2432666  19.6286345  22.4201345  65.9943247  49.5645714
  22.0735765  65.8396292  48.6858225  21.6684389  65.8695173  50.1438904
  67.6657438  60.2872181  51.2754059  68.1884146  61.0802555  51.3943052
  67.2309208  60.1583338  52.1183491   6.9956660  61.9558096  63.4438896
   6.4192313  61.1955214  63.5208321   7.8699553  61.6132927  63.6297131
  73.4014130  14.1584110   6.5453541  73.9682245  13.9261949   7.2809052
  73.3850145  13.3730638   5.9983689   3.7309828  29.1770601  20.4313755
   3.7974894  30.0250793  20.8703184   3.3193088  28.6041379  21.0783052
  65.6849289  59.3017149  21.0041380  66.5161896  59.0930080  20.5779004
  65.6419706  58.7042713  21.7507625  64.4699430  71.5574789  35.1373410
  64.0305853  72.0550919  34.4477201  63.7633753  71.0893631  35.5821609
  37.1154094  11.0353076  21.5984631  37.7199483  10.6755793  22.2475863
  36.3353562  10.4847634  21.6666532  12.2026789  21.5680218   2.3750493
  12.6665616  21.5546632   1.5378717  12.2279847  22.4850440   2.6482889
  48.5771751  15.5332088  16.4801395  47.7586985  15.9969985  16.6568351
  49.0516806  16.1058617  15.8775234   5.6556767  18.1205916  21.1496139
   5.2879393  18.6487675  20.4410720   6.4938998  18.5375702  21.3489699
  60.8323097  25.1228499  13.0068004  60.7171965  25.8248091  13.6472940
  59.9447966  24.8092055  12.8330898  58.6234093  50.6281471   1.1031516
  58.6104298  49.9082613   0.4724207  58.2663012  51.3746119   0.6220065
   5.2182573  54.9247646  62.5278091   5.9386784  54.8005438  61.9099140
   5.5499357  55.5656099  63.1567240  77.5035334  60.3586578  40.6616259
  76.9175148  60.8906555  40.1232958  78.3330965  60.3582859  40.1840782
  30.5817294  69.5712566  12.7085340  30.3466678  68.6898470  12.9985154
  31.5300202  69.5371008  12.5827980  39.5659733  23.1672525  49.7879839
  40.1738405  23.8883495  49.6244335  39.8729968  22.7760053  50.6058455
  22.9571748   5.0434107  33.8292694  22.4851751   5.2145404  33.0143070
  23.2085299   5.9106082  34.1471052  77.2917509  57.5703382  61.4943647
  77.9937077  56.9798708  61.2208128  77.6449823  58.0239964  62.2596455
  77.9172802  19.0185761   4.8291647  78.7203011  19.3328893   4.4137180
  77.9431556  18.0688643   4.7125000  73.0987453  66.6159487  44.5480251
  72.9617596  65.6686926  44.5614243  72.4459505  66.9609928  45.1571465
  29.0237713  10.4337037  17.1867871  29.7634721   9.8291457  17.2466528
  28.6544085  10.4484284  18.0697286  10.6753600  36.4757013  32.8995848
  11.1736286  35.6637573  32.9929018  10.9190738  36.8083429  32.0357633
  22.4638081  20.1384711   9.1872162  22.5129366  20.3357577  10.1225746
  23.3751297  20.0210452   8.9190125   9.6458209  16.7235351   3.8507447
   9.0116537  16.9682491   3.1768167   9.5566654  17.4011731   4.5208871
  27.7447295  10.2287138  19.6928716  26.8914199  10.0705016  20.0966835
  28.3158016  10.4640949  20.4241037  27.0658612  59.8842525  58.6304712
  26.4463234  60.5250025  58.2814121  26.5166092  59.1640520  58.9400911
  33.6827636  17.1697879   6.1927420  33.7039304  17.4508309   7.1075094
  33.5890245  17.9818785   5.6947917  37.4958348   2.0098889  44.0351057
  37.4853325   2.9202443  43.7395144  36.6394305   1.6657782  43.7813568
  60.2661180  17.1376121  20.7987809  60.1027107  17.8996551  20.2430630
  61.0503483  16.7338407  20.4270506   1.8882196  45.1433372  49.0907001
   2.0531020  44.2050314  48.9977980   1.8681853  45.2905273  50.0363016
  44.2062712   0.4320497  53.4942389  44.8820686   0.9231816  53.0269909
  43.6056662   1.1021369  53.8205624  55.7867146  26.6353178  10.7543373
  54.8789358  26.5682244  10.4582441  55.8532095  27.5151610  11.1253965
  41.9777584  63.6023951  11.6624677  41.2920952  64.1712666  12.0124388
  42.2865772  63.1055212  12.4200821  35.3312635  26.7175031  21.6030049
  35.7482624  27.5489426  21.3770604  34.8746490  26.8942809  22.4254918
  53.8939714  21.5367460   1.9781537  53.0433750  21.1022830   1.9152433
  53.7572765  22.2401619   2.6127809  10.4236209  27.0350528   4.3322507
  10.0861859  27.8322768   4.7406620  11.2762225  26.8969822   4.7448501
  33.8893819   2.5453359  60.2944422  33.2381654   2.9842746  59.7471952
  33.9894772   3.1188324  61.0542583  10.6495750  64.2953491  11.9496953
  10.9174907  64.3406725  11.0318732  11.4382911  64.5249701  12.4410522
  39.9930286  11.6408861  57.0484686  40.2182198  12.4833274  56.6537380
  39.0680575  11.5164149  56.8359375  12.3119211   5.4547924  53.9470911
  12.8257418   6.2622464  53.9316177  12.6900613   4.9439523  54.6628332
  59.0031338  20.8631039  14.4890201  58.4578371  20.4248905  15.1423573
  58.3799458  21.3221931  13.9259017  68.2643747  67.2838497  35.7011342
  67.9563475  67.0197964  36.5680981  68.6399412  68.1540346  35.8351612
  63.6781216  46.5487146  48.3529854  63.4231710  46.5186882  47.4308491
  63.1067419  45.9106588  48.7803507  36.8301010  25.9584212  14.6543026
  36.9728565  25.5560541  15.5110133  36.1426830  25.4275846  14.2519295
  42.3430490  59.1774273  23.7509465  43.0906153  58.8554907  23.2472253
  41.6412449  58.5542870  23.5627890   7.9076097   1.6398785  59.8003101
   7.4459789   1.0790178  60.4236650   8.0704877   2.4505350  60.2825308
  61.9912577  60.7165623  33.5323906  61.3734770  61.2354517  34.0474963
  62.2513723  60.0043917  34.1166735  74.7393417   1.7908363   1.9633932
  73.8232183   2.0516467   1.8689360  74.7691250   1.3175410   2.7948597
  64.3716049  54.3892145   1.4879031  65.1575232  54.2777205   0.9529917
  64.7037983  54.5487738   2.3713171  70.4236746  18.6193097   6.1947721
  71.0745955  17.9181433   6.1648089  69.6559477  18.2162416   6.6001910
  52.8622961  43.1687975   7.0824778  52.9400253  43.8914108   6.4595616
  51.9829035  43.2619429   7.4488407  75.9923267  20.9814811  17.8332591
  75.9744215  21.1670899  16.8943977  75.0881147  20.7539153  18.0497026
  38.6996222  65.2694321  37.3224568  39.1706705  64.4447851  37.4420357
  39.1166210  65.8745670  37.9357719  62.5025940  44.5224380   0.0096289
  61.7369843  44.9971485   0.3332372  63.2107258  44.7788095   0.6004373
   9.0009159  53.4334135  64.3906498   8.8294250  54.3509483  64.1786432
   8.5867739  52.9421949  63.6811256  46.3624525   5.0457895   5.5714422
  47.0602083   4.9479413   4.9235314  46.1940050   4.1549349   5.8784205
   0.7690436  70.1361513  14.4816005   0.0345156  70.6479025  14.8204374
   1.5391451  70.5098629  14.9099886   6.2533933  37.5548697  61.7925406
   6.9541997  37.9605341  62.3029709   6.6360092  37.4195123  60.9256411
  35.8845878   7.7939039  16.9520319  35.2505183   8.3826256  16.5426517
  35.8418441   6.9940400  16.4279890  76.5980959  25.2311683  57.9669952
  75.9438038  25.4825497  58.6188698  76.3458443  24.3462348  57.7033710
  62.6579809  17.9367125  35.8273339  63.2250547  17.2274590  36.1300135
  62.2066116  18.2359064  36.6166258  51.0688019   1.7376833  19.1738486
  51.2667704   1.4238024  18.2915115  50.4707241   2.4725941  19.0380561
  63.5015011  20.7595515   5.0510794  64.1135311  20.1684642   5.4895568
  63.6636305  20.6228733   4.1176647  49.9928474  67.8874540  56.5022135
  49.1485929  67.6471615  56.1204767  49.7676659  68.4110641  57.2712088
  68.4860516  53.5310173   2.4850956  68.8706493  52.9339361   3.1268230
  68.9478207  54.3583965   2.6209122  48.0077600  24.3769526   1.0033679
  48.6563635  23.6843753   0.8773369  47.2482109  23.9289141   1.3756238
  20.1178193   3.4381020  57.4217653  19.6823573   2.5880384  57.4849701
  20.7987976   3.3098546  56.7614174  27.7489305   9.6108299  59.0017319
  28.1558871   9.1269517  59.7203970  27.0879889   9.0121609  58.6539078
  44.4359970   2.9931656  12.8084397  45.0381279   3.6747697  12.5099683
  43.6334801   3.1475279  12.3100758  58.5997963   0.8028395  35.0090170
  58.4507942   0.0905110  35.6308031  57.8243732   1.3580823  35.0905776
  20.3540826  48.5405779  59.9087381  20.3717136  49.2593622  60.5406237
  19.9033844  48.9031363  59.1460752  17.0042562   2.7638841  45.3753328
  17.8203344   2.2714631  45.2871895  16.6684031   2.5185409  46.2374449
   0.5004045  42.3874474   9.4276941  -0.0679166  42.0100927  10.0991440
  -0.1006618  42.6851559   8.7448168  74.6085167  29.3951011  29.6643448
  74.5864153  28.4456515  29.7838807  74.3589163  29.5272350  28.7497568
  60.2040243  17.4203217   9.2899388  60.7071829  16.6109860   9.2002773
  60.7479620  18.0880332   8.8721734  71.7649889  55.3588438  19.6295440
  71.0182238  55.9334040  19.4608641  71.3796091  54.4884205  19.7299623
  58.3927155  14.7342443  30.4274130  58.0625820  14.1984892  31.1486697
  57.6136255  15.1589620  30.0684285  59.9230909  30.0108886  10.7494950
  60.3474665  30.0755024  11.6050410  59.9164677  30.9084702  10.4170203
  38.7591386  63.0255270  10.6882179  39.1336346  63.8748503  10.9219539
  39.4175696  62.6206446  10.1236224  14.5017207  12.4193263  51.2836647
  14.0712380  11.6480148  51.6524410  15.3423047  12.0935726  50.9618950
   7.2410965  59.1487646  17.4810350   7.2634226  59.7471380  18.2278156
   6.5128255  59.4621420  16.9447076  17.9425216  53.9747667  61.5151310
  17.0252430  54.0632963  61.2562990  18.1404912  54.7889996  61.9778013
  48.5568047   0.3367996  30.5874467  47.8479147   0.5807186  31.1826015
  48.9574862   1.1695956  30.3381729   5.2903110  45.4936790  18.9807677
   5.6881291  46.3352823  19.2036533   5.9584272  45.0420046  18.4651661
  32.7727771  35.9721065  22.6846886  32.6358104  36.2593007  23.5874557
  33.5817337  35.4613781  22.7159452  72.4420977  49.2713785  20.0453281
  73.3660507  49.0446949  19.9397039  72.3904324  49.6666718  20.9155607
  78.9304209  19.4179797   7.6668382  78.6891794  18.6651027   8.2064760
  78.4694624  19.2774034   6.8398017  75.9534168  28.1843710  45.1579285
  76.1981201  28.2050443  46.0830927  75.0903177  28.5972381  45.1291847
  53.3607769  21.2979841   5.3686774  53.6019659  21.9415545   4.7024369
  53.7205124  21.6498637   6.1829263  75.8440638   2.9116708  20.7041740
  75.0777292   3.2198912  21.1878681  76.0296345   3.6116225  20.0781846
  17.8296888  43.7944841  57.7391291  18.1634986  43.5663462  56.8715143
  16.9354320  43.4532499  57.7490330   7.0411250   1.1846134   6.1518025
   7.5108430   0.5618736   5.5970097   6.7832515   0.6743261   6.9194883
   2.0097405  53.7891483  59.7088814   2.2783272  53.4019899  60.5420732
   2.4252620  53.2395649  59.0444040  15.5874228  61.7631102  51.5482759
  15.6642330  60.8243322  51.3778973  14.7072959  61.8698215  51.9091368
  36.1048698   8.6186856  51.3655853  36.6792345   8.9880204  52.0363522
  36.4373136   8.9762348  50.5422592  63.9745998  44.2294073  11.5662551
  64.1915131  44.8951960  12.2188711  63.0176878  44.2150116  11.5477014
  34.5692492  51.0177469   6.1210358  35.1543760  50.3616285   6.4996707
  34.0301585  51.3104486   6.8558419  46.1234205   0.0277016  44.4507313
  45.5353003  -0.4223278  43.8442516  46.5044826   0.7368967  43.9329767
  24.0495539  38.1110454   3.0320999  23.9480114  38.7494588   2.3261625
  24.9964070  38.0261445   3.1438857  38.2027793  51.5875053   2.8929526
  38.0981636  50.9432411   3.5931009  37.3773479  51.5520954   2.4095881
  66.9066811   8.5225719  22.6186371  67.7920055   8.7757355  22.3572206
  66.7644119   8.9737535  23.4507608  36.5266228  44.2750359  14.2818260
  36.5471196  45.2289486  14.3584216  37.3165751  44.0574598  13.7869871
  49.2926550  24.0807319   9.7547925  50.0377178  23.7761831  10.2728307
  48.6603165  23.3635640   9.8000759  61.3653088  38.2035184  27.8716278
  62.1759272  38.3275366  27.3779225  60.6809473  38.1677151  27.2033453
   4.7429124   0.8688618  45.1464128   4.9861634   1.6284165  45.6756926
   4.1092315   1.2098144  44.5151997   1.0795319  49.3723917  22.3935032
   1.4017293  50.2524471  22.1987724   1.8600231  48.8191557  22.3619437
  19.8066247  67.5644541  31.8096471  19.0082717  67.0499277  31.9285154
  19.7413456  67.9052162  30.9175444  72.3652976  55.7924168   0.2989956
  71.4422172  55.9854190   0.1349684  72.3552793  54.9638311   0.7781359
  40.8108377  72.4608994  12.0939696  40.3841400  73.1037283  11.5274644
  41.2890291  71.8909311  11.4917243  17.6923347  35.3440213   8.6745417
  18.0162585  34.5188046   9.0355456  18.1879389  36.0191417   9.1380298
  60.6086826  16.6019189  17.6790881  60.3667116  17.4870610  17.9514968
  60.1695156  16.4819884  16.8370795  16.4814842   9.9648601  24.1567588
  15.8645308   9.2810029  23.8961053  17.3442852   9.5713621  24.0265036
  18.5657716  11.1785030   8.6608636  18.2441354  11.3390994   9.5479882
  19.4060266  10.7376790   8.7868780  35.5065227   7.9387802  54.3104362
  35.6962085   7.3374808  53.5902357  35.6942081   7.4325573  55.1008463
  42.4761677  47.2112274  11.1313236  41.9534969  47.5595236  11.8536365
  43.3819294  47.2930288  11.4298940  56.7143393  33.5004568  17.2774041
  56.9481754  34.4056153  17.4829185  55.7874203  33.5401130  17.0418501
  35.6959558  30.9811926  54.9588966  36.5671515  31.3705420  55.0341272
  35.2386928  31.2623906  55.7514048   2.3397420  49.1481686  19.4971645
   2.3620906  49.3060875  18.5533452   1.9486943  49.9413252  19.8635221
  36.0969925  46.8569565   4.8412946  35.7197356  45.9791565   4.7831461
  35.3520012  47.4253798   5.0365150  20.2049184  25.6134868  21.6879177
  19.4410443  26.1903119  21.6864347  19.9070787  24.8227715  22.1376824
  28.1206298   1.5180434   1.6426842  27.5225949   2.2626778   1.5785985
  27.6406884   0.8689794   2.1570827  15.3700805  61.8687868  55.2774715
  15.6748235  62.1711683  56.1330032  14.7884262  61.1349773  55.4760408
  34.1063213  30.0921226   8.6481655  35.0513196  30.2141356   8.7393969
  33.8148379  29.8200417   9.5183611  47.8809452  68.4617949  14.1714656
  48.2995129  68.8468838  13.4015715  48.3883572  68.7947702  14.9116623
  62.5974798  30.0065279  22.2121429  61.6873646  29.8520422  21.9590497
  62.6542473  30.9540486  22.3354769   5.3904694  41.4626122  13.3716130
   5.3950715  42.1087933  12.6654541   5.6416869  41.9579697  14.1511929
  65.7852745  16.3950920  45.9064293  66.1652422  17.0880127  45.3663206
  66.5373755  15.8816516  46.2013006  71.1973000  69.8116302  37.7899337
  71.0793591  70.7615042  37.7818418  70.6269789  69.4934940  37.0901084
  63.2519817   3.2237360  23.4607840  63.4823132   3.4710687  24.3563318
  64.0899420   3.1861171  22.9996562  61.4343882   4.0081301  21.5470099
  62.0796871   3.9784226  22.2533631  60.7706833   3.3671951  21.8018222
   7.0946407   7.0658588  30.6963301   7.6458997   6.7755264  29.9696589
   7.2697437   8.0040324  30.7698226  11.9977996  41.8646283  -0.0481466
  11.4147756  41.2004994  -0.4159121  12.4649617  41.4111636   0.6535335
   0.2688372  60.1150322   8.8590765   0.9813984  59.9415302   8.2439458
   0.7018702  60.2053070   9.7079372  18.2374108  14.5202744  51.8331242
  19.0982592  14.7438526  52.1869373  17.8738248  15.3563225  51.5414762
  25.9675884  54.9703979  55.0273561  25.5666852  54.3788815  55.6642342
  26.7905593  54.5436049  54.7890329  70.2172852  13.3990753  60.2722549
  70.7444811  13.2669926  59.4843149  70.0212765  12.5142777  60.5803871
  74.8875475  60.9577370  47.7067041  74.2626047  60.5777645  48.3241987
  74.3691778  61.1399460  46.9229174  22.6107144  66.9679832  54.0100384
  22.9225183  67.7158880  54.5195866  22.2158694  66.3845539  54.6580648
  16.4879715  52.0229387  25.2251077  16.9128501  51.3398647  25.7438779
  17.2106719  52.5538349  24.8903179  58.1039143  11.4794981  21.8129349
  58.6435509  11.1373663  21.1002183  57.7799082  12.3188972  21.4863420
  78.0225578  44.4558191  28.9818764  77.6697015  45.3309536  29.1426897
  78.1704976  44.4271994  28.0366111  55.7253551  36.0120106  19.3842673
  55.0063753  36.5309477  19.0237081  55.3209209  35.4927921  20.0793028
  56.2974548  29.1695547  43.5523653  56.2389231  28.2225490  43.6788034
  57.2132492  29.3241119  43.3207035   7.4364746  60.3592205  58.6259031
   6.9316602  59.8392963  59.2512608   8.0126935  60.8956194  59.1704035
  50.9398937  13.0282295  54.7062016  51.0756397  13.7454069  55.3254461
  50.1152229  13.2416248  54.2696095  74.3322611  42.8861904  22.1160197
  74.2244911  42.1572590  22.7269793  73.5970926  43.4688950  22.3063159
  24.6322608  59.6151543  52.4951506  25.0125837  60.4912233  52.5591278
  24.2209673  59.4697952  53.3471727  68.1105185  68.3342886  57.5097370
  67.4480009  68.7449789  56.9541836  68.5670757  67.7261591  56.9283867
  73.5272503  31.0145116  15.8165348  73.7991333  30.3682661  15.1648617
  72.5730467  30.9429407  15.8412075  67.9661083  42.0358562  55.4798794
  68.5926914  41.3658762  55.2064705  67.1134090  41.6051388  55.4196978
   3.4756652  56.9590282  44.5638943   3.5486975  57.8709412  44.2822695
   2.9904991  56.5289927  43.8596821  51.3788319  66.1976910  60.5528975
  51.9197941  65.5584764  60.0892210  51.7836523  67.0422697  60.3553200
  57.1997356  19.0552056  16.5803862  56.6053391  18.3513045  16.8400991
  57.1978045  19.6571374  17.3246348  48.5794067  47.4584818   2.6992089
  49.2504501  47.1667862   2.0820829  48.4038210  46.6904306   3.2428098
  38.3901930  41.3707113   3.6899507  37.8946948  41.6088486   4.4735339
  38.8255811  42.1813679   3.4263211  36.7472475   0.0159523  22.0042157
  36.8911248   0.9349749  21.7785382  35.8040344  -0.1109722  21.9018865
  66.6152763  44.9357891  25.7598805  65.7860231  45.1579332  25.3365254
  67.0863724  44.4180727  25.1069903  34.6678209  63.1092691   5.1640445
  34.0062761  63.3910084   5.7958782  35.4114962  63.6913013   5.3203076
  70.4490709  32.0235205   8.2790911  70.8614016  31.7298436   7.4667060
  70.1087093  31.2227488   8.6780244  69.5302629  65.6355476  14.4286358
  69.4600773  66.3195419  15.0945616  70.4644489  65.4297781  14.3941784
  49.7263002  19.0121305  22.3116803  50.6712675  18.8751602  22.3788095
  49.3444920  18.3098805  22.8382707  58.6672783  34.0353751  21.0752988
  57.8918123  34.2858434  21.5774441  59.3464565  34.6452546  21.3633919
  43.5523319   7.2152698  64.4829082  42.6201248   7.2236085  64.2657804
  43.9876223   6.9881833  63.6612082  47.8084612  15.4602766  55.8094645
  48.2599115  15.8359563  56.5652990  48.0588818  16.0230947  55.0768280
  55.0158978  65.0814915  48.8208055  55.0037622  64.4915867  48.0670834
  55.8800888  64.9528265  49.2117643  70.8899260  22.8791785  22.9605508
  71.5849733  23.3296752  22.4807620  70.0830078  23.1466269  22.5205684
  77.0538902  44.6591043  41.9705105  76.9341326  45.1765156  42.7668571
  76.1932468  44.2752743  41.8025780  53.4130859  56.9158363  19.7526574
  53.5146904  57.8670692  19.7199547  53.4271336  56.7054224  20.6863379
   9.9103534  47.9889154  10.9602034  10.8196175  48.0577755  10.6691229
   9.8859710  47.1867418  11.4818883  18.8378155   6.9853902  17.6878929
  18.4733009   6.2763023  17.1582186  19.7635639   7.0133883  17.4461579
  65.0555038  63.2827473  39.4953966  65.4236841  62.4001598  39.5368052
  65.6456900  63.7614012  38.9133263  65.7614136  16.0843182  16.8643332
  66.1999702  16.2919402  16.0392308  66.2509823  16.5735924  17.5255203
   7.7625997  74.2807559  56.8196869   8.3757765  73.7729168  56.2883234
   6.9241006  73.8316149  56.7127991  57.1816111  55.9921598   9.2774421
  57.7512074  55.9284592   8.5108048  57.5785637  56.6779423   9.8144364
   4.3346757  30.7048297  28.4919953   4.9211574  31.4213824  28.2494593
   4.7764286  30.2702451  29.2215300   1.0250884  15.5508411  40.8059978
   0.4292479  14.8186028  40.9642172   0.8909783  16.1344266  41.5527773
  61.1011171  43.5531139  15.1322186  60.7430363  44.0694809  14.4101560
  60.8732605  44.0499401  15.9180164   7.9887861  42.7337360  34.0799856
   8.0202305  43.0608368  33.1809592   8.0163205  41.7812300  33.9894009
   8.6935633   1.8066868  32.3336983   7.9310548   1.5228900  31.8294430
   8.5685056   2.7488714  32.4471903  28.4418559  10.3865933  44.3063593
  28.2148051  11.2980103  44.1219664  29.2354393  10.4404759  44.8388529
  67.4643373  67.4697161  44.4826508  67.1057367  68.2100964  43.9932919
  68.1282139  67.0978069  43.9019728  49.6789455   7.8750294  35.0864100
  50.4360628   8.2195407  35.5600381  50.0380278   7.1817690  34.5326209
  72.3878336  51.2462091  16.9724119  72.5759268  51.5755177  16.0935438
  71.4664030  51.4615297  17.1167517   0.9838414  64.5486736   2.0743877
   0.0966539  64.3852854   2.3944426   0.8614541  64.8587704   1.1771180
   5.4103649  62.8728819  56.2596989   5.6680983  63.7097454  55.8730984
   5.1995260  63.0840206  57.1692038  17.6451373  38.0562258  47.2122908
  18.1884718  37.8237820  47.9652786  17.0099699  37.3432016  47.1460342
  23.8653493  18.1021571  43.6198282  23.5707331  18.4916532  44.4430685
  23.0580592  17.9173577  43.1398630  65.9682226   1.2667760  12.5071311
  66.2263012   2.1007845  12.1146297  65.2470255   0.9571772  11.9591773
  37.6414590   1.2951729  57.3636723  37.4193984   0.3646681  57.3308039
  36.9776779   1.6797420  57.9361534  10.2710104  43.4380674   1.3794872
   9.8899215  44.1213131   0.8279611  10.8802760  42.9769516   0.8029459
  29.1052413  10.0278497  56.6865206  28.8129067   9.8514342  57.5807524
  28.9702940   9.2013258  56.2229681  21.5103769  56.7361736  28.5181403
  20.8623457  56.1032867  28.2087302  22.0229220  56.2557554  29.1683125
  31.5204191   0.9444913  58.3045053  31.7853403   0.0259120  58.3520460
  30.5698633   0.9143153  58.1960344  44.6245575  73.4879494  45.3298187
  44.9724436  73.3041096  44.4572306  45.3264809  73.2291317  45.9269333
  59.3247318  46.3429356  44.8335028  59.8622036  46.7078638  44.1305161
  59.6915722  46.7173195  45.6344414  11.7555928  25.0056529  42.9840279
  11.4302325  24.3359709  42.3824453  11.0961545  25.0461888  43.6766529
  40.8090305  15.7519984  43.6259842  41.1119747  15.8991802  44.5219755
  40.8851624  16.6076863  43.2038069  65.4268312  46.0495806  36.5320778
  65.2199268  45.8412170  35.6210303  65.2077198  46.9770765  36.6213584
   3.9139605  51.2987566  59.2182970   4.7849667  51.3669777  59.6093512
   4.0039799  51.7117596  58.3594847  42.9614561  59.8981707   1.3273712
  42.1114760  60.3367464   1.2897488  43.5747545  60.5321447   0.9556528
  59.0976715  45.3322935  16.0556793  58.8867569  45.7774925  16.8763781
  58.3056831  44.8399353  15.8398831  13.4293246  36.9757819  38.2500720
  14.1348040  37.3269129  37.7067137  13.4951091  36.0267401  38.1441259
  45.0182390   6.9807118  28.9965010  45.1375055   6.9481444  28.0473185
  45.8732700   7.2445470  29.3364191  10.6537199  36.7855477  20.2937055
  10.1227045  36.5149093  19.5447016  10.9169483  37.6827812  20.0889754
  72.9777670  59.5962858  56.5794468  73.8110828  59.9598837  56.8788004
  72.3768330  60.3413391  56.5814686  45.6187248  44.5475435   6.7192930
  45.1208735  43.7409306   6.8525332  45.9600163  44.7644329   7.5868827
  46.6940689  30.5125451  53.8856697  47.1074724  29.8800731  54.4733000
  46.3900375  31.2128043  54.4631100   7.9757237  39.5294189  50.4292154
   7.1891034  39.9345756  50.7943296   7.7742422  39.4085932  49.5012951
  19.3620634  60.9156561  36.9706249  18.4505033  61.1179447  36.7599916
  19.3215096  60.0757170  37.4278879   1.5570068  67.7554655   2.6566598
   1.1453097  66.9284153   2.9071090   0.8293504  68.3091259   2.3734504
  72.2436953  50.2596760   4.7081956  72.8529835  50.7882452   4.1928187
  71.3798952  50.4845810   4.3625045  71.3125801  63.4135485  25.8845925
  71.7991829  63.1768894  26.6741753  70.7192230  64.1089916  26.1683559
  58.0993176  52.6545763  52.1051741  58.3252478  52.5219774  51.1845207
  58.7947559  52.2090626  52.5890255   8.2899565  63.1714010  18.1318986
   7.9686660  63.2957125  19.0249550   7.7600151  62.4540234  17.7843857
  53.4681225  57.3975277  53.0613089  53.1864071  57.1512461  52.1802759
  54.4028378  57.1921349  53.0800629  20.8127689  10.4849958  49.2490196
  20.7003999   9.5754266  49.5252228  19.9302089  10.8545196  49.2768049
   1.3596077  49.6701574  29.8016119   2.2828007  49.6450567  29.5499849
   1.3730332  49.7120523  30.7578015  40.8939743  66.2674141  28.0642200
  41.0428953  67.1486807  28.4068990  41.2275696  65.6853914  28.7470055
  23.3015609  64.3536282  34.7470117  24.0865564  63.8303566  34.5851564
  22.8163576  64.3188620  33.9226317  30.3615022  67.7114296  31.8713093
  31.0881662  68.0350494  31.3388991  29.6406770  67.6013803  31.2512040
  52.4393606  26.1825490   7.3654920  52.9927778  25.4253316   7.1742219
  52.5458956  26.7550683   6.6058183  34.3705964  21.0179090  53.5477114
  34.4704366  20.7315040  52.6398373  33.8734198  20.3156519  53.9670992
  65.7280254  57.1159506  26.7499590  65.9605122  57.7093315  26.0357571
  64.7727108  57.0651913  26.7178154  72.3776293  29.4864583   8.8395286
  71.8312693  29.6419001   8.0690980  73.1847143  29.1098809   8.4887719
  52.8917885  50.6814623  60.1650620  52.6699543  50.7361364  61.0945940
  52.2509003  50.0705147  59.8014069  21.7789078  47.3191261  56.4060116
  21.0904002  47.0730972  55.7882261  21.8831420  48.2629204  56.2850904
  52.8210211   7.0671260  53.6931705  52.8677607   7.9380065  53.2986879
  53.7266684   6.8594599  53.9231825  10.6445670  36.9222283   6.5095377
  10.5047762  36.7407656   7.4389255  10.0308585  37.6287532   6.3084990
  72.6770258  71.5307760  40.8431721  71.9664764  70.9084749  40.6879377
  73.4155130  71.1801863  40.3452206  70.1093960  71.9672108  30.8968806
  69.2682838  72.0663404  30.4508567  70.7585049  72.2347975  30.2462721
  52.5188129  55.2583508  -0.1752714  53.1644600  55.9486882  -0.0242619
  51.7097753  55.5995337   0.2058884  16.4184320  31.8633676  15.9430397
  16.3908398  31.8141532  14.9875045  15.6390858  31.3874364  16.2299871
  69.8270273  18.0618143  10.5159903  70.1503515  17.5302124   9.7886038
  68.9784336  17.6770163  10.7351971  11.9174743  57.6578283  57.8571367
  10.9692550  57.5844955  57.7488136  12.2706878  56.8962479  57.3972845
   0.7616333  44.2188120  40.5743980   1.0450095  43.3045435  40.5807495
  -0.1193767  44.1990995  40.9481192  61.2691784  39.6259451  43.8935947
  62.0475531  40.1787186  43.8242483  60.5350399  40.2360582  43.8226509
   6.1210251  63.9113379  41.5382624   5.6118667  63.1016922  41.5000057
   5.4688179  64.6081114  41.4650154  21.2975907   1.6633871  27.3213816
  21.0951447   2.4358758  27.8491211  21.7620087   1.0789773  27.9205561
  21.8486381  24.6964383  10.8722866  22.2642040  25.4169011  10.3985059
  21.7399549  25.0272489  11.7639053  72.4260330  12.1952605  27.1292043
  72.3368216  11.3372755  26.7143154  72.3484755  12.0172870  28.0665112
  72.7619791  40.1873446  53.9613485  73.1858110  39.7169399  53.2434940
  72.8468466  41.1111355  53.7254715   7.6855463  71.8321466  49.0429163
   6.9505531  72.0319986  49.6226406   8.0082721  70.9845018  49.3488312
  44.6762371   4.4263881  56.5277958  45.2124071   5.0851065  56.9692039
  44.8882198   4.5276058  55.5998659  53.7871599  33.9603472   1.4965354
  54.0392208  33.9871001   0.5735072  54.5194340  34.3704581   1.9567709
  64.5806599  71.8534803  52.2409725  64.9113798  72.0912361  53.1071901
  63.6691093  71.6039705  52.3928165  13.4856009  25.1043844  26.4645505
  13.6028898  24.3177557  26.9971752  12.5524282  25.1124930  26.2515831
   5.5497301  15.5087566  18.2391131   4.7450662  15.7294583  17.7700305
   5.8057070  14.6560466  17.8875566  17.3450410  18.1531978  57.0874357
  16.8873763  18.8504946  56.6178083  17.0627773  18.2515836  57.9967642
  11.7423582  27.3314548  63.5469484  12.5240505  26.8699813  63.8506460
  11.3890243  27.7472854  64.3333817  75.5355406  22.0109701  32.8718328
  75.4927874  22.8855300  33.2585502  76.2088299  21.5574670  33.3790302
  60.6554461  70.8980846  22.7050447  61.1282158  70.0908089  22.9075885
  61.0159922  71.5452957  23.3111405   7.8016227  21.9395733   3.0975908
   8.1056243  21.9313288   4.0051958   7.3151147  22.7598071   3.0153975
   1.4300233  34.7778821  50.2611351   2.1209946  34.1331196  50.4130268
   1.7205127  35.2627850  49.4886589  38.7161422  67.0663929  30.6901670
  38.9032650  67.9674482  30.9534407  37.8798962  66.8631697  31.1092448
   4.8488674  37.0635653  14.6477330   4.0368479  37.1045113  14.1425800
   5.3763264  37.7885580  14.3124664  47.8255367  33.9808083   1.2990957
  48.3541250  33.2593799   1.6402192  47.9204607  34.6760106   1.9501835
  23.8945293  62.5838614  41.9090605  24.1942692  63.4913921  41.9617367
  24.6816278  62.0621824  42.0657730  77.2153378  61.8650389  45.5601454
  76.8729687  61.6467571  46.4269590  77.9107618  62.5003719  45.7303238
  39.3477201  22.2322130   3.8481945  39.5513463  21.9952083   4.7529584
  38.3943844  22.3164868   3.8314340  43.2055807  49.3050146   7.6551545
  42.6263380  48.7538958   8.1814390  43.4583712  48.7504673   6.9170457
  58.6841249   5.8655053   2.9604298  58.6989594   6.1825126   3.8634905
  57.8812885   6.2329662   2.5907534  37.4432492   7.4870789   3.7328178
  36.9146657   6.9074059   4.2812786  37.9873204   7.9729116   4.3526447
  60.2758455  -0.2416457  13.5249758  61.1424780   0.0775321  13.7765956
  59.7987604   0.5446228  13.2596433  62.4491405  25.3036475   6.7347008
  61.5713882  25.6541538   6.8861049  62.5600052  24.6351624   7.4107707
  74.5957756  71.6130924   9.2552513  75.3937769  71.1001348   9.1275865
  73.9600897  71.2199211   8.6572981  11.6105473  66.3201284  36.2049532
  11.3888264  65.4700422  36.5849829  12.5656414  66.3620186  36.2526178
  39.2258930  20.1200628   9.1451478  38.4855247  20.0692773   8.5405755
  38.9610839  20.7721877   9.7938699   7.0567441  52.2377062  62.4972916
   6.2136465  52.6853704  62.5681305   7.3498988  52.4189949  61.6043043
   2.6299077  71.7137098  16.0673165   2.7042419  71.4640236  16.9883835
   3.5076720  72.0113945  15.8282673  64.0081501  10.4525912   2.5660527
  64.8350763  10.8898962   2.3630911  64.1507387  10.0580084   3.4264040
  30.3966045  52.5935555  56.0007286  31.0779381  52.0014048  56.3191271
  30.5988145  53.4342051  56.4114046   5.0854796  66.0328913  56.8770885
   4.6487713  66.8236876  57.1935701   4.8146203  65.9596491  55.9619379
  78.4317064  34.4145155  54.0797710  77.7929020  34.6933508  53.4237146
  78.3162642  33.4661222  54.1385460   4.2011231  64.9887609  54.1744614
   4.7610804  64.5260143  53.5511255   3.3818710  64.4937277  54.1738033
  69.5948935  67.3424959  63.1899023  70.3578520  67.3270082  62.6120758
  68.9996386  66.6915703  62.8181505  18.3353806  27.9729342   2.7553928
  18.5835922  27.1461916   3.1690574  17.4267209  27.8418827   2.4844775
   0.4957960  60.4560423  24.2334604   0.6640467  60.5019188  25.1746416
  -0.2969436  59.9249887  24.1574740  14.7706056   3.3442110  30.8563018
  15.1667118   2.9089862  31.6112280  14.0792000   2.7468789  30.5710220
  53.1478500  59.6992207  16.5850091  54.0375376  60.0069618  16.7581785
  52.8996229  60.1316547  15.7679331  18.8804138  65.6359673  41.0051918
  19.8020923  65.8711767  41.1120510  18.8101971  65.3502178  40.0943422
  34.3655872   5.2709681  38.6044359  34.4919372   6.2164903  38.6835313
  33.5644460   5.1786900  38.0887890  51.7720890   6.8455845  51.1930561
  51.2407780   6.0904956  50.9405088  52.1049595   6.6241038  52.0627594
   0.0904516  48.6190605  16.1279118   0.8070568  47.9845667  16.1388540
   0.0454668  48.9138985  15.2183628  36.8569398  12.7577960  63.3869457
  37.4933839  13.4716403  63.4269333  37.3349452  12.0330346  62.9838753
   2.1219836  68.6134148  29.2292047   2.7100044  68.9145756  28.5365534
   2.2420259  67.6639843  29.2492938   5.5383343  36.3807130  64.3754578
   5.6712151  35.4431725  64.2354774   5.5896252  36.7633009  63.4995461
   6.3680089  47.4598169  31.0870147   6.4420104  48.1624842  30.4412460
   5.4424161  47.2163916  31.0710931  43.3035612   8.9928657  55.9106159
  43.1400108   9.5029211  56.7039156  42.6274347   8.3153450  55.9178400
  65.1124525  73.4154606  40.0821447  64.1694593  73.2522678  40.0630188
  65.1904678  74.3437099  40.3023767   6.7785221  43.8101721  36.0462546
   7.4244893  43.4801865  35.4217005   7.1173906  43.5481501  36.9022608
  55.8189964  58.1179094  43.2916975  54.9167871  58.1294918  42.9721498
  56.1646509  57.2734022  43.0026197  40.6861687  13.6296868  55.0645161
  39.7536540  13.7927997  54.9229431  41.1182404  14.0479314  54.3197870
  70.8288240  25.7685661  49.1976786  71.3230085  25.9382415  48.3956623
  71.2083530  26.3645053  49.8434687  45.4278946   3.8417086  27.9665542
  44.6102047   4.2515811  28.2487226  45.4274797   3.9372134  27.0141292
  12.2141826   1.9822124  41.1005068  11.3761640   1.8045521  41.5275812
  12.3605990   2.9177791  41.2401819  51.3994837  48.6649895  14.0181017
  50.4662275  48.5876608  13.8199067  51.7337894  49.2765999  13.3620489
  21.8929744  72.9351425  55.2596712  22.3547745  73.7130356  55.5724859
  21.0013008  73.2384396  55.0889015  45.4737854   7.8378612  61.5316582
  45.0527525   6.9828737  61.4424276  46.4081240   7.6565194  61.4298916
  42.2156668  14.7910058  19.1070604  41.7071486  15.2578914  19.7701287
  41.6539145  14.7888052  18.3320355  74.6706104  62.9769945  26.8644977
  73.9570618  62.4293327  26.5371633  75.3767729  62.8548145  26.2299609
  56.0471392  65.6301403   9.3278694  56.5905285  65.0639105   9.8759055
  56.1177874  66.4946413   9.7326869  71.8645191  40.3715038  47.9992247
  71.4113140  40.6691980  47.2104168  71.8718386  41.1365843  48.5743999
  50.7274818  37.7717209  13.2633710  50.8848286  37.8931093  14.1997147
  51.5298796  37.3649096  12.9364252  59.5303440  63.8932610  59.8017836
  58.6778259  64.3250608  59.8565149  59.7286987  63.8726044  58.8655901
  20.6999516  67.4336863  14.4017577  20.2034926  68.2516384  14.3750477
  20.2814078  66.8778992  13.7443769  72.3294640   3.4739894  24.2714500
  71.3782549   3.3752486  24.2303681  72.5709009   3.8263804  23.4148526
   2.9982567  47.5800085  45.4788208   3.4559390  46.7463493  45.3703117
   3.4074476  48.1629038  44.8392677  63.5719442  21.5233874  19.9025154
  63.3201122  20.7206225  20.3590035  63.6122799  22.1875906  20.5905843
  11.3860309  46.4236355  47.6547909  12.0768023  45.8278656  47.3647451
  10.7228780  45.8515310  48.0409956  33.4301734  62.0771694  20.0630808
  33.0700707  62.9269123  19.8091316  32.7877212  61.7179918  20.6750274
   5.9427828  38.9047241  22.0658255   6.4027113  39.2222762  21.2887430
   5.5041772  39.6793056  22.4177885  42.2069025   7.8168648  14.2247880
  42.4873447   7.4170822  15.0480473  41.6660738   7.1475714  13.8055277
  55.1610470  71.3693285  59.7861910  55.2363968  70.4596329  60.0743055
  54.2845106  71.6363955  60.0629473  48.0692959  39.6741366   5.9716004
  48.8356733  40.1176596   6.3351738  48.3104134  39.4837356   5.0650448
   5.4463309  51.1526155  18.9148915   4.9803147  51.9574928  18.6885500
   5.2878481  51.0395670  19.8520875   2.4582866   1.7532335  51.2348127
   2.5583449   0.8984909  50.8157253   2.8509369   1.6428363  52.1007633
   6.9474596  10.8485281  54.1320896   7.7422404  10.4337204  54.4674873
   6.2410212  10.4719746  54.6568632  12.9612780  50.8540058  26.7464828
  12.2668219  50.2878952  27.0833588  12.8903210  50.7797146  25.7948112
   0.2405164  46.0893202  54.8689413  -0.0361085  45.5895424  54.1008711
   0.7312100  46.8285179  54.5097113   1.2611142   7.5322843  59.6848249
   0.4555216   7.5281090  60.2017736   1.9622955   7.4710506  60.3335333
  25.3502131  62.6847744  53.2134867  25.9157133  62.5976753  53.9808559
  25.2450347  63.6293221  53.0994463  77.5454140  32.7539325  40.2543306
  77.2596121  33.6073565  40.5802441  77.7278757  32.9008293  39.3262362
  70.5140781  22.5533605  55.4813528  70.4162169  23.1291389  56.2397289
  71.2800789  22.0168018  55.6852627   8.5427463  23.8624382  58.7976217
   8.8144177  24.4231963  59.5242453   7.6088268  24.0434861  58.6915636
   4.1932753  53.4923029  18.7223983   3.7929001  53.9267015  19.4755435
   3.5161993  53.5130215  18.0461073  73.7989044  31.5053082  10.3937185
  73.1096888  31.9187045  10.9136379  73.3436584  31.1543345   9.6283424
  58.4584045  58.0064154  11.0206378  59.1173887  58.6939049  11.1172557
  58.6338234  57.4032927  11.7429256  70.1734114  51.5884447  21.9592452
  70.0605154  50.6472492  22.0920634  69.3153048  51.9630289  22.1581745
  16.7268836  64.6672726  42.4460983  17.5393820  65.0048113  42.0690775
  16.0364401  65.1783037  42.0237637  55.2639484  44.4031906  38.1836057
  54.8408747  44.0178251  37.4163175  55.9470654  44.9679041  37.8221083
   6.2356424  35.4718351  59.4003057   7.1374941  35.5974531  59.6954584
   6.2158436  35.8522177  58.5221577  10.0112081  52.5113869  21.4524007
   9.5892274  52.5141478  20.5932403  10.9345734  52.3423386  21.2651849
  44.6435070   5.8959675  14.7571862  44.5957518   5.9296519  13.8017714
  45.5558872   6.1036348  14.9588621  14.3164396  30.7838249  35.0176859
  14.0208781  29.9835968  34.5835090  14.1626406  30.6220937  35.9485030
  61.0003567  68.4995174  47.3777962  60.2824688  68.5096931  46.7447329
  61.6866064  67.9844999  46.9534636   8.1385535  55.6956816  41.0203028
   8.6640364  54.9221277  40.8160591   8.5563689  56.0712624  41.7952871
  37.4173617   7.2281694   1.2294117  37.3181510   7.4068713   2.1645343
  36.5326428   7.3133683   0.8741002  69.3961763  24.7022295  28.3840322
  68.6321926  24.1933393  28.6553001  69.2600918  24.8589396  27.4496055
   9.0691906  26.9739294   1.9057615   8.4985483  26.2204146   1.7547102
   9.3736035  26.8669963   2.8069440  73.0271959  36.3291502  33.2864547
  73.7659359  36.9376945  33.2734251  73.3626747  35.5548382  33.7382603
   5.6234938  40.8503771  36.4126563   5.7456732  40.7240963  35.4717207
   6.0706955  40.1054716  36.8143487  49.4436550  29.2953801   7.3716718
  49.5054388  28.3771110   7.6347220  50.2854347  29.6742225   7.6248878
  32.9742146  71.4921284  60.8243465  32.6463318  70.8790970  60.1663828
  32.4206352  72.2668982  60.7267952  16.9638002  61.2759829  20.6976485
  17.7267694  61.3413858  21.2719607  16.6403258  60.3848219  20.8296800
   3.2459041  24.2994428  49.0008688   3.0334610  24.8488355  48.2463694
   3.5267743  23.4674788  48.6198425  52.6782656  59.6364450  37.6647258
  52.2357750  59.8078299  36.8334246  52.4920416  60.4086351  38.1988358
  29.8935723  42.0326471  20.8987880  29.5595551  42.9244518  20.9954524
  30.5839014  42.1055651  20.2397275   9.6320581  53.7610722  18.7078524
   8.7322360  54.0763283  18.7924957   9.9920082  54.2584133  17.9734707
  19.1166222  15.6256497  33.1305146  19.4812930  15.7046998  32.2490406
  19.8728287  15.7110560  33.7111092  64.4837761  36.1173034  49.0153933
  65.4131413  35.8887768  49.0323830  64.2114687  35.9460926  48.1138563
  10.8772063  52.6351261  10.3994215  10.3163397  52.0392227  10.8959734
  10.2835679  53.3175230  10.0861204  25.1592803   8.6136705  15.9465790
  24.3087935   8.9432222  15.6562376  25.5220699   9.3223894  16.4779294
   1.9600472  26.6106462  53.8648510   2.4857904  27.4043870  53.7658453
   1.2491692  26.8660069  54.4527912  46.7726183   8.2108349  48.7023592
  46.0003614   8.7128311  48.9628458  47.0952320   8.6567980  47.9192448
  67.7857780  32.6104641   2.2386068  68.0974436  33.1812286   2.9409766
  66.8689728  32.4418569   2.4560274   9.4113225  18.1142497  -0.0198732
   9.5015156  19.0671480  -0.0108829   8.5676771  17.9495347   0.4012718
  31.4181256  13.6516941  12.5135994  31.0889459  14.3225551  13.1117785
  32.3643088  13.7946761  12.4906671  34.6614385  62.6450443  44.7231531
  34.4364309  63.5738087  44.6683598  34.4374490  62.3968506  45.6200743
   3.4182623  69.0209818   6.9092864   2.5151649  69.3347549   6.8624568
   3.9467037  69.7702408   6.6343480   1.9652706   2.1798277  46.9094086
   1.2539601   2.0731243  47.5409794   2.0411183   1.3241011  46.4872551
  36.3923127  74.1688254  31.2940669  37.2949178  73.8876506  31.4439821
  35.9402759  73.3773017  31.0018587  33.2124901  10.3613341  36.5218878
  32.3590899  10.6445527  36.1936688  33.6780572  10.0535095  35.7442474
  15.7963657  60.2920151  31.3233280  15.8116889  61.2476301  31.3761997
  15.8249426  60.1035452  30.3853011  12.2680557  46.6360712  51.5651464
  12.0723617  47.2514200  50.8585501  12.4884439  47.1919012  52.3126173
  50.9731245  67.5257540  42.2353458  50.6263399  66.9046450  42.8758049
  50.6507397  68.3778048  42.5291300  24.7322345  12.5163388  60.0753403
  24.7516251  12.5886571  59.1210699  24.4203544  11.6268206  60.2418375
  66.1741400  18.5841548  33.1000113  66.3435841  17.7414739  33.5212135
  65.6668758  19.0767157  33.7452269  64.2936516   9.0788031  22.2477460
  65.2489901   9.1012532  22.1925068  64.0029383   9.7679472  21.6504192
  55.3997564  38.2743835  41.3870955  54.9320078  39.0334344  41.7353487
  55.1710367  37.5590897  41.9806242   7.9678655  47.6679039  58.0002451
   7.0551705  47.6341677  57.7137470   8.2434219  46.7517233  58.0305099
   3.3531436  50.2054453  53.1068230   3.0686212  50.9428120  53.6467934
   4.2410535  50.4367876  52.8341866  11.4930284  62.5897646  58.7853289
  12.1316648  63.3018446  58.7490606  11.3479614  62.3512745  57.8697395
  50.9660673  29.2119169  10.7030773  50.9327507  29.3893170  11.6431046
  50.9285021  28.2576752  10.6379414  41.6494703  67.7476740   3.9732486
  41.4926195  67.0214272   4.5767346  40.8667660  68.2937145   4.0470365
  44.3997717  68.4547663  44.5231056  44.6667433  68.1957960  45.4050922
  44.4284821  67.6433086  44.0162182  45.5567455  68.4147644  11.3880527
  45.1762581  67.7343798  10.8325970  44.8337793  69.0193462  11.5554714
  58.5561562   2.2149831  30.8151531  58.3164787   2.8757405  30.1653934
  59.1441202   1.6216473  30.3477287  58.2279205  44.4407940  12.6389050
  57.7240133  44.0470648  13.3511436  58.1086826  45.3835583  12.7538192
  40.3313732  63.0841589  37.6940274  40.3811455  62.7429962  38.5869789
  40.7193804  62.3964882  37.1529222  12.4523389  70.2473307  28.9410782
  11.9043434  70.5469608  29.6664429  13.1498814  70.9001827  28.8823175
  16.4455116   8.0609471  28.1038904  17.2443712   7.7130443  28.5001469
  16.0557318   7.3117411  27.6533413  38.9811468  10.9434438  27.1937799
  39.0793991  11.8916261  27.1070075  39.7276282  10.5806637  26.7169285
  39.9305797  67.2759676  41.8156528  40.3262043  67.2511053  42.6869106
  39.0623546  67.6531792  41.9575262  23.7156034  60.1239300  44.4587135
  24.2897201  59.5507717  44.9667597  23.9852548  61.0095835  44.7018909
  37.6438284  21.5214801  43.5142994  37.2239733  21.0881710  42.7712011
  37.0998049  22.2911167  43.6814165   2.0860519  70.7297039  43.5556269
   2.7423149  70.2146482  43.0862999   1.2476271  70.3668404  43.2699633
  62.1205950  55.9709787  32.4777102  61.8526459  55.5426836  33.2907295
  62.1827745  55.2588844  31.8410897  52.5719595  61.2679338  41.8333244
  53.2992125  61.8080425  41.5240955  52.0535755  61.8559599  42.3826313
   6.6326535  10.8253026   4.0413558   5.9604162  10.6104505   3.3946976
   6.3222039  10.4227006   4.8523822  66.5285254  41.9511127   7.4074197
  67.3640728  41.5796566   7.6904446  66.0284853  41.2000608   7.0878696
  14.0343010  32.3484969   6.4412367  14.9370193  32.6612568   6.3819754
  14.0992892  31.4027643   6.3085771  21.1748624  51.0842609  58.1804419
  20.8555555  51.7808628  58.7540388  21.9217205  50.7116365  58.6490440
  60.4063177   0.3810065  30.0026703  61.3169289   0.5034496  30.2710438
  60.2509022  -0.5580235  30.1041627  20.6973767  12.6705456  53.9255857
  21.1857462  12.1424651  53.2940340  20.6813478  13.5477078  53.5427523
  12.7269018  32.6850462  49.5538521  11.8991601  32.6520920  50.0334215
  12.4709618  32.6551318  48.6319876  62.9491472  23.4719491  27.2278881
  63.8317060  23.5048270  27.5969887  62.8100967  24.3452311  26.8614483
  73.6207390   3.1760430  33.8141894  73.7624836   4.0166119  34.2496014
  74.4242716   2.6825845  33.9786935  11.9743514  15.1118565  34.6334839
  11.6427970  15.2601326  33.7478685  11.7879379  14.1892850  34.8076820
   5.1122290  73.7473059  28.7556744   5.6368905  73.0346012  28.3909678
   5.7019639  74.1912985  29.3650341  75.2072430  51.2407780  34.9123049
  74.3269777  51.5439034  34.6898675  75.0952911  50.3137112  35.1226521
  15.9034348  67.4545336  38.9203382  15.8822429  68.3245516  38.5217738
  16.8198144  67.1849966  38.8584614  30.2504969  68.0952978  52.7408314
  30.2987242  67.8569174  51.8150425  30.8114839  68.8669252  52.8190088
  73.2248402  45.2947855  17.6454115  73.7879992  46.0637760  17.5574625
  72.6157379  45.3585863  16.9097817  47.4307537  59.4236040  27.3200130
  47.1873999  59.3079853  28.2385135  47.0869017  60.2862263  27.0878911
  41.1528206  68.9228868  29.0543580  41.8653345  68.8847113  29.6923971
  40.3983307  69.2315435  29.5560670  28.7124991   7.0678401  55.5261803
  27.8224492   7.0984739  55.1753139  29.2548347   6.8087310  54.7812223
  35.1708698  58.8839722   6.9571060  34.5320177  59.1098213   6.2810218
  35.6032085  59.7124243   7.1644306  16.7033052   9.4517785  34.1529298
  15.9805775   9.7754294  33.6152053  16.2909257   8.8465285  34.7692466
  67.1742582  59.8370504  25.4517293  66.3212729  60.0860262  25.0958395
  67.6189089  60.6693268  25.6124520  21.9795656   4.7151405  37.8737211
  21.3843203   4.0951535  38.2950640  22.4708843   5.1047218  38.5969520
  28.2988286  56.1793041  50.3809595  27.3594737  56.3326406  50.4825926
  28.5413885  56.6844606  49.6049356  23.7165165   5.2861702  46.4496422
  23.8694572   5.2948630  45.5047750  22.7696085   5.3930956  46.5399885
  53.8989115  66.0682440  16.4028478  53.1980991  66.0402966  17.0542371
  54.2672586  66.9479132  16.4849269  37.2139478  61.4714432  41.3603687
  37.3065281  62.4187946  41.4612770  38.0364108  61.1134720  41.6944981
  34.5945954  21.5292692  39.0877008  35.2734447  22.0727420  38.6876607
  34.3338609  22.0109391  39.8727131  38.8058233  13.5651636  37.9382467
  38.8603735  13.5343480  36.9830990  39.4181561  14.2561173  38.1909537
  11.0599494  25.4276943  57.5608635  10.5870485  24.5956278  57.5446796
  11.9220901  25.2063847  57.9129553  70.8265018  58.2632637  50.3672934
  71.2988901  57.5114059  50.7247686  69.9028921  58.0230093  50.4411650
   0.3723931  63.2332802  16.4385283   0.5226794  62.3401356  16.7482710
   0.4298615  63.1690311  15.4852176  28.0571222   4.2283452  39.6133518
  27.5890231   4.7040075  38.9271593  28.9725232   4.2442563  39.3340278
  61.1726618  47.9794025  43.3856535  61.4300299  48.7074137  42.8199768
  61.8023300  47.2866869  43.1859159  34.6049554  10.9880550  63.4453161
  34.7882993  10.5119045  64.2551921  35.2596147  11.6860588  63.4244040
  67.6279449   5.6968617  57.5838423  66.8166351   5.6390959  57.0791912
  67.9251242   6.5979087  57.4572277  69.8376560  66.9653320  24.2640901
  70.5838871  67.5502539  24.3953705  69.5534134  66.7373562  25.1492262
  59.0274954  45.9275103  54.8270607  58.7891483  46.0505438  53.9082146
  59.0784645  46.8149328  55.1821804  23.5420656  62.7730513  50.5668354
  23.1359673  63.2617235  51.2827349  24.4440627  62.6320505  50.8545017
  74.2441130  64.6478701  38.5042071  75.0600386  64.9422932  38.9089441
  74.0085506  65.3521776  37.9003072  41.2177372  12.6737952  52.4243832
  41.1854839  12.5926065  51.4711761  40.9812737  11.8041658  52.7469683
  55.4290295  32.1029806   5.8086723  55.8694983  32.1452522   4.9598894
  55.7830286  31.3162160   6.2232995  67.7791214  54.2439938  42.0843840
  68.3742046  54.5576859  42.7653456  66.9460392  54.1114950  42.5367641
  42.2299719   8.9039332  18.5807157  41.5473413   8.4454787  19.0706766
  42.5156021   8.2727855  17.9201829  32.8909850   5.6613505  29.2484069
  32.2283125   5.5865771  28.5617423  33.4248495   6.4110601  28.9854312
  32.8894925  59.1308451  33.6529112  33.7655568  59.3030882  33.3078337
  32.9772997  59.2482710  34.5988154  45.2920151  39.5504141   6.1111891
  46.2060738  39.6965814   6.3548422  45.3035021  38.7289524   5.6199646
   1.5431914  45.3005171  37.8159237   1.3717338  44.5850658  37.2035766
   1.2209655  44.9778557  38.6575270  42.2743177  26.0735202   1.6561987
  41.5615082  26.6266823   1.3365936  43.0591440  26.4298844   1.2399234
  14.2603898  53.1556845  15.5811286  14.7427404  53.5581827  14.8589337
  14.4517159  53.7118387  16.3363230  70.2514887  53.5090733  17.1073353
  70.0710297  53.2916498  18.0218816  69.9444675  54.4104958  17.0103705
  17.8289855  62.9167604  53.0765200  18.0103052  62.6994658  52.1621132
  16.9590306  62.5530291  53.2411671  22.9391265   9.8449361  47.6151419
  22.2651219  10.2345562  48.1720495  23.5340643  10.5682623  47.4174547
  14.6978128  54.4312954  25.7846808  14.7047293  54.0048265  24.9277616
  15.2235043  53.8574982  26.3420296   1.4998354  35.2674818  56.2100983
   1.0556042  34.7859621  55.5122232   2.1160510  34.6363497  56.5818310
  64.2159939  34.8747373   8.4396607  63.4722328  35.2463436   8.9139622
  64.8144293  35.6117129   8.3173078  11.8960888   2.7159269  63.6077314
  12.8140122   2.4496897  63.5551539  11.8874366   3.6130865  63.2741704
  62.5792503  46.0682440  25.4766941  62.9206991  45.3789330  24.9070549
  62.8565645  45.8114624  26.3561201   6.4296729  73.6875510  44.0873766
   5.5251772  73.7869047  43.7903070   6.6091735  74.4881682  44.5803499
  58.3980975  40.8806919  63.9845713  58.5436520  39.9862878  63.6762091
  57.8339276  40.7808410  64.7513662  68.5747433  36.4322734  60.2801561
  67.8986025  37.0634127  60.0337219  68.9730406  36.1714745  59.4497538
  20.1467061  50.1189041  27.7199578  19.1995990  50.0075865  27.8025842
  20.5179143  49.4074488  28.2417536  78.6020837  59.5728254  51.1784601
  78.0370033  59.6121740  50.4068565  79.3398717  60.1438522  50.9643841
  55.7215103  73.3294501  57.9023123  55.4546398  72.6256031  58.4935904
  54.9037003  73.6365366  57.5110102  77.1949387  26.1523294   7.2566080
  77.9171658  25.9818339   7.8612190  76.4654779  26.4084172   7.8209978
   0.5887546   3.1599882  49.7198057   0.8427218   4.0768260  49.6142578
   1.3036571   2.7697971  50.2226973  73.3417225  49.0521288  28.4446359
  73.0613279  49.1937447  29.3488240  73.5418749  48.1171703  28.3995867
   7.9023594  67.2598028  30.3400803   8.3082229  66.5530109  29.8381352
   8.1870669  67.1077013  31.2412119   4.9236351  59.6338654  38.7081099
   5.5666453  59.5909643  39.4158745   5.1507652  60.4290009  38.2260323
  11.5110970  71.7557478  22.5135207  11.6188049  71.7552662  23.4646416
  11.1001527  72.5981808  22.3194408  74.6456718  28.9323211   7.3627198
  74.9404001  28.2724571   6.7350674  75.4088020  29.4947839   7.4950045
   2.8705114  39.9790478  14.4636083   2.9961231  39.0938401  14.1217566
   3.7300101  40.3920794  14.3805468  71.2219286   6.5853268  30.5511451
  70.2841568   6.3937521  30.5404973  71.6371107   5.7643771  30.2867675
  51.2550545  49.9443102   3.1504390  51.4142895  49.7676420   2.2232577
  52.1118164  50.1927757   3.4975022  22.9847479  35.2645516  20.0129676
  22.9045057  34.4130754  20.4428291  22.3573065  35.8240271  20.4707193
  24.2684579  12.6458156  26.4234066  23.5160112  12.2247779  26.8390751
  24.2035770  13.5643446  26.6848016  20.1537919  53.1243229  45.3823137
  19.6899211  52.4537039  45.8836317  20.1197672  52.8134441  44.4776440
  59.6225643  63.4548998  56.9499779  59.3377161  62.6487017  56.5196991
  58.8101387  63.9210129  57.1472836  60.4597807  72.3437023  25.1868677
  60.5935431  71.6921711  25.8752346  59.9582386  73.0402470  25.6105518
  43.2933807   9.5005792  29.1925788  43.7324381   8.6861134  29.4377470
  42.5831556   9.5904666  29.8279786  25.5778027  13.2321846  55.0467873
  26.4850283  13.3015537  54.7495317  25.1015663  13.8681817  54.5129919
  21.3135314  23.5463500  57.9640150  20.4740882  23.1323028  58.1643438
  21.6429496  23.0649900  57.2050619  14.3668401   3.8343465  55.0851583
  14.7152913   3.8686064  55.9760189  14.6436489   2.9806119  54.7523689
  50.7119513  31.8667841  42.2210360  50.1898003  32.2582293  42.9212952
  50.1474810  31.1871481  41.8526602  62.0838737   4.2088866  42.5170279
  62.4815941   4.5258439  43.3279467  62.4021196   3.3104032  42.4294090
  23.0037475  50.2233839  52.0975494  23.5629368  50.9812021  52.2685671
  22.9460621  50.1788044  51.1431313  65.9495449  22.3235607  35.3881264
  65.1396894  22.8305006  35.4462600  65.7147837  21.5560889  34.8664904
  14.2297804  62.4034739  15.0207877  13.6103213  61.7702818  15.3835130
  14.8717105  62.5370264  15.7181549  28.3791065  67.7148724  25.1420522
  28.6899567  66.8484879  24.8794031  28.3176446  68.2058430  24.3226624
  47.2580576   5.1268023  59.2236567  48.0772495   5.4605442  59.5894098
  46.8504190   5.8896977  58.8137150  25.7930970  71.6580391   9.3666762
  25.4879975  70.7923985   9.6383530  25.1302433  72.2617340   9.7019535
  57.0998955  47.9104376   7.7492237  56.6398001  47.1710587   8.1465423
  56.4457321  48.6083078   7.7133667  40.5433941  71.7948246  23.7601995
  41.3045311  71.2659407  23.9993382  39.8662853  71.1547422  23.5410023
  52.8953171  70.0979948  20.1312995  52.0661497  69.9121761  20.5719590
  52.6691866  70.7361174  19.4546175  73.0311060   8.2810777   0.9368844
  73.8423347   8.3706647   0.4367743  72.3799896   8.7610376   0.4251041
  38.8596082  26.8547964  53.9178228  38.2969737  27.2163081  54.6026516
  39.6172023  26.5076303  54.3887329  60.1706457  62.6836014  17.1208346
  59.6315289  61.9018173  17.2408640  60.2819633  62.7545309  16.1727798
  24.4396734  28.6985564   3.4344786  24.4126105  29.2167568   4.2388219
  25.0500846  27.9871750   3.6282966  34.8992038  64.8213720  54.8512650
  34.3577123  64.1421700  55.2533865  35.7883048  64.6248102  55.1463842
  47.4712658  15.8067608  35.0023890  46.8634319  15.0722420  35.0875568
  47.5979137  16.1180031  35.8986688  58.0893230  52.6699924  39.7167277
  57.7402925  51.7887926  39.8505020  57.3245430  53.2423639  39.7778749
  49.7457314   4.4970110  40.4515314  49.2997456   3.8642919  39.8885083
  49.6504450   5.3328556  39.9948955  44.8706388  11.9261706  53.6749887
  45.7436705  12.3124135  53.7447548  44.4678640  12.0889318  54.5279312
  58.1972313  72.6371479  35.0884533  58.6212969  73.4657431  35.3116703
  57.4356270  72.8907156  34.5670199   5.1511014  72.9609394  50.5504227
   4.9141589  72.3165274  49.8834753   4.4817901  72.8620195  51.2275267
  15.9504616  65.3261185  18.1928480  15.8003449  64.3974352  18.0160999
  16.2038708  65.3564405  19.1153967   9.8556697  47.0754147  29.5386410
   9.8041230  47.5224543  28.6938143   9.7293490  47.7698660  30.1851821
   1.3728261  65.2697802  33.3476067   1.2444028  65.4811430  34.2723036
   2.0346136  65.8935642  33.0490065  14.1999197  53.1002188  47.6538706
  14.5164442  52.5816250  48.3935356  13.3426619  53.4200621  47.9350090
  73.9714050  73.8902760  52.7307606  73.3777285  73.6020660  52.0374250
  74.7271061  74.2487717  52.2653246  75.8855629   4.9604946  50.8461332
  75.1280165   5.3543615  50.4134464  76.3918495   5.7061934  51.1683702
  59.7187233  39.5282125  11.5898943  60.2464437  40.0552654  12.1898615
  60.3581619  39.1060948  11.0161591  13.2534802   1.0755151  33.6411214
  12.5511205   0.7821227  34.2215037  13.4713805   1.9536105  33.9536905
  70.3766966  67.7443838  21.0758090  69.4818878  68.0619526  21.1970377
  70.8435583  68.0394888  21.8575954  16.0809362  68.0067444  60.1125622
  15.3602314  67.5965548  59.6344852  16.7407477  67.3174953  60.1888180
  64.5794821   8.8607651  49.9988794  63.6561394   9.0572774  50.1571798
  64.8784924   8.4468693  50.8085155  50.2859449  66.1162806  44.4675112
  49.3675518  66.0350657  44.7247934  50.7751369  65.7665539  45.2122355
  25.9579849  73.4831476  39.2501402  26.3681340  73.2541943  40.0841570
  25.4359746  74.2613125  39.4455862  66.9184685  66.6489363  25.3488946
  66.2044239  66.3631487  25.9187222  66.7027855  67.5557232  25.1310778
  23.9399171  60.8976316  58.8093519  23.9919090  61.0880756  59.7459698
  23.6828828  59.9766016  58.7661219  70.5281639  22.7711606  60.8582973
  70.0231838  22.7378750  60.0458193  70.6197739  21.8553019  61.1210537
   7.2713912   1.9985452  24.1945624   6.8884528   1.6287188  24.9900627
   6.5779924   2.5469074  23.8275099  50.7958364  71.4323092  33.5464573
  50.2154541  72.1335745  33.2504725  50.3824091  70.6293631  33.2293010
  72.5701141  25.9535694  27.8451657  72.0012426  25.4788876  28.4512138
  72.5606012  25.4272509  27.0457125  23.8871050  26.8962836  20.2815413
  24.7021747  27.3014617  20.5777240  23.8719845  27.0512605  19.3370914
  15.8532393  21.3060784  25.3841329  16.5447009  20.7963967  24.9618316
  15.0477171  21.0199070  24.9534655   5.7597458  39.5234418  33.8932085
   6.3314360  39.1477609  33.2236814   5.1807624  38.8039756  34.1449571
  71.1052418  37.3924160   7.1009523  71.8729782  36.8233132   7.1551496
  70.7118750  37.3475909   7.9724360  73.1552029  57.4362421  55.0547743
  73.9470720  57.5516224  54.5295477  73.1030607  58.2300949  55.5870438
  75.3103638  16.3465810  32.0204711  75.8369160  16.4273524  31.2252045
  75.8066463  15.7457864  32.5763297   0.9173635  32.5841713   7.8798783
   1.6656294  33.1512523   7.6934636   0.6531840  32.2470713   7.0238388
  17.1101665  10.9025598  26.7404246  17.2099781  10.5901361  25.8411670
  16.8714678  10.1218188  27.2401214  78.4484331  25.4637146  16.5616155
  78.2748907  26.3124013  16.9688547  79.3988809  25.3629088  16.6137576
  66.2179279  12.0591950  25.6086135  65.7790136  12.7621293  26.0876417
  66.7566919  12.5117195  24.9596238  16.2476707   2.0203473  47.8738260
  15.9178281   2.6582286  48.5067081  16.1666536   1.1770260  48.3193302
  61.8806458   5.8891630  48.7120724  62.7772141   6.0332739  48.4093666
  61.5653801   5.1543617  48.1858540  14.5008624  27.5823689  27.0467687
  14.1172147  26.7114806  26.9438100  13.7604249  28.1823659  26.9574022
  51.1039114  24.8269725  50.0889778  51.5110397  24.9036670  49.2260790
  51.7308044  25.2344322  50.6866550  56.9662857  32.6256251  14.6400988
  57.6568556  31.9870615  14.8178005  56.8486261  33.0882883  15.4697549
   7.6156741  33.7409043  33.3960533   7.6646763  34.4787097  32.7882099
   6.8209016  33.2725596  33.1406689  69.8937798  61.5662813  21.6027832
  70.4266691  61.4977551  22.3949718  70.1552391  62.3988819  21.2095284
  33.4226799  24.5416188  55.7904720  33.8087964  25.1031065  56.4626884
  33.5679579  25.0144792  54.9710035  11.7443621  33.9955997  31.9135594
  12.5884950  33.7038398  31.5692544  11.5953660  33.4440160  32.6815367
  49.6550798  60.3421593  61.8628740  49.9506330  59.4846344  62.1687031
  48.7084866  60.2459526  61.7582655  57.0819044  17.7333450  40.9393263
  56.8401670  16.9161451  41.3751936  56.8716240  18.4159636  41.5765476
  42.5825167  17.6422727  20.8934188  42.3796606  16.8080449  21.3166738
  43.1225300  18.1092703  21.5310144  17.9031384  19.5733356  16.3052428
  17.9123354  18.8610351  16.9445980  17.2030067  19.3392515  15.6959403
  72.4086905  51.5665865  35.4444909  71.6792583  50.9521914  35.5262065
  72.0424652  52.3110342  34.9670911  17.0346892   5.7185847  22.2355437
  16.2665474   6.1335289  22.6279879  17.1509647   4.9097931  22.7341080
  33.9505005  69.8371029  32.4188685  33.3986473  70.2622938  33.0752993
  33.6619592  68.9244270  32.4182153  54.0114975  51.1679411   0.7147351
  53.5807562  50.3220510   0.5916208  53.7943602  51.6643858  -0.0743344
  18.1922019  61.0927200  40.6542444  18.0034482  61.9862795  40.3676128
  17.4816275  60.5678368  40.2857161  53.1147051  44.2239904  56.1531782
  52.6300383  43.8810492  55.4023647  53.3241224  43.4504652  56.6766644
   5.5767375  16.7611432  43.1712341   6.4392942  17.0838201  43.4322119
   5.3557980  16.1059189  43.8331270  26.2942497  71.9484864  63.2645120
  27.1844241  72.1614014  62.9843546  26.2090457  71.0096322  63.0985981
  20.7997298  23.7164283  39.3440199  20.3141022  23.0140638  38.9114881
  20.2946258  23.9050221  40.1349258   1.0992377  28.0645275  44.3379688
   0.7899749  28.5354924  45.1117754   0.9697691  27.1406484  44.5522547
  14.6346927  33.5288787  60.3712606  14.2243266  34.3525672  60.1078892
  14.0406275  33.1643629  61.0273457  22.8516912  19.9838424  33.2936835
  22.8916359  19.0630400  33.0353022  22.5536609  19.9647057  34.2031026
   9.0529084  11.4738905  34.3558073   9.0935868  10.5510724  34.1048408
   8.2065654  11.5660250  34.7933531  70.3232193   6.5602112  25.6951237
  69.4909716   6.3350952  25.2792835  70.4748678   5.8552217  26.3245869
  61.6961002  47.2118473  53.0834341  62.0756721  48.0332232  52.7711868
  60.7872248  47.2390509  52.7843809  36.7680526  73.0192137  42.1788883
  36.4004445  72.6617956  42.9871893  37.6949596  72.7826452  42.2122002
  31.5978003  39.1564131  32.6757598  32.3508501  38.5935569  32.8555989
  30.8402467  38.6350346  32.9412985  19.0811312  36.8384266  30.7767868
  19.2577255  37.4477863  31.4935350  18.8244522  37.3983741  30.0441146
  78.1492710  29.4924808  57.7709103  77.6604366  30.1592231  57.2884941
  77.5578260  29.2236185  58.4738636  69.5727444  32.8780460  11.4862752
  69.8958826  32.5436997  10.6495988  70.2114582  32.5709558  12.1296847
  13.3206904  23.2692790  51.6339064  13.8946939  22.6625657  52.1015072
  12.9925871  22.7636480  50.8903217  17.8600657  70.6167221  41.1525011
  17.8426671  70.7715702  40.2080679  16.9731557  70.3252125  41.3637924
  10.0053489  31.2709069  41.0248899  10.4556274  30.8307171  41.7458057
  10.2341771  32.1946192  41.1279726  68.3674526  51.6587925  54.3896008
  67.4676418  51.3929224  54.2001772  68.4581423  51.5405226  55.3351259
  57.9108429  15.6082678  58.2560968  57.7791262  15.1509941  57.4255657
  57.2775936  16.3258171  58.2375002  39.0097380  71.1432266   7.7740633
  39.7146845  71.4362526   7.1966422  39.3838000  70.4031706   8.2522178
  68.6165428  29.3725967  55.3104687  68.2976627  28.6810398  55.8903790
  68.6146545  30.1606226  55.8538294  39.8093677   8.3502704   9.0307045
  40.6255531   8.1490946   8.5728842  39.1299415   8.2511139   8.3637851
  65.8884382  57.8250933  61.6662598  66.2957859  57.4128962  62.4280977
  64.9523211  57.8254509  61.8660498  52.8834200  17.9617631  49.5315886
  51.9518852  17.9215813  49.3151093  52.9061985  17.9854023  50.4882240
  74.2800379  43.9062595  48.1206989  73.8858700  43.4123898  47.4017000
  73.5387516  44.3244743  48.5586786  28.1004500   3.8830048  26.0390663
  27.9954290   4.6660763  26.5794373  27.9613328   4.1898414  25.1431131
   0.7820133   9.9255610  58.6027288   1.1400608   9.3923831  59.3124819
  -0.0377031  10.2730191  58.9542532  68.7705660  11.7144036  21.7247415
  69.4106483  12.2565079  21.2635994  68.2156801  11.3569689  21.0315084
  75.8159447  29.5309520  23.2771301  75.7822609  29.1734505  24.1644239
  76.0422087  30.4530239  23.3988500  55.5503559  69.3690825   4.0211153
  55.1117229  69.3971586   4.8714346  55.7457447  70.2847433   3.8220552
  26.9290519  52.8382111  58.6874485  27.2487545  53.7320042  58.5643291
  26.1938119  52.7609444  58.0794287  77.1305513  54.7019768  35.4057741
  76.7825460  55.3289747  34.7717404  77.7406883  55.2128744  35.9377027
  11.1879778  46.0963392  32.7061343  11.3793576  45.6740570  31.8687057
  11.3351023  45.4117346  33.3587456   7.2440284  15.3262842   5.1682848
   7.3762530  16.0240340   4.5264944   7.7107763  14.5741785   4.8039842
  61.0220337  48.8744259  11.7012465  61.2282467  48.1865358  11.0683835
  61.6625023  48.7546015  12.4024403  71.5396690   4.3079489  19.6168578
  70.6074381   4.5240280  19.6388996  71.9248390   4.9675325  19.0399468
  53.4167480  47.8822517  11.1197197  53.4017801  48.8352013  11.0308814
  53.1094170  47.5579262  10.2732015  12.5943315  71.0498190  63.3580065
  12.1155095  71.1239815  64.1835117  11.9762993  70.6302214  62.7595043
  63.6219883  60.4228592  26.3562703  63.9074898  61.2024450  26.8326855
  64.1152191  60.4492092  25.5363536   2.4599689  50.2474213  34.2094636
   3.1537408  50.3645086  33.5604620   2.0270079  51.0999584  34.2536926
  69.3033457  52.2804642  39.8897505  68.8252783  53.0492496  39.5788646
  68.6423492  51.7521477  40.3371859   0.5941746  28.7675953  24.7717953
   0.5300758  29.3298292  25.5438161  -0.0759604  29.1019678  24.1756845
  59.4238901  35.0438452  47.9072809  59.1389894  34.7511125  47.0416164
  60.1091862  35.6878543  47.7288008  15.1357734  34.1644692  24.0566611
  15.7106113  34.6678448  23.4801126  15.2698457  33.2540798  23.7931299
  53.4660482  16.3057649  46.9673538  53.6246061  16.5794599  46.0639286
  54.0782499  16.8271983  47.4865389  16.3174462  24.4842625  54.0712214
  16.6906655  24.6971369  53.2158709  15.5212593  25.0130248  54.1234446
   0.9292123  18.1865346  48.9690876   0.7470115  18.7032783  48.1842279
   1.8449946  17.9240966  48.8758135  21.4115143  13.5247004  25.5519009
  21.7108965  12.6862419  25.2003503  22.1485567  14.1194725  25.4131627
  48.5937214  66.4623117  61.3523102  48.6920261  67.3045444  61.7963982
  49.4634342  66.2747431  60.9992599  77.7937269  19.0025258  18.4218729
  77.1897364  19.6168065  18.0046356  78.5545969  18.9831722  17.8414154
  56.3482857  32.5714326  62.9420042  56.8415928  32.4557304  62.1299171
  56.6804886  31.8875599  63.5235453  71.4857101   1.4806992  19.8349178
  71.1799049   2.2881407  19.4216955  71.7151260   1.7403053  20.7272220
  68.2532644  73.2535076  27.1368527  68.0719662  73.5396194  26.2415862
  68.7917805  73.9527655  27.5073528   8.7684137  50.8966637  36.5056944
   8.2631737  50.9604216  37.3161888   8.1077039  50.8393717  35.8154678
  62.3682737   6.4001119  11.8901551  61.6318178   6.4794773  11.2838817
  62.2510290   5.5423301  12.2984362  17.1359563  16.5454161  60.2086258
  17.4004412  16.4454186  59.2941427  16.5171325  17.2756374  60.2005005
  22.0889091  31.3921690  18.4595120  22.0987582  32.3479462  18.5107350
  22.8835297  31.1195254  18.9182866  73.7910891  36.2815022  55.4032612
  73.6804438  35.3349352  55.4927158  73.3228254  36.6492653  56.1527395
  18.4714317  53.5974693  24.0835404  18.9628351  54.3861914  24.3130445
  18.2895398  53.6921835  23.1485677  58.8047934  25.2649784   3.2609707
  59.6186638  25.7588053   3.1610492  58.2846546  25.5026484   2.4933782
  20.3856206  16.8955374   3.5062397  20.8977938  16.1390662   3.7920049
  19.8546028  16.5653074   2.7815321  21.5367198  71.5723515  59.6629906
  20.6936812  71.1211920  59.7073650  21.9822502  71.3277721  60.4741096
  13.0713725  44.0331316  50.9317636  12.7821136  44.9213982  51.1404276
  13.8646364  44.1558456  50.4103184   5.9276891  68.0937195  52.3129654
   5.6996989  67.5899982  51.5316105   6.6568089  67.6123333  52.7039671
   0.6879267  50.5979729   6.0651350   0.9469417  51.5173674   6.0029918
   0.6079626  50.3096819   5.1558906  77.9675802  55.4029036  24.7643590
  77.1309643  55.7867479  24.5017385  78.1385683  55.7713270  25.6311107
  24.8407578  28.9295721  33.0536103  24.1324210  29.5634246  32.9408169
  24.4636106  28.0962300  32.7715945  66.4639902  36.1475325  46.7880678
  66.2125826  36.2581754  45.8711243  66.8394375  35.2679920  46.8290234
  75.5683517  29.5634222  53.8675451  75.1914883  29.9430561  54.6613216
  74.8350334  29.1172981  53.4439278  16.4755237  68.5830212   6.8262678
  17.2423065  68.2759285   6.3425624  16.3456905  69.4818449   6.5237856
  56.8198442  58.8248158  31.0367322  57.1512747  57.9292154  31.1022258
  56.2433004  58.8115692  30.2727604  12.9967058  33.5958028  21.6703200
  13.7459326  33.2415915  22.1493053  13.3859718  34.1070318  20.9608507
  70.7241917   5.1717800  33.8749719  71.1066961   5.9206539  33.4176826
  70.8871794   4.4281077  33.2947826   0.3757071  67.0332718  22.1398830
   0.3895018  67.3859596  23.0296326  -0.1160873  67.6798058  21.6335583
  59.8074150  21.2080288  10.7513559  59.5172834  20.5538130  11.3870120
  60.7631636  21.1715579  10.7893872  58.1643772  18.3860278  29.9448538
  57.8187990  18.0474770  30.7708001  57.5974941  18.0053616  29.2740607
  23.1771684  43.6129856  22.1509290  24.0533209  43.9603376  22.3180676
  23.3172369  42.8988647  21.5291262   9.0137982  35.9869123  18.4546769
   8.4275132  35.2353597  18.5422432   8.9929295  36.1995268  17.5216222
  61.6859484  28.9403009  46.6247082  62.4951601  29.3061972  46.9818163
  61.0119820  29.5799875  46.8544960  28.5494137   8.2358247  15.1459074
  28.4118795   9.1293842  15.4603410  27.7067995   7.8021467  15.2806497
   3.6871403  15.0738800  41.0348988   3.5398981  14.6772540  41.8935251
   2.8882256  15.5715179  40.8607626  69.5153570  10.9793329  60.5916071
  69.7709227  10.0695479  60.4392529  69.0771914  10.9657526  61.4425230
  76.4635277  46.7758703  27.1044445  77.0688677  47.4710178  26.8464375
  76.3721704  46.2345839  26.3202906  75.4230213  13.9913213  47.5143433
  76.0225630  14.6810734  47.2296953  75.9870625  13.2346785  47.6742935
  62.2484398  28.2746220  18.3574259  61.8972206  29.1495371  18.1919086
  62.6933622  28.0372739  17.5438285  70.6170368  12.1460903  19.6645939
  71.1810589  12.9192841  19.6814859  71.2167597  11.4095163  19.7830224
  69.4489336  69.1926527  32.1123648  69.4309378  69.9278212  32.7250934
  69.7799206  69.5687056  31.2967277  71.9938755  52.1393061  40.7001114
  71.0399199  52.0720577  40.7410860  72.3086405  51.4024973  41.2238216
  39.5173359  65.9019184  61.3819075  39.0887856  65.1780033  60.9252691
  38.8431787  66.5785980  61.4439106   9.2357618  63.0637503  25.5429530
   8.4149826  63.4086323  25.1913714   9.7784394  62.9034710  24.7709155
  76.6700935   7.6220220  14.4592702  76.7091990   7.8706604  13.5357535
  75.7573318   7.3711938  14.6013391  49.3862486  10.0697482  28.3239722
  48.7920380   9.4226503  28.7039828  49.1299629  10.8978152  28.7299967
   4.8342982  41.5075064  22.2445631   4.7402656  41.4420271  23.1948781
   3.9397025  41.6176558  21.9223857  57.1283817  68.6267662  29.7319794
  57.2633743  69.5236397  29.4259930  56.9267368  68.7191725  30.6631255
  74.8288107  50.8008718  18.4287179  75.1545811  50.1338720  19.0330482
  73.8839149  50.6518221  18.3942056  56.4411116  67.5507164  57.1819782
  55.5520201  67.2262907  57.3251390  56.3236141  68.4639740  56.9204617
  23.2391739  25.5616951  25.0013185  24.1539907  25.3784895  24.7873640
  22.8554440  25.8599949  24.1766977  66.1989546   7.2931701  54.4811964
  66.1074638   6.5158898  55.0322819  65.9787083   6.9896483  53.6005163
   3.8771772  24.4328547  21.2275052   4.0520790  23.4938192  21.1654115
   3.1129831  24.4967842  21.8003511  15.0636268  52.5449276  32.6346350
  14.4361103  52.4496174  31.9181347  14.6172726  52.1724701  33.3950758
   1.5557143  32.9231644  47.2285700   0.9711125  33.6630249  47.3931265
   1.5097556  32.7874780  46.2821531  14.8092270  54.0032005  23.0514145
  14.2806327  53.3492088  22.5941253  15.6722879  53.9425039  22.6419377
  23.0138564   3.9540666  48.7845755  22.2963023   4.2321754  48.2153606
  23.7683105   3.8801098  48.2001400  12.4878883  37.7306986   0.6836256
  13.1209564  37.5765681   1.3848391  11.6671526  37.9185891   1.1389513
  74.5070457  24.1961288  18.3325136  74.5839930  23.3400965  17.9111803
  75.3397655  24.6301436  18.1469190  15.0637972  70.8716917   6.3450408
  15.0036705  71.8251085   6.2849653  15.0186765  70.6874990   7.2832680
  72.5703907  19.1585541  59.3046284  72.6967859  19.3470156  60.2345419
  71.8955898  19.7769356  59.0244865   8.3137119  32.5100613  38.8252258
   8.9292455  32.2754550  38.1307387   8.8401079  32.5019169  39.6246457
  72.2192860  25.6837893   2.9818517  73.1643057  25.8295584   3.0256867
  72.1298075  24.7928238   2.6436126  67.2604179  23.8360786  18.9780641
  66.7568541  23.6404657  18.1878793  66.9514990  24.6998978  19.2512250
  52.9719257   8.2925838  49.3762922  52.6098728   7.7856618  50.1030493
  53.9151716   8.1361955  49.4216585  73.7720251  38.8227844  51.4223957
  74.5194483  39.3626499  51.1652231  74.1609383  38.0785537  51.8818474
  61.7634344  42.8324032   2.5438577  62.2825718  42.7352810   1.7455484
  61.9598198  43.7174320   2.8510779  70.6441402  20.6633997   2.9344121
  71.1737967  20.3419852   3.6640632  70.4313946  19.8788226   2.4290320
  11.3100827  59.8463821   6.9571173  10.9904969  60.7194996   6.7296147
  11.3077378  59.3670607   6.1285782  17.8575897  70.8627653  32.1356821
  17.8952515  70.6874466  31.1954284  18.1036925  71.7841578  32.2175646
  12.4115348  21.7471957  42.3231697  11.7137241  22.4011493  42.2827148
  13.0895317  22.0838451  41.7373228  30.3826332  58.0261850  35.9235549
  29.6088505  58.0946398  36.4828467  30.0358009  58.0443001  35.0315833
  22.1886778  32.1029544   6.7311025  21.4438605  32.4056816   6.2116456
  21.8436718  31.3688374   7.2393066  60.3323030  15.2005744  28.0222821
  60.2533770  14.4451082  27.4398088  59.7828817  14.9812520  28.7747884
  53.5529423  17.7582037  28.2064438  52.9316235  18.3405995  27.7693987
  53.0376291  16.9835258  28.4312916   4.6106976  19.7576833  41.9667816
   3.7597650  19.6837592  41.5347147   4.9554151  18.8647211  41.9712734
  58.7021160  16.3757777  13.1863666  59.3391943  15.6770194  13.0376995
  57.8781462  15.9174955  13.3515477  13.8617539  36.9647002  31.2100506
  14.2315078  37.2820854  30.3861690  13.7819779  36.0186625  31.0880733
  68.2273293  27.4545646  42.7056742  68.3250046  27.5052714  41.7548180
  67.5329781  26.8097568  42.8410673   5.8821082  22.7835298  11.8986452
   4.9621457  23.0287790  11.9974124   6.0118854  22.0795989  12.5341523
  10.1284683  10.9024274  14.1551471   9.8706114  10.6035292  13.2831371
  10.6413126  10.1785111  14.5145440   9.2750770   4.8357323  24.8067951
   8.3608568   5.0352091  25.0083923   9.4133419   5.2026117  23.9335728
  27.5129604  48.5517073  30.0248361  26.6441584  48.9015532  30.2223802
  27.8873301  49.1766834  29.4039583   9.0687311  23.9100313  29.0358949
   8.4437793  24.4477153  28.5495162   8.7339497  23.0173540  28.9505816
  36.8797612  21.2205267  14.3577909  36.0706329  20.7223654  14.2421257
  36.9214582  21.7911863  13.5904312  69.4223166  60.2491808  12.0706785
  70.0518656  59.6699429  12.5000763  69.0075207  60.7267284  12.7890980
  75.5058098  72.4386120   4.6299776  74.7621584  72.8505039   4.1900218
  76.0478926  72.0997429   3.9175534  23.1437635  52.8411293  30.0966907
  22.3956895  52.8960323  29.5020437  23.0881596  51.9619083  30.4710054
  57.3042488  50.0991058  40.1003456  57.7090645  49.5159292  40.7424212
  56.6376066  49.5603466  39.6742535   8.6553657  30.5074763  22.9027057
   8.1600040  31.3095284  23.0687213   9.4381738  30.5924535  23.4469676
  67.1283960  29.2135262  59.3616915  68.0376625  29.3151164  59.6430254
  66.8214273  30.1083517  59.2157793  10.0312603  71.2926340  52.2369623
  10.7083845  71.9604111  52.1283007   9.7215754  71.4094830  53.1351137
  29.2709446  28.9125419   3.4830317  29.0016413  28.0522513   3.8049126
  28.8292909  29.5338821   4.0619195  19.7759342  18.8502610  31.6277790
  20.3298140  19.6309149  31.6223931  20.3930902  18.1188393  31.6470718
   3.9371526  43.7500286  40.9524059   4.3901819  42.9250860  41.1269426
   3.0095208  43.5146570  40.9341621  15.6508625   0.6922773  17.3127210
  15.9943855   1.5729162  17.4633837  16.2132001   0.3296906  16.6282213
   1.6650632  61.2429237  26.7664194   0.7754665  61.4470291  27.0548463
   2.2237939  61.5400362  27.4845934   2.9755116  38.3410430  28.0505228
   2.3352331  37.9884362  28.6685395   3.8204855  38.2119536  28.4813213
  27.6284575  13.6591280  46.2075186  27.7836514  13.2328987  45.3646231
  28.1900263  13.1864834  46.8219137  35.9200120  25.6556463  19.0299022
  35.8715725  25.9398627  19.9426484  36.3877463  26.3616085  18.5837233
  46.5309477  63.6021948  40.9110022  45.7822943  64.0107584  40.4764652
  47.2355461  63.6445475  40.2644920  20.4338145  35.6244349  28.3756733
  19.7803044  35.6398535  27.6764441  20.0052643  36.0580015  29.1136408
  15.1177931  55.5074215  17.0448947  15.9234154  55.9502888  17.3114896
  14.5935762  56.1927891  16.6305304  15.3183115  30.0627804   5.9279007
  16.2592721  29.9237490   6.0351181  14.9212217  29.2364168   6.2029928
  21.9241977  45.6344700  12.4878681  21.9403934  46.5846395  12.3731863
  20.9972572  45.4221821  12.5971723  28.0666614  30.8953023   8.5900098
  28.6742663  30.2310562   8.9153206  28.4688687  31.7285228   8.8353789
  66.9411182  34.9512959  42.6079464  67.0506763  35.8066511  42.1924973
  67.7378368  34.8323441  43.1249809  76.0648584  69.8180389  13.8518465
  76.1064148  69.8907471  14.8053753  76.5635824  70.5699873  13.5323417
  10.6355321  48.6776018  23.3612251  10.1635146  49.0926981  22.6393342
  10.0045681  48.6592054  24.0807939  69.4459391  40.7077265  25.2067804
  69.7166157  41.4464378  25.7520080  68.8897991  40.1789045  25.7788730
  21.8408370  15.0481737  34.2168736  22.7843714  14.8921955  34.2574573
  21.4593434  14.1787100  34.0955186  38.9987874  71.6457844  42.7308702
  39.2512250  71.8331575  43.6349726  39.7735381  71.8686152  42.2147894
  66.7809343  57.8517580  29.4815230  67.0370722  58.7213564  29.1742444
  66.0419607  57.6086998  28.9237857  32.9008746  73.2340097  44.5978928
  33.8354802  73.1622696  44.7917938  32.4816012  72.6335907  45.2142859
  51.5022945  63.3873606  43.3004379  52.3392773  63.6552763  42.9210711
  51.1213493  64.1984081  43.6370611  74.5428610  50.4143572  43.0391932
  74.4906044  51.3694906  43.0742311  73.6844110  50.1391697  42.7173710
  18.1528056  57.9268837  35.5098391  17.9054594  58.5968399  34.8724937
  17.9967701  57.0974588  35.0582433  60.3041077   7.7998364  40.6563663
  59.6621275   7.1170503  40.4616928  60.0234985   8.1595278  41.4978600
  62.1538687  52.7864885   6.7011809  62.8906393  52.7480698   7.3110366
  62.5129509  53.2029295   5.9176821  61.6491175  67.5062799  50.5371094
  62.0997334  68.1798267  50.0276947  61.8554878  67.7166224  51.4478254
  25.8672500  46.7856359  27.4328041  26.8075824  46.9080019  27.5633192
  25.8001804  45.9891558  26.9061589  15.7957721  58.6672211  40.5809641
  16.1782873  58.2512331  41.3535404  16.1999023  58.2148170  39.8405313
   0.4028094  38.0825019  17.1873164   1.3521002  38.1211495  17.3038721
   0.2493016  37.2460723  16.7479396  76.3964462  37.6943064  40.3878021
  75.9853029  37.0093536  40.9150839  77.0572853  37.2340536  39.8704123
  47.7197790   1.6183390  43.0313540  48.2530308   1.8282293  43.7980509
  47.4406052   2.4693221  42.6935339  20.7402992  27.0657301  38.8223124
  20.7232809  26.1098766  38.8701272  19.8179853  27.3217440  38.8172007
   5.3533399  31.9565511  54.6101522   6.1062318  31.6318274  55.1040554
   4.7543651  32.2899365  55.2782202  72.9562521  31.3622832  23.1415200
  73.7137604  31.7501116  23.5797000  73.0699825  30.4188681  23.2567048
  22.2550845  69.1778708  49.6751118  21.7278671  69.1621161  50.4738760
  22.4485278  68.2573748  49.4976139  43.3447790  41.6864920  19.0526712
  44.2265987  41.9353914  19.3295765  43.4093142  41.5942764  18.1021106
   6.4685327  36.1863279  22.5620914   6.2091762  37.1000481  22.4434090
   7.2508216  36.2289023  23.1120396  17.2748852  31.9156289  31.2524986
  17.6122427  32.7434444  30.9102392  16.7016578  32.1711111  31.9752502
  19.2950165  43.9507294  55.4285049  19.5168459  44.7764826  55.8587933
  19.0527141  44.2025375  54.5373726   7.5301266  45.1612234  29.7905374
   7.0850021  45.7364559  30.4127932   8.1490558  45.7329416  29.3363357
  22.5552917   9.7027707  15.9940469  22.1864915   8.8879400  16.3350272
  22.5625253  10.2953982  16.7456937  29.7476459  44.9193144  28.1059599
  29.8278809  44.3153572  27.3676991  29.1665554  44.4707870  28.7202811
  36.0139084  31.9829988   4.4937786  35.4794168  32.2703838   3.7535343
  35.9619117  31.0275078   4.4700831  19.5481467  24.5753360  26.2988997
  19.8731136  25.4381013  26.5563226  19.0850914  24.7296977  25.4755020
  55.1864243   4.5337671  26.1348271  56.1046171   4.8039135  26.1214805
  54.9355173   4.5834824  27.0572186  77.8663588  58.7872839   0.3511057
  77.1221685  58.4972906   0.8786663  77.4874163  58.9977217  -0.5023287
  18.7684202  28.3979177  24.4602680  18.8387597  29.1424394  25.0577402
  19.4466221  28.5534191  23.8029313  20.4588914  42.8769398   7.0738226
  19.8967123  43.0974865   7.8164840  20.6023574  43.7107277   6.6261119
  57.2720480  65.9033394  12.8947759  57.4330187  65.2213383  12.2427082
  57.1331167  65.4251242  13.7122369   3.7434074  47.3586369  31.2055278
   3.6386123  47.5503922  32.1374512   3.0398539  46.7405272  31.0075879
  46.6739082   2.3109706  52.7700233  46.2045002   2.0150286  51.9900846
  47.5471210   1.9285506  52.6835299  78.0007458  56.4123678   4.2638698
  78.0941200  57.3369598   4.0344250  78.6774206  56.2597513   4.9234509
  62.1886349  68.5806608  25.4692173  61.6004181  68.1153917  24.8744440
  61.7193127  68.6006021  26.3032269  69.5370722  34.0638375  38.5052252
  68.6847925  33.7178588  38.7700844  69.3995333  35.0081611  38.4305954
  71.1208677  24.0683174  34.6419549  70.6208277  23.4477735  35.1721573
  71.2182331  23.6348796  33.7940860  48.5614491  12.7245724  29.5228624
  47.8081036  12.2345507  29.8523831  48.1927872  13.3210421  28.8712907
   2.5617442  44.7658682  58.1139088   1.9995260  44.3449354  57.4635553
   2.5574404  44.1650295  58.8590288  24.2725682   7.6048452  20.6455755
  24.2852306   6.9611883  19.9372125  23.4604025   7.4241996  21.1188483
  20.3603148  19.4732547  25.0745416  21.1679435  19.1765130  24.6551204
  20.5160785  20.3978992  25.2668977  54.1684961  27.7790284  59.7710896
  55.0293112  28.1296301  59.5423889  54.3081474  27.3239565  60.6015348
  59.6277666  10.0058925  52.8389883  59.8574591  10.9308970  52.9275322
  59.9282169   9.6053469  53.6547852  77.9748631  64.1325283  42.2927570
  77.7484655  63.3945465  42.8587532  77.5208855  64.8803663  42.6811838
  57.1673822  38.4736204  11.4615703  58.0743790  38.7784076  11.4352679
  57.1738148  37.6589227  10.9591186  77.7772656   5.2495801  58.4592438
  77.8826107   4.4016016  58.0278921  78.2449670   5.1558936  59.2891312
  68.0836153  55.6282091  36.3044572  67.9571724  54.8440552  36.8386340
  67.4714375  56.2675095  36.6688323  74.9277353  33.7789583  43.8487196
  75.0433445  33.0277395  44.4305563  74.6556473  33.3962417  43.0146170
  23.8343859   3.1581959  25.7335663  23.5617018   3.1860295  26.6506815
  24.6813989   2.7125907  25.7489514  68.7997103  62.9631805   6.4809686
  68.0358458  63.2636023   5.9885377  69.2219782  63.7676239   6.7822814
   3.1559396   6.4296347  29.4541621   2.5479770   5.8867246  28.9523029
   3.4542185   7.0930535  28.8319588  27.1976805  28.9656019  18.3764601
  27.8421760  28.5608172  17.7959371  26.6754389  29.5250154  17.8015244
  32.1054935  13.7632418  44.8807335  32.0078278  13.5259748  43.9585638
  31.5210295  14.5120704  44.9985790  12.2191989  56.0761118  37.1390724
  11.3349009  55.7204866  37.2272730  12.6486969  55.4967070  36.5097427
  73.7682247  35.2365541  20.4268312  74.1280985  34.3798518  20.1970840
  73.0182266  35.0386977  20.9877086   2.7417025  21.8135881  16.7228293
   3.5410032  21.2888432  16.7674828   2.5188553  21.9888425  17.6370811
  48.3040714   6.4514965   8.9997798  48.7474966   6.4725697   8.1517440
  47.6852131   5.7247484   8.9284748  16.7830265  56.7396784  38.9830112
  16.5884185  55.9507036  39.4888520  16.3509405  56.5969276  38.1408978
  24.2432046  70.3774166  35.8289313  23.9009333  69.4837189  35.8093333
  24.0842271  70.7141685  34.9471402  75.9379625  50.2574110  15.8589697
  75.1116848  49.8156595  15.6631351  76.0526800  50.1435661  16.8024266
   1.9147538  64.6596718  41.2724304   1.0275944  64.4468117  41.5620327
   2.0529908  65.5601501  41.5661240  15.3427696  27.8951573   1.8400666
  15.3544521  28.1716871   0.9237550  14.5831168  28.3407402   2.2150519
   8.4232104  50.4439926  43.8734150   8.4243566  49.4913864  43.9671040
   7.7394629  50.6202745  43.2271576  18.9768958  35.3907609  20.0258255
  19.0034556  34.8518014  19.2352247  19.5612407  34.9451733  20.6391978
  17.5508046  29.5359874  53.2291603  18.1523049  29.0195465  52.6927662
  17.7929711  30.4451036  53.0528259  39.6066070  40.3032780  14.0903783
  39.0550566  40.0100279  13.3651006  39.4359589  39.6736264  14.7908413
  73.6511850  68.8153982  21.1988616  74.2255497  68.0496931  21.1927581
  74.1652393  69.5037746  20.7768273  33.9200830  15.8599305  56.2674379
  33.3823395  16.2881291  56.9335556  34.5722651  16.5179336  56.0267782
  41.5079689  11.6286910  44.6718216  42.0269537  11.7179501  43.8724995
  40.5994034  11.6608155  44.3723154  60.1591015   2.7661005  16.4406991
  59.5962000   3.3376288  15.9184659  59.7190142   2.7063128  17.2886264
  24.6239471  39.2505574  25.2912617  25.1431179  39.2313290  26.0952044
  25.0456929  38.6100793  24.7184181  72.2648525  23.2764030  14.4702923
  72.3181772  22.3910785  14.1103089  72.8795958  23.7867308  13.9431453
  63.7864351  65.6228828  33.5778475  64.5386696  65.8005857  33.0132318
  63.7213564  64.6680832  33.5966849  70.5944252  37.7482128   9.7193056
  70.2472496  37.1909237  10.4158163  71.0322762  38.4634948  10.1807070
  14.9341607  49.1444111  28.4248638  14.7652960  49.4104433  29.3287134
  14.2115402  49.5236063  27.9246020  16.6958418  21.3617100   0.4517837
  17.4406519  21.9439377   0.3017851  16.9286814  20.8735479   1.2415405
  64.2860556   5.8717704  24.0910006  63.6225510   6.5585363  24.0250564
  64.6658182   5.9884638  24.9618578  16.6560996  44.9994326  22.6119614
  16.8010545  44.1566515  22.1819115  17.3676288  45.0690603  23.2484436
   6.5873468  36.6277671   4.6892694   6.2080890  36.5303922   3.8158202
   6.9399035  37.5176167   4.6994609   2.3996283  44.5824146  33.7518120
   2.1968335  43.8804102  33.1335092   2.3478261  44.1661549  34.6122050
  20.5341482  33.5592794  24.7722888  19.6969569  33.8068295  25.1647925
  20.7658744  32.7358341  25.2017951  16.5268922  35.7137656   3.5237268
  16.7428458  36.1669946   4.3386996  17.2855484  35.1560712   3.3515334
   1.5826106  42.6585960  31.8831325   1.1253844  41.9358778  31.4531875
   2.3554659  42.2530603  32.2761559  16.7762077  62.0842648  15.9426630
  17.1100640  61.2055111  16.1231077  17.2477686  62.3631382  15.1577485
  57.7408218  66.7744350  17.3330724  58.5893583  66.3908529  17.5546086
  57.2736311  66.0748672  16.8763781  33.3459687   1.4312868  26.7093682
  33.3155107   0.4808555  26.8188405  33.7421012   1.7530835  27.5191569
  74.5363903  12.4173236  35.5995488  75.1031923  12.5997496  36.3490081
  74.8340464  11.5672696  35.2754498  32.5082517   0.9963536  23.9708638
  32.6221776   1.1762057  24.9040890  32.5771213   1.8540365  23.5514975
  76.7788315  28.5893250  40.8857870  76.0123682  29.1003323  41.1458492
  77.5204468  29.1744852  41.0401344  38.5719776  36.2871194   2.8299361
  38.7366748  37.0041895   3.4422407  37.7595854  35.8880520   3.1413779
  12.0741332   8.4815031  35.0485444  11.5022624   7.9514819  35.6037688
  12.3900163   7.8732580  34.3803477  70.7224607  11.7738891   4.0125248
  70.4675579  12.1484804   3.1693548  70.4753065  10.8513129   3.9492789
  14.5796728   0.4751245  13.1052256  15.3973079   0.0647071  13.3867586
  14.7098470   0.6542643  12.1739924  45.1865768  24.7779226  51.9449329
  44.5355844  24.4420052  51.3288116  45.6707621  25.4362416  51.4465237
  63.7623167  43.9314508  58.7331772  63.2878304  43.1134701  58.5848570
  63.1667328  44.4610929  59.2632627  12.0975399  19.9600673  44.2984009
  12.2621071  20.6176090  43.6225414  12.2785699  19.1242182  43.8684988
   9.5844346   4.3817902  42.8770685   8.9305103   4.6787834  43.5098457
   9.5347404   3.4265107  42.9117632  35.8249974  61.3635540  54.0302515
  35.9518981  62.0630503  53.3892870  35.1400375  61.6931438  54.6120024
  70.1798677  32.0977497  46.3696003  69.7025299  31.3848066  46.7939758
  70.1489782  32.8161097  47.0014524  62.5519085  16.8534577   2.7148733
  62.2975731  16.5086794   1.8589091  61.8495846  16.5760744   3.3031219
  22.9058957  47.7997684  25.2725482  23.3464813  47.3886871  24.5288205
  22.5857544  47.0657301  25.7968807  72.8949070  41.8768406  31.2776947
  72.7327585  42.0242882  30.3459239  72.4500084  42.6022530  31.7159581
   9.2568588  28.6440492  25.4217339   8.5843825  28.4760046  24.7616053
   9.7486973  27.8247070  25.4765654  40.1472855  57.4446535  22.9426813
  39.9807119  57.6913595  22.0329452  40.7601976  56.7117834  22.8837228
  37.5270057  49.6133137  62.8989124  36.9023013  48.9090157  63.0719471
  37.0240808  50.4171276  63.0299997   5.2676082  49.6875525   9.2044860
   6.1826521  49.4404125   9.0708846   4.7876030  48.8604498   9.1628951
  38.4859586  41.2699699  22.4792290  39.3578219  41.2863827  22.0844913
  38.6449766  41.3853741  23.4160471  15.9057283  64.9547195  11.7938471
  16.6047621  65.0185776  11.1430740  15.8465242  64.0198755  11.9908118
  74.5756197  70.6501150  19.2966485  74.1044712  71.4108372  19.6365738
  74.5045376  70.7297707  18.3454204  32.2543430  33.1793952  13.4577870
  32.3360682  32.2268176  13.5041320  32.3494291  33.4723210  14.3640900
  63.5156202  68.4553909  37.3472309  63.6967230  67.7545595  36.7209172
  64.3708992  68.6715126  37.7187490  53.0248260  37.1379304  19.2729938
  52.9900360  36.2062097  19.4896054  52.2275782  37.2962260  18.7674510
  63.7247849  55.1580191  49.5853043  64.6352434  55.0214911  49.8473263
  63.7828922  55.5740833  48.7252235  56.1551857  26.9898725  56.9017410
  56.7544651  27.2514486  57.6007938  56.7083502  26.5261364  56.2730932
  67.5736284  36.1341906  35.7275820  67.8254747  36.0840130  36.6496921
  66.7303324  36.5870142  35.7339191   8.6323601  12.9052770  15.2396262
   8.3790493  12.4458814  16.0402632   9.0579110  12.2359002  14.7038352
  10.1928902  29.4917631   6.0289747  11.0545099  29.8543239   5.8230758
   9.5969683  30.2378798   5.9625012  59.4740534  36.5986347  44.8495245
  59.9204731  37.0545936  45.5629969  58.8513470  37.2402549  44.5077753
  74.6312438  35.4087986   0.1692959  74.2847429  36.2362064  -0.1647190
  75.4288016  35.6548847   0.6378885  68.1882858  45.8697653  21.7152572
  67.4964476  46.5244961  21.6208267  68.7628984  46.0184717  20.9642982
   9.3401647  43.2131147  10.2145183   9.8687190  43.0156469   9.4412988
   9.1097903  42.3557854  10.5724895   2.7144849  57.1640825  53.1034517
   2.1554098  57.6145744  53.7364817   3.6035439  57.4321508  53.3357143
  12.1875858  29.9311638  58.0617714  12.9442465  29.4279408  58.3625364
  11.4448869  29.3381929  58.1758499  13.2151246  65.5661297  10.7325482
  14.0554845  65.2586603  11.0723877  13.1948125  65.2557087   9.8273087
  57.2218132  15.9427202  19.1370749  56.7652702  16.0954320  18.3097434
  57.7930546  16.7039251  19.2394638  58.1172037  59.3095255  48.7185049
  58.6620665  60.0148582  48.3694124  57.5669003  59.0447760  47.9814148
  23.9872885  15.2912760  28.0166268  24.5423365  15.6531715  28.7074113
  23.1039619  15.5836332  28.2413340  23.4724498  17.3066890  11.3827348
  23.7258339  17.9432583  12.0511711  22.5505805  17.1233702  11.5637851
  73.7676573  35.6988406  25.5604410  73.4272432  36.5221691  25.9104085
  73.8550568  35.8561397  24.6203065   8.8227224  63.6196375  51.3435221
   9.7062337  63.4497595  51.6702986   8.9540613  64.1774130  50.5768013
  34.9030733  68.7981558   4.5845300  34.0857506  68.5234451   4.1688970
  34.8405099  68.4646654   5.4795718   3.4432635  59.8187733  14.5156515
   4.3891871  59.7403669  14.3919086   3.2795793  60.7618666  14.5195472
  67.3841906  44.4463491   2.0304252  67.9460430  45.0779295   2.4794881
  67.0534182  44.9201822   1.2673344  68.5220575  34.8796177  14.1576850
  67.6281118  35.2197027  14.1955245  68.9076519  35.3043103  13.3914030
   8.3708233  20.7230258  32.6184487   7.5252056  20.9683585  32.2429848
   8.2693440  20.8763909  33.5578179   7.6938730  27.5842047  53.0258942
   8.2918274  27.1261072  52.4352789   7.3049492  26.8904018  53.5584450
   1.1817602  38.2819796  23.3337879   2.0656780  37.9364514  23.2091451
   0.6120638  37.6421404  22.9068398  52.6655674   7.8708148  43.6313629
  52.5106668   6.9801331  43.9458847  53.5062218   7.8213197  43.1762981
  15.3268874  30.5379343  25.4792333  15.8495009  30.1809144  26.1973166
  14.5232844  30.8461905  25.8980775  10.9649062  39.9465656  18.7146807
  10.6180322  39.9268532  17.8227603  10.4267049  40.5963898  19.1666722
  74.3082619  55.0188351  20.1435876  74.6153450  54.4615746  19.4284689
  73.4084797  55.2412224  19.9045014  66.1045599  51.8219995  37.0721149
  65.1610756  51.6639757  37.0389438  66.1914492  52.6577377  37.5306153
  60.5626059  51.3393736  45.1224136  59.7529268  50.8872938  44.8851967
  61.2531996  50.6986237  44.9528313  10.5976892  49.5640707  27.1849561
  10.0074720  50.1981163  27.5922227  10.1266265  49.2630768  26.4079523
  45.7042551  23.9845109   9.9456424  45.9267330  24.4053364  10.7760894
  44.9615574  24.4885564   9.6131206  14.3774915   2.0008619  58.0661392
  14.3939900   1.2449384  58.6531115  13.6284113   1.8418512  57.4918365
  51.7953253  61.6343260  20.0689840  51.5057898  61.8858433  19.1919768
  51.2681150  62.1730471  20.6589508  30.2985644  70.9942484  10.0184882
  29.8879099  70.1625204   9.7822231  30.7046318  70.8277607  10.8691490
  67.8055286  49.4785261  10.8519948  67.4890184  50.0344419  11.5640390
  68.3294821  48.8063335  11.2877262  30.5185223  39.1097569  28.2345510
  30.4177094  38.3713412  28.8352275  30.8110332  39.8322487  28.7901354
  23.0409479  30.3596830   1.7886341  23.4378791  31.2156153   1.9500484
  23.5039687  29.7656989   2.3794189  12.3058653  40.6146765   6.4699417
  11.3961160  40.6067705   6.7674708  12.8179431  40.7420826   7.2685510
  18.6725616  58.6104631  38.0868554  18.5071492  58.2488775  37.2161531
  18.0821466  58.1257296  38.6636305  69.3751812  70.0474501  35.5200648
  68.4944248  70.3880405  35.6766057  69.6497011  70.4605055  34.7013736
  14.4582999  72.0002222  22.4478602  13.6904860  71.6972399  22.9325199
  14.0979075  72.5136375  21.7248416  25.6981230  38.2655597  21.2529182
  26.3748288  37.6695657  20.9318399  26.1581659  38.8458037  21.8594742
   8.7883997  65.8566713  15.3478873   7.9759496  65.6040764  15.7864666
   9.4075572  65.1619387  15.5719924  38.4693003   3.5813391  55.5110598
  37.5383806   3.3785811  55.6032991  38.9014149   3.0215675  56.1561680
  69.2044401  53.1427526  48.6672211  69.1763163  54.0452337  48.3494616
  69.4826841  52.6301575  47.9082346  23.5381579  57.2708130  19.5061278
  24.1140389  56.6602945  19.0458453  23.6222148  58.0915403  19.0207720
  17.7996993  47.1778727  14.6550918  17.7079082  47.2518492  15.6050038
  17.2898924  47.9096508  14.3074894  54.1226673   4.6415246  36.6603398
  53.7992287   5.4682404  37.0183325  53.3937407   4.3046182  36.1393857
   9.3557937  74.5420413  30.0134683   9.6404583  73.7610221  29.5389080
   8.4372932  74.3732259  30.2234411  64.8000145   9.4844043  25.0023437
  64.5387268   9.0633726  24.1833830  64.4873428  10.3852415  24.9189162
  73.9072847  32.8509259  41.5195417  73.9541245  32.9963660  40.5746174
  73.9563560  31.9000936  41.6182518   1.4889416   2.8511325  26.5460825
   1.0226200   2.3755893  27.2335672   2.0129097   2.1822350  26.1053276
  20.6662488  71.0032415  53.7851143  20.5499673  71.4899397  52.9691267
  21.2931824  71.5238571  54.2872572  61.3623238  73.6827564  29.5990372
  61.7618513  73.3937979  28.7786007  60.5648708  73.1587601  29.6746898
  58.4313107   5.8416963   6.0763329  59.2418480   5.4202068   5.7906628
  57.8996420   5.1264691   6.4256322  24.5885563  68.4825945  38.2363319
  24.6164536  69.2201996  38.8457537  23.6802721  68.1819439  38.2656050
  36.4182019  66.8385077  58.7621450  36.5200949  67.7773905  58.6061001
  36.6236186  66.7262888  59.6902847  26.3399959  62.1443033  50.6319094
  26.4540219  62.7314901  51.3791990  27.1332097  61.6085815  50.6250286
  72.1133423   8.8143289  37.3544598  72.5648832   8.6185205  36.5334845
  71.2470198   9.1190624  37.0845461  76.0570574   2.1847326  37.3071337
  75.1058531   2.2655366  37.2370005  76.3622665   2.1533825  36.4004374
  65.5908680  17.5509274  41.0883379  65.3926086  18.4030032  41.4767933
  64.7343254  17.1503079  40.9397602   0.9940276  46.2434053  20.1137590
   1.1938494  47.0316029  20.6187797   0.7610719  45.5893850  20.7727146
  19.0896678  46.0323572  12.8385115  18.7150764  46.4138412  13.6324775
  19.0390480  46.7335939  12.1889448  75.1202154  68.4607601  17.0337665
  75.1966810  69.3260670  16.6317391  74.4679880  68.0058861  16.5009272
  34.5817804  41.4991283  34.1662741  34.2586207  42.3653555  33.9183831
  35.1344037  41.2305832  33.4322953  29.5274091   5.3680736  30.7080674
  29.0728569   5.2101254  31.5355134  30.1951098   6.0196602  30.9221721
  40.8127069  58.5844946  19.5741510  40.3171730  59.3763876  19.3653870
  41.3028860  58.3910608  18.7750661  51.2855482  57.2843313  10.3686845
  51.1803579  57.6113462   9.4752485  51.6989470  56.4274979  10.2630007
  27.6733398  65.6672096  50.4629183  28.0132675  66.5561724  50.3608084
  26.7333341  65.7503414  50.3025770  33.0353856  65.6744003   1.6994421
  32.1505451  65.6795597   1.3343908  33.6102629  65.6886530   0.9342334
   4.8557094  21.3805532  52.6240253   4.7209635  22.2731233  52.3056030
   4.5625791  20.8224750  51.9037104  13.5875666  72.2310114  46.6687775
  13.3233571  71.3541985  46.9473743  12.7708161  72.6547909  46.4050293
  52.4453354  71.0821533  50.0841188  52.9374838  71.8929195  49.9549770
  51.8561125  71.2732840  50.8138609  12.9598367  63.7392473  37.5136375
  13.5486352  64.4827938  37.3844671  12.9390311  63.6121607  38.4621358
  12.7501440  41.5572882   9.0743381  13.2704973  42.3252773   8.8384223
  13.1244004  41.2599421   9.9036443   3.8362214  54.3145561  45.7662582
   4.5824990  53.8196850  45.4280233   3.9015394  55.1685047  45.3387737
  41.7190266  62.3469162  41.9285679  41.2423706  62.1801662  42.7417231
  41.2825918  63.1085968  41.5469933  28.2706475  57.8242016  46.4024544
  27.9759526  56.9599152  46.1154032  28.9420176  57.6421595  47.0599937
   1.4244354  61.1222029  40.1326609   1.4363535  60.2402878  39.7607470
   1.0571766  61.6698170  39.4387794  18.5072565  43.2356596  31.5653658
  19.4599450  43.1477118  31.5356517  18.3108270  43.4032202  32.4870872
  28.8005495  55.7236528  27.7534676  27.9437757  56.1320829  27.8773856
  28.6017704  54.8225641  27.4989939  60.7933617   8.9271086  32.4215603
  61.2322998   9.4676363  33.0783677  59.8898411   9.2431098  32.4162650
  25.1782942  62.3070431  14.6645331  26.0237908  62.2406292  15.1083326
  24.5335031  62.1337843  15.3504300   6.2300456  41.6069365   9.6840686
   5.9367353  42.2203112  10.3578424   5.9566152  42.0084190   8.8592792
  65.4423380   3.1176478  14.7698736  65.6410885   2.5805545  14.0028930
  65.4646015   2.5040764  15.5042219  55.9871721  64.5282650  59.3049335
  55.2950764  64.9449778  58.7915230  56.7041302  65.1624393  59.2997217
  12.2997415  60.3922844  29.2756748  11.9336104  60.5597830  28.4072733
  13.1382716  60.8539104  29.2751813  19.2270005  60.3766108  54.5876932
  19.5290577  60.6549931  55.4522705  18.4396935  60.8976269  54.4298267
  30.0664377  68.3619165   4.9634251  30.3207040  69.0738678   5.5505419
  30.8961701  67.9850721   4.6705729  36.5876913  65.8214760  31.9807410
  36.2197304  65.2361774  32.6427555  36.1325979  65.5851030  31.1725020
  44.3729496  68.4222651  56.0209894  44.3764353  67.6642847  56.6055250
  43.5345554  68.8517952  56.1907625  38.6568234  62.9260861  64.2681881
  38.2295975  62.3731171  64.9223558  38.1118164  62.8368603  63.4863707
  14.5600677   8.3914137   1.6688094  15.1680577   9.0533477   1.3395330
  14.7503555   8.3361232   2.6052737  42.0543194  71.3365984   9.8244572
  42.0844269  71.8568993   9.0215790  41.3257694  70.7305098   9.6899158
  64.8570204  41.7898417  56.2482882  63.9082193  41.6676140  56.2810421
  64.9936485  42.6867199  56.5535307  54.2699194   5.3866905  47.3766899
  55.2064514   5.2890110  47.2046661  54.2126226   5.5175412  48.3231735
   0.0451807  56.1425209  37.1089721   0.7971148  55.6493807  37.4370575
  -0.4745003  56.3343620  37.8895879  69.7663116  35.9629774  63.9036226
  69.5476007  35.5911422  64.7581053  69.4701624  35.3059936  63.2736254
  25.2505207  10.8665884  44.0507603  25.3406096   9.9217528  44.1748667
  25.5822754  11.0247731  43.1669331  22.8835797  46.1120605  28.9380217
  23.5539341  45.5252361  29.2880225  22.2961330  45.5383015  28.4461474
  68.9402151   9.8282623  36.4929318  68.1086206  10.2958500  36.4152026
  68.6978817   8.9026165  36.4667392   8.2881474  64.9685287  12.9507565
   9.1192704  64.7084236  12.5535011   8.5253388  65.2667713  13.8288355
  24.4719553  57.3048067  31.4939308  23.6622667  57.8049803  31.5962124
  24.5466161  56.8015099  32.3047018  73.8249493  14.8951828  57.6337528
  73.0501032  15.3868067  57.3614454  74.0832520  15.2957428  58.4638500
  44.0886688  58.7575912   3.5960287  43.6935377  59.2166901   2.8548568
  43.7280846  59.1939878   4.3678921  10.7341254  35.0246000  12.6561081
   9.9056196  35.3701806  12.3238671  10.4819739  34.2747903  13.1950307
  26.2283707  39.9240685  62.0265532  26.6672730  40.6813383  61.6390753
  26.8419218  39.2005062  61.8991089  16.9246697   5.6816137  58.2167196
  17.6307774   5.6315917  58.8610363  16.2263978   5.1396650  58.5840654
  10.5098593  27.6882625  58.9854145  10.7651567  27.2860742  59.8156548
  10.6666017  27.0073199  58.3312130  19.2914128  20.1208591  18.8070905
  18.8378274  19.2802274  18.8689971  18.8278818  20.5927420  18.1152117
  57.4792194  60.7762384  13.3093286  57.0213652  60.7669163  12.4687839
  58.3865261  60.9834814  13.0855632  47.3033810  11.7638612   0.2404519
  47.3672867  11.3849223   1.1171239  48.0540514  11.4034235  -0.2315785
  24.1644764  71.8010139  26.5496564  24.3092084  70.9330797  26.9264555
  23.6075544  71.6414833  25.7876730  37.0268536  43.2859612  30.6620264
  36.6045928  42.7285624  31.3156605  37.9242754  42.9570007  30.6105065
  67.0090580  67.7034235  22.6175833  67.2956991  66.9917917  23.1899881
  67.7019167  68.3602381  22.6866746  44.2139816  19.4278538  59.5417309
  44.1535139  18.5183704  59.8339891  43.3363676  19.6351123  59.2206812
  25.8310843  42.4314117  27.5160742  25.9382010  43.0570507  26.7995977
  26.1559415  42.8939915  28.2885528  24.4602108  53.2568407  35.0514984
  25.1434755  53.7312460  35.5251193  23.6718559  53.3815050  35.5798769
  58.7508011  74.3552923  26.1487913  58.3258343  73.4976149  26.1433363
  58.6308336  74.6763515  27.0425248  22.6317024  50.8651829  25.5329919
  23.5168290  51.0606623  25.2254701  22.7149034  50.0249386  25.9838700
  58.1626415   2.3215166  40.2079773  58.0258083   1.9149783  41.0636854
  58.8670731   2.9532051  40.3528070  39.6796370  40.1133585   8.3182991
  39.6864080  40.9907818   7.9357898  38.8984942  39.6985364   7.9522783
  70.4917955  40.4561281  28.3379531  70.6541967  39.5748496  28.0014873
  71.2875557  40.9439373  28.1257391  52.9107857  55.0479412  10.3796482
  52.6426983  54.7735929  11.2566280  53.8573933  54.9068642  10.3634667
   8.8428539  66.5817499   8.9113230   8.2301557  66.1056948   8.3507842
   8.3916861  66.6535854   9.7524643   5.7077968  49.0329742  25.5779409
   5.0757861  49.6946859  25.8588910   5.3913093  48.7482262  24.7206306
  52.9817963  62.8992367  26.2363696  53.9152002  62.7053356  26.3223457
  52.9089546  63.8281393  26.4556217  39.5489168  26.5769005  62.2576332
  39.8582816  27.3637652  62.7063751  38.6938286  26.8229580  61.9047737
  57.1549511  68.6340284  14.1278470  56.2194920  68.6858797  13.9317405
  57.4435425  67.8245687  13.7062740  10.1655078  39.1689444  26.6890979
  10.4792225  39.5198345  27.5225782  10.9146333  38.6909866  26.3332868
  14.8850536  41.5612459  29.1625166  14.5779729  42.3570061  28.7281227
  14.1230083  40.9820318  29.1679382  77.8062058  66.1196566   7.5956148
  77.3318397  65.4692793   8.1135118  78.4001982  66.5361595   8.2200551
   1.6163738  53.2117367  23.6965108   2.4166790  53.7287617  23.6047173
   0.9139203  53.8612032  23.7278461  12.2757149  38.5271668  50.3087044
  12.4294925  39.3842673  49.9112558  12.6986861  37.9079413  49.7138214
  19.7695458  18.4068394  14.4245923  19.4188309  19.0505707  15.0400913
  19.7092593  18.8345766  13.5704041   6.3410884   9.5948595  38.5695362
   6.8551803   8.7875462  38.5831690   5.4885280   9.3419147  38.9236426
  11.7519712  67.7641106  28.5443544  12.0102441  68.6816931  28.6313748
  10.9419835  67.6943302  29.0496087  15.7729506  52.2971869  45.5547094
  15.1414680  51.8018961  45.0330305  15.3076160  52.4981117  46.3666964
  21.2724686  67.5413227  60.4465055  20.8457422  68.2710695  59.9975014
  21.2014437  66.8089390  59.8342943  38.5935879   5.7416332  28.2461476
  37.8663063   5.2248394  28.5928702  39.0172386   6.1093920  29.0217161
  33.7009883  41.1269760  14.3230772  34.5061326  40.6393528  14.4968414
  33.3108759  41.2608099  15.1868677  29.6438408  50.0437498  32.2591233
  29.9614811  49.1764402  32.0078945  30.3022456  50.3718090  32.8715897
  12.5169194   1.7880015  28.4367990  11.8745708   2.3301166  27.9788351
  12.1117926   1.6003291  29.2834878  21.6870236  19.3304753  28.7387919
  21.7595291  20.2665472  28.5523963  20.9374666  19.0401292  28.2190847
  19.7325337  64.0466022  45.6747770  19.9153984  63.1599140  45.9855366
  20.1203990  64.0786648  44.8002672  56.0272551   5.1472974  16.9826066
  56.3441849   5.7134849  16.2788892  56.2434053   5.6202370  17.7862489
   7.6978981  27.7014279  46.9449949   7.3737955  28.5895300  47.0948744
   7.7138126  27.6098609  45.9923220  64.7560310  72.4604034  61.7798519
  65.1259947  72.5364923  62.6593828  64.3000507  73.2901859  61.6392088
   8.7258542  39.7835016  54.0452623   8.8294476  39.2318845  53.2698774
   8.2218993  40.5369091  53.7376213  55.7396030  66.1899328  28.8563466
  56.2540340  66.8822575  29.2714047  56.3598061  65.7435560  28.2798672
  68.0121326  47.9455042  36.4128494  67.7205610  47.1130276  36.7845941
  67.2516680  48.5216808  36.4899445  46.5824032  37.1370363   8.4317654
  45.8870459  37.4874473   8.9884734  46.9953823  36.4569306   8.9638674
  47.8042221  30.6042409  15.1396322  48.2356215  30.2216864  15.9036875
  48.3180428  31.3871479  14.9414563   3.4786963  11.1165881   4.3038458
   2.7388662  10.5108869   4.3486625   3.8090941  11.0254025   3.4101152
  43.8882113   5.1109296  19.2727995  44.3083286   5.6464821  19.9457896
  42.9543161   5.1585108  19.4772685  51.3883257  10.0420690   5.1913738
  51.0020971  10.6742465   4.5852271  50.8459187   9.2588818   5.0983900
  43.8502789  65.9714270  43.6339569  44.2330456  65.7589388  44.4851732
  44.0271854  65.2018404  43.0929613  47.4276638  66.0937309  45.1334524
  46.8632793  66.3538504  45.8614922  47.1525240  66.6516256  44.4059324
  72.6990032  22.9188991   2.3324841  72.2743940  22.0656300   2.2437687
  73.3882666  22.7771235   2.9813680  16.6199195  12.8549719  40.6368876
  15.9044111  12.2191834  40.6297970  17.3977065  12.3379147  40.8464861
  11.0950041  73.2178020  45.3777075  11.2111330  74.0055227  44.8464441
  10.4051638  73.4481716  46.0000277   5.7966638  70.1177645  11.6719794
   5.4688662  69.2241764  11.5705812   6.0737729  70.3725386  10.7919049
  12.0625699  50.1338196  29.4173932  11.5081215  49.7725582  30.1089954
  11.4581394  50.3211880  28.6992097  42.6785898   2.7676511  35.9694982
  42.2038794   2.9434872  36.7818785  42.7933455   1.8174021  35.9600234
   8.2230651  65.1822662  39.9050474   8.9464998  64.6163511  39.6355772
   7.7642083  64.6801281  40.5784988  12.6745498  57.2435045  16.2646103
  12.0728934  56.5750599  15.9368491  12.2217476  57.6253462  17.0165420
  22.2615576  66.5044737  38.1672764  22.7198267  66.5420151  37.3277450
  21.9430304  65.6037521  38.2262063   8.7526077  42.3022413  26.3194346
   9.6473813  42.0105934  26.4942288   8.4656578  41.7652845  25.5808091
  34.5312810  57.2971106  31.1184549  34.5981002  56.7354774  31.8906832
  34.4976497  58.1863117  31.4711905  37.1557951  17.4895668  61.9190884
  37.5257015  18.1343341  62.5221443  36.3324618  17.8802228  61.6262722
   2.3096457   4.7132328  52.9276896   2.2892293   3.7868565  52.6876020
   3.1679225   4.8367339  53.3330822  30.2206850   3.4592232   7.5390100
  29.6506429   4.2281467   7.5453746  30.9794211   3.7192312   8.0614519
  73.6532593  69.3934345  32.5814700  74.4472980  69.8162365  32.9085422
  73.8893700  68.4692192  32.5020409  12.8454971  41.8878126  33.5274410
  12.7257490  42.6450777  34.1005373  13.5798407  42.1286154  32.9626536
  18.6681926  38.8853359  28.9782262  17.8673506  38.7002206  28.4876990
  18.9420021  39.7500038  28.6722660  39.3542647  68.8742781   4.5567027
  38.5073495  68.6402130   4.1769907  39.5073009  68.2099724   5.2286464
  28.5969543  52.7593088  34.1202164  29.0945530  52.0111036  34.4500947
  28.1177568  52.4147749  33.3666253  13.9679682  73.3173800  20.1250005
  13.9535224  74.2638397  19.9827397  14.1041434  72.9462051  19.2532694
  14.8232853  28.9988923  31.7104197  15.7773423  29.0206695  31.7847919
  14.6436512  28.2409525  31.1541009  67.6841307  58.3101225  16.4369154
  68.3396530  58.7056637  17.0114350  67.1086931  59.0357399  16.1948729
  38.2388115  33.4786153  12.0263314  38.4606743  32.5762558  12.2560191
  37.3556471  33.6039186  12.3735404  35.9566331  61.5624905  18.9009833
  35.9807587  61.4992332  17.9461801  35.2167559  62.1415424  19.0840387
   7.1366447  47.1077108  27.0235062   6.8446934  47.8439522  26.4859700
   7.8293401  46.6946173  26.5079904  22.0839310  33.8435745  16.9601822
  21.9061017  33.2763648  16.2099278  22.3007631  34.6917510  16.5731239
  76.9519091   2.3094967  10.3314030  77.6032257   2.3747915  11.0298014
  77.3534918   2.7572489   9.5867676  15.0446093  52.4246693   8.7904084
  15.9890652  52.2695446   8.8035405  14.8407531  52.5834084   7.8687382
  66.8858480  37.7428031  10.9383214  67.3089170  38.0996633  11.7192793
  65.9718895  38.0168247  11.0146630  68.3226252  20.3739262  55.3846931
  68.8186216  21.1819363  55.5163574  67.4131536  20.6212401  55.5518055
  12.6045823  66.1738300  54.3944883  13.1099188  66.7773485  53.8498449
  13.1045377  65.3578043  54.3750668  30.8180213  66.6585350  45.9520578
  30.6427383  66.9344807  45.0524092  29.9874902  66.7906284  46.4092255
  47.4178982  69.0858841  33.1385159  47.0927238  69.6456051  33.8436413
  47.5578260  69.6832037  32.4037623  56.1147356  13.4289086  39.5627904
  55.7677746  13.4183848  38.6707473  55.3437519  13.5438001  40.1183176
  18.5075784  13.9242423  49.1842699  18.3781016  14.1686857  50.1006269
  18.2314181  14.6955884  48.6893034  39.8933315  67.1798611  39.1180468
  39.8136187  67.2940016  40.0650692  40.6193638  66.5653038  39.0111423
   9.7565889  69.6392775   7.5504965  10.0535941  68.8879442   8.0638415
  10.2801478  70.3724003   7.8739822  10.5221820  42.2405577  38.9293242
  11.4244151  42.1372795  39.2318797  10.5867302  42.2268248  37.9744029
  45.3133154  27.7258110  60.5070877  45.7150030  27.8409028  59.6459055
  45.5519438  26.8356180  60.7656384   0.8123967  40.3366756   0.4553672
   0.6632768  39.3914413   0.4324676   1.7091995  40.4454088   0.1388961
  43.8647413  56.4547253  15.7440758  44.7604847  56.1359739  15.8548522
  43.8437414  56.8055439  14.8537278  58.2831430  19.8145390  22.5040889
  57.5029564  19.3095970  22.2748041  58.1093788  20.1352000  23.3890820
  54.1433287  17.1281934  44.0819263  54.8564291  16.5359390  44.3205833
  53.8449240  16.8123174  43.2290459  36.9465113   7.4160570  30.0903368
  36.3103294   6.9551653  30.6372213  37.7976179   7.1623337  30.4473734
  74.1794252  66.3648415  18.8353074  74.9730587  65.8758307  19.0526605
  74.4837093  67.0780373  18.2740641  15.8590293  56.5228796  29.1055918
  15.1068544  56.5566301  29.6966290  15.8800697  55.6173134  28.7961841
  56.8636847  61.5831041   3.2843360  57.5801659  61.4078856   3.8944086
  56.1095667  61.7627907   3.8458034  18.3591139  51.3363028  46.4284706
  18.0923700  50.6385040  47.0269346  17.5515473  51.8163967  46.2452269
  17.2516727  35.8856702  23.4559774  17.6545906  36.6968966  23.1464601
  17.9182374  35.2150893  23.3068323   3.6984336  42.8314543   3.1558913
   2.7549687  42.6814270   3.2158732   3.8980702  43.4011459   3.8987416
  72.5221205  52.8074217  23.2843304  72.2277498  52.1309853  22.6744056
  71.8592787  52.8121567  23.9748716   9.7466135  31.2692404  35.4907298
   9.7755224  30.3303885  35.3064585  10.5993128  31.5960145  35.2037549
  40.0423431   2.9531047  27.5589919  40.5276108   2.1724528  27.2919154
  39.1316676   2.7555448  27.3401928  51.7747450  66.2668800  63.7573957
  51.0128880  65.7072878  63.9079285  51.4863825  66.8896818  63.0901623
   6.7781812  58.2638645  10.5409384   5.9757566  58.3487034  10.0260115
   6.9548655  59.1499901  10.8568358  32.3944736  42.8985548  30.5392861
  31.9627714  43.7051678  30.2577949  33.2022834  43.1933832  30.9597015
   4.5940870  67.5229692  38.3558083   5.5125439  67.2909021  38.4929705
   4.2745662  66.8751097  37.7277803  31.8866324  41.4008141   5.6496876
  31.5146828  40.8075953   6.3023567  31.9428444  42.2448635   6.0976243
  31.2697983  45.7479620  33.0844760  31.2153316  45.6061649  32.1394038
  32.1374798  46.1287689  33.2199192  12.6536047  37.4575973  34.8787856
  12.4377811  37.6859546  33.9746261  12.7339840  38.3001041  35.3259468
  43.9231205  67.7562380  40.9963274  43.3211517  67.3455524  41.6169739
  44.7158575  67.2217321  41.0421371  67.5915337  72.1355820  29.9041963
  66.7930698  72.3506594  30.3863049  67.5806475  72.7230501  29.1485524
  39.0497398  67.3502827  17.5534844  38.9064193  67.8876448  16.7744255
  38.1695223  67.1539068  17.8742421  39.3117809  60.5395842  25.6732607
  38.9585066  59.6606922  25.5354929  38.8790846  60.8496618  26.4687848
  23.2369137   7.9901677  55.1599932  24.1887021   8.0382097  55.0704288
  22.9899693   8.8304597  55.5462074  36.2847567  17.3844814   9.2424178
  36.8353653  17.5760138   8.4832227  36.8831420  16.9954205   9.8802245
  65.1886797  66.8852520  27.9535127  64.2644835  66.6364956  27.9390454
  65.1789713  67.8423452  27.9638290  23.6577868  22.2642350   4.9651012
  23.8006520  22.4223733   5.8982748  22.9002547  21.6799092   4.9344200
  12.1649051  58.0113745  11.9745731  11.3254726  57.6410580  12.2474289
  12.1738756  57.9089355  11.0229123  15.0597560  14.2847538  21.8774700
  14.6899474  13.8803959  21.0926342  15.1421618  13.5640979  22.5020456
  17.7794921  25.4745889  29.8753715  18.3620727  25.7274961  30.5915189
  17.5953662  24.5484328  30.0320983  27.4439049  57.2327375  19.5064557
  27.1156597  57.1549368  18.6106682  27.5903606  56.3294220  19.7871757
  76.0833836  64.4002676  19.6707439  76.1014652  63.7831497  18.9392602
  76.8764639  64.9249077  19.5611537  -0.1158617  62.2468901  22.0224333
   0.0768291  61.5178299  22.6119852   0.5614187  62.8955078  22.2143054
   3.3284208  36.3440061  44.5736837   2.4193147  36.1425948  44.7954702
   3.6088300  35.6118751  44.0245152   4.8436577  24.4878347  64.2436128
   5.4101307  24.6017273  63.4804831   4.1576154  23.8905151  63.9456375
  25.8655572  61.2131023  31.2271380  26.0914564  60.2856398  31.2978959
  25.8722758  61.5308142  32.1300483  32.3799205  62.0143080  24.8242497
  33.0634952  62.5691748  25.1998496  32.8138137  61.5520191  24.1071296
  13.4613407  47.8852797  31.5844107  13.4114587  46.9347286  31.4834166
  12.6083219  48.2027197  31.2880588  78.3832836   7.4477154  19.1001976
  79.2070770   7.1073252  18.7513006  78.1366968   6.8242395  19.7833574
  16.3801610  69.1889191   9.6254361  16.7833233  70.0559521   9.5813161
  16.5468884  68.8032103   8.7654006   2.0928545  19.7330880  36.4362621
   2.2282335  20.6333709  36.7318892   1.1638106  19.5660150  36.5949941
  11.8974588  46.3383625   1.7389532  11.4092014  46.0740612   0.9592195
  12.7960155  46.4555780   1.4305874  28.1600022  57.3955774  15.1817298
  27.8827190  57.7525711  14.3379879  29.0964603  57.2285604  15.0750279
  75.5833244  60.7181597  31.6246390  76.0303640  60.5973673  32.4623728
  75.0380707  61.4941978  31.7538285  62.5234413  45.4317760   4.1118157
  62.3509121  46.3731575   4.0955377  63.4659863  45.3636122   4.2641336
  72.9268980  63.4724951  18.1081188  73.7239504  63.9340067  18.3687818
  73.2286310  62.6028109  17.8457487  34.0216303  43.8269663  32.9828978
  34.7651267  43.9134455  32.3862672  34.0089655  44.6504307  33.4707308
  74.9898481  69.1745615   2.1186441  75.6725883  69.1154337   2.7869305
  74.3417406  68.5203695   2.3798312  40.5604029  68.7167501  52.2804308
  40.3195047  69.5571280  52.6702547  39.7356081  68.2345009  52.2222567
  65.1923847  66.2837791  61.2066698  65.9248447  66.2095118  61.8184090
  64.6670675  65.4995728  61.3656807  30.6724191  40.7162619  30.7754326
  31.0268140  40.3726816  31.5955472  31.3190103  41.3600731  30.4861927
  31.1028171  56.1935377  41.1859035  31.5894222  55.5756474  40.6403208
  30.4008126  56.5125179  40.6187391   2.3503253  54.5181036  52.5137472
   2.2764726  55.4714966  52.4710703   1.4448208  54.2079973  52.5250530
  61.2143421  21.8839955  15.4123962  61.8651247  21.3593769  14.9460447
  60.4171610  21.7966700  14.8897934  20.8569217  15.5732679  48.0790854
  21.6651368  15.2269781  47.7007961  20.4775286  14.8328066  48.5523844
  74.2989731   2.3341499  10.7115161  75.2282238   2.1816954  10.5398107
  74.1910696   2.1332076  11.6411448  12.0918465  54.0322828  30.2058268
  11.9255066  53.5324240  31.0050178  11.2231624  54.1862679  29.8344684
  34.6261764   7.7498323  48.8426161  34.0936828   6.9638622  48.7204170
  34.0021086   8.4216195  49.1173363  38.4201026  67.6140499  49.6369886
  37.9611492  68.4261942  49.8515034  37.7946854  67.1177959  49.1089582
  77.3930073  33.2450438  33.2698345  76.9637012  33.9562654  33.7453294
  76.8856096  33.1557727  32.4631047  26.9473767  69.1866064  31.9450045
  26.0763907  68.7973595  32.0231342  27.5105238  68.6216879  32.4741244
  69.4292879  12.8840458  14.6893120  69.8008442  13.6922657  14.3358147
  69.1398096  12.3962343  13.9182889  21.0461950  37.6113272  20.7443571
  20.1817536  37.2005177  20.7299709  21.0684657  38.1502295  19.9535847
  73.3320951  60.7955790  26.2477922  74.2585373  60.5548763  26.2490916
  72.8697443  59.9677944  26.1165094  73.9862680  17.6151192  18.7837040
  73.5968590  17.6473176  19.6575212  74.1964149  18.5267878  18.5813940
  68.2363033  56.6843033  31.3772416  67.5416136  57.0643616  30.8394742
  69.0232468  56.7549515  30.8369088  61.9452858  19.2517948   8.6747909
  61.7529202  20.0620866   8.2029283  62.4379158  19.5344889   9.4452679
  52.1480942  12.4649882  62.3761177  52.3155212  13.4030306  62.4671078
  51.2366152  12.3569238  62.6477003  30.6971610  51.1556600  64.0190121
  30.6161565  51.9579540  63.5032646  30.1675806  50.5130135  63.5470141
  32.0631313  54.9269676  39.0290332  32.4055767  55.7444668  38.6675692
  31.8311954  54.4042730  38.2614207  65.1266050   1.7607211  42.0550871
  65.6723404   0.9750068  42.0876169  65.7120466   2.4701121  42.3201418
  10.4458845  71.6647911  31.0429931  10.7554042  70.8382654  31.4135075
  10.4449594  72.2731161  31.7820287   0.4776808   0.7634921   4.1115925
  -0.1122184   1.2115265   3.5053614   0.0181405   0.7826021   4.9510503
  41.9404745  72.2799540  43.0094910  41.9045973  71.6170502  43.6990595
  42.4927998  71.8906736  42.3315287  25.3343463  57.3298550  37.8831172
  24.8929715  57.1425486  38.7115717  25.4365420  58.2815552  37.8760004
  54.2484093  68.4784794  43.8693714  55.1804256  68.3751488  44.0614653
  54.1416740  68.1067514  42.9937840  46.4910650  65.0215626  23.5151100
  47.2898483  64.8590708  24.0168834  46.0339117  64.1805840  23.5136271
  67.0383453  13.3780408   4.1074494  66.5005016  12.5896740   4.0337470
  66.4416170  14.0440226   4.4489408  46.4734840  57.5344849  23.3328819
  47.0619488  58.0785084  23.8563085  46.0784769  56.9330215  23.9641070
  48.5784006  62.8702450  24.9727082  48.4218264  62.2440195  24.2659140
  49.1729689  62.4148703  25.5688262  45.7959795   1.7016549  21.3820124
  46.5741825   1.4653893  20.8772230  45.6202936   0.9332012  21.9250083
  61.6656446  16.8427336  56.3742065  61.7262125  15.9824049  55.9589958
  61.4615393  17.4415302  55.6558657   3.1980357  62.4325275  16.7414272
   2.6288962  61.6679859  16.8296754   2.9006046  63.0327320  17.4251842
  52.8576946  18.2896769  57.5958967  53.1648350  19.1719055  57.8046227
  51.9366074  18.4056544  57.3626995   2.9842871  30.8675766  25.7809663
   3.5042027  30.0710797  25.8882570   2.5062856  30.9544921  26.6057062
  61.0528135   2.9580921  35.5055285  60.9882832   3.7235650  34.9344611
  60.7223606   2.2340262  34.9737740  41.2351370  62.0307446  56.9947100
  41.5759945  62.2608376  56.1303568  40.5048513  62.6340008  57.1325493
  28.6928415  61.0714436  54.1296577  27.8395104  61.0580349  54.5631123
  28.5638142  61.6312790  53.3640432  30.0368309  63.0275345  29.3998170
  29.6865964  63.7127495  29.9690700  29.9782610  62.2282219  29.9231744
  16.3713944  34.6394515  57.9300499  15.4660308  34.3969703  58.1243467
  16.8466115  34.4608164  58.7415218   4.0588352  24.0605760  56.7798758
   3.3295175  24.6380687  57.0053291   3.6411673  23.2631946  56.4543486
  11.4029622  46.0268784  25.3046679  11.9852960  46.0041094  26.0640097
  10.6597328  45.4786730  25.5562830  10.8400738  67.9975843   9.7517294
  10.1305902  67.4606657   9.3987679  10.6917977  67.9988623  10.6973743
  14.8878360  44.4777298   4.2311004  14.1260076  44.0211868   3.8741469
  14.5585847  45.3450871   4.4667244  73.6593866  22.6748681  55.2206421
  73.3951521  22.2530508  54.4030333  73.8557339  21.9485188  55.8123302
  14.1080225  23.8179207   2.6199901  14.3408179  24.5002222   3.2496747
  13.6338365  24.2810297   1.9294034  63.9515209  29.9444985  29.4703627
  64.5382595  30.6493711  29.7444582  63.7123299  30.1681113  28.5709095
  28.8168073  62.4152565   5.5773509  29.0608239  61.9965410   6.4027995
  28.5089278  63.2851171   5.8318686  53.2870483  59.1401100   7.7801406
  52.6621056  59.8563528   7.6675612  53.7221289  59.0661335   6.9307494
  60.5087328  50.7451820   4.3042058  60.3529644  51.3056374   3.5440373
  59.6421862  50.6199789   4.6910572   3.8366497  41.7055607  33.4987950
   3.4159225  41.4608049  34.3230009   4.5840821  41.1120415  33.4259224
  58.2914305  34.1874838  60.5307102  57.9122448  33.3088827  60.5533600
  59.2283869  34.0475821  60.6677246  15.1972163  71.2658310  26.8048859
  15.5204630  70.3666687  26.8619370  15.0810373  71.5368176  27.7155447
  68.3257627  16.1692381  28.3645606  67.5743961  15.8638573  28.8729119
  68.2236576  17.1204889  28.3341002   7.3327595   3.8878801  41.3809490
   6.9381124   4.0223423  42.2425795   8.1779683   4.3342122  41.4323425
  35.3472757  72.0416832  27.5708795  36.2528563  71.9906664  27.2650123
  35.1235628  72.9699135  27.5032544   5.1779521  33.4197164  22.8836465
   4.6615866  33.6354637  23.6602116   5.3695273  34.2665005  22.4805498
  35.5012751  16.2568402  41.8842745  34.8789787  15.5661774  42.1122313
  36.3392496  15.9472132  42.2280216  41.8021250   5.6220514   9.2525887
  42.1170759   6.4928192   9.0101004  42.1318436   5.0471717   8.5619152
  35.8318475  51.8287240  63.8537521  35.0412152  51.5315281  64.3040927
  36.1810211  52.5212692  64.4147253  11.1649752  59.2815256  64.0388441
  11.1855841  58.3467245  63.8339996  12.0168972  59.6088171  63.7501574
  43.7823677  65.4315281  52.9980087  43.6865139  66.2836170  52.5725794
  43.5653400  64.7970295  52.3149681   2.3160350  10.5683565  30.0085354
   1.4078197  10.2682674  30.0449085   2.6600519  10.3974438  30.8852744
  64.2800379   3.4516823  28.1317520  63.9690495   3.7537614  28.9851379
  63.6198473   3.7627825  27.5124002  78.6648606  38.4860349  54.5277882
  78.7579395  38.3994222  53.5790682  78.0622447  39.2207170  54.6432447
  53.0355930   5.9108531  11.7382193  53.8445425   5.5709994  11.3556802
  52.4666595   5.1449114  11.8148911   1.7409256  22.3823309  55.6603146
   1.7763726  23.0353904  54.9613953   1.1546019  21.7041302  55.3249025
  68.4115267  15.5607593  11.9587183  69.0248013  15.6000042  12.6926053
  68.6729240  14.7805810  11.4696109  17.4439728  38.4683704  56.1187315
  16.8661487  37.7388358  55.8948326  17.9681063  38.1428862  56.8505621
  77.0399284   3.1694770  47.3104000  77.3785639   3.4141472  48.1716156
  77.5095510   3.7362820  46.6985035  74.1594982   7.4604839  46.8323374
  74.6254492   8.2948971  46.7787123  74.6381617   6.8803805  46.2402248
  53.6890936   6.1184847  14.3133426  54.4336033   6.6665912  14.0653086
  53.1912899   6.0097039  13.5030425  77.1912241  66.0056210   0.9248091
  77.3720884  66.9369984   1.0515073  76.7993402  65.7231522   1.7511699
  48.0035925   9.3351978  36.6850042  47.1671343   8.8705522  36.7109394
  48.5993195   8.7314099  36.2414074  40.1412630  70.8797646  60.1095772
  39.4703174  71.5120840  60.3669357  40.4526329  70.5111217  60.9362459
  42.0483732  67.4445772  31.6767907  41.2609482  67.4522161  32.2209740
  42.3135567  68.3629227  31.6263199  15.5967617  69.0503502  46.6137314
  16.0623980  69.1953611  47.4373770  15.5509961  68.0980110  46.5289307
  24.6754670  56.9526434  28.7997079  24.4695807  57.0045567  29.7330618
  24.5159721  56.0372543  28.5698056  62.4119949   4.2042115  26.0801744
  62.0814848   4.5760947  25.2624369  61.6463280   3.7960416  26.4843774
  56.8146086  17.2194183  32.0757508  57.3336840  16.9684720  32.8398323
  56.4128971  18.0525494  32.3222256  75.8491325  16.0374153  26.9745874
  74.9186325  16.1989009  26.8186235  75.8658838  15.4225624  27.7080083
  20.5778837  68.4080505  44.0222597  19.7195065  68.2561064  43.6268711
  20.5589771  67.9050636  44.8364353  78.4194469  13.7950253  48.4567070
  79.1739082  13.7304056  47.8711748  78.2990694  14.7353137  48.5893679
  63.9469242   7.7810466   6.6171783  63.0487537   7.8998548   6.3082951
  64.4254923   8.5265088   6.2545609   9.7329479  66.1091232  44.0770674
  10.5549598  65.6538153  44.2593288   9.0524870  65.4897165  44.3407679
  46.7854977  70.7396364  35.4787636  46.6052628  71.6482735  35.2376580
  46.0348225  70.4801798  36.0129976  63.1052637  12.5708807  17.5131989
  64.0339279  12.7718353  17.3973215  62.6652336  13.4171307  17.4327731
  60.4226398   9.0783083  55.3460741  61.0631943   8.3671170  55.3575420
  60.6123066   9.5842385  56.1361980   6.4158601  59.8947191  33.5833740
   5.7113785  59.4333792  34.0384603   7.1727020  59.3140697  33.6625814
  62.2104788  15.4528797   9.4447821  62.5566721  16.1775887   9.9655306
  62.3066950  14.6853960  10.0086474  67.2771883  11.1741602  18.8151157
  67.7199602  11.7401540  18.1827903  66.5701580  11.7151248  19.1668200
  45.9447861   6.7494130  43.3355379  45.4032087   6.7641735  44.1246557
  46.7543888   7.1907747  43.5923862  24.2224288  18.7972283   4.0783218
  24.8193121  18.2671034   3.5501829  23.4048033  18.8048935   3.5806671
  14.7106564  31.1595464  53.3643866  15.5472159  31.5878201  53.5459948
  14.9131024  30.2240658  53.3755207  38.2505322  64.2413139  19.6230102
  38.7405419  64.1952181  18.8020384  38.7401557  63.6818457  20.2259183
  28.8086724   1.0200997  15.7969820  27.9974246   1.4809975  16.0107160
  29.0036893   0.5033887  16.5787816  10.0712311  41.4445972   3.7337387
  10.7052159  41.6661930   4.4157878  10.0922537  42.1914530   3.1354111
  59.1686869  64.9982595  28.0209804  58.7150669  65.6169367  28.5934305
  58.6329651  64.2056465  28.0525994  22.9808593  43.5381794  14.3488359
  22.6618648  44.3566799  13.9686692  22.6923585  43.5693073  15.2609921
  17.9808545  55.3590298  45.1235676  18.8183403  54.9023390  45.0443077
  17.5166929  55.1505613  44.3128109  17.2108555  59.2930794  33.5873652
  17.0179200  59.7574472  32.7728915  17.0198607  59.9291134  34.2767239
  27.2117448  42.7157736   3.4207782  26.6566634  42.5696945   2.6547635
  27.8557634  42.0083761   3.3882940  49.8005867  10.4352438  23.7693048
  49.1822195  10.6107378  23.0600405  50.2293777   9.6176767  23.5164142
  24.3041396  30.2486563  19.7475481  25.1183677  30.7043839  19.5340586
  24.4154143  29.3731618  19.3769276  22.9642439  66.6243601  29.9576235
  23.0820775  65.8795309  29.3680692  22.1004796  66.9716597  29.7350836
  33.5047650   8.9103711  26.4534140  34.0613127   8.6867398  27.1993852
  32.6685309   8.4846330  26.6423416   6.3251638  13.5167098  49.4950390
   7.1000648  13.0541766  49.8141384   6.4680618  13.6014307  48.5523653
  14.5969701  70.3330946  35.3359175  14.1800129  70.8352900  34.6357918
  15.3853405  70.8314037  35.5512977  52.4271345  10.6318104  39.6684933
  51.6306543  10.1211858  39.5231795  52.2752285  11.0811281  40.4999208
  44.0499783  63.6298704  42.4880743  43.3106136  63.1944704  42.0638084
  44.8235655  63.2285166  42.0922089  72.0504665   7.0629805  59.3378258
  72.6879406   7.1595234  60.0453138  72.5287008   6.6073829  58.6450386
  52.8344059  23.3656216  26.5176940  52.3991776  22.6676440  26.0281682
  53.7687206  23.1951332  26.3984251  48.6575794  20.9907770  13.4080088
  48.2400560  21.0618114  12.5496018  48.8752270  21.8925738  13.6438489
   2.4162297  18.4722328  19.5352960   2.3704437  17.5179303  19.4766247
   2.0454983  18.6774898  20.3935862  26.9012237  55.6903124  22.4956584
  27.0131683  55.4445457  21.5773439  27.7658296  55.9972477  22.7685642
  35.2149367  57.5921345  28.5219669  35.0363946  57.7084208  29.4551516
  34.5133924  57.0185995  28.2135391  44.0147066  41.8880272   6.4569330
  43.0887175  41.8851948   6.2145120  44.2791367  40.9696388   6.4033133
  14.0779614  52.0067263  29.6275449  13.4214115  52.7029228  29.6495509
  13.5891354  51.2245226  29.3717432  43.9327717  60.3506088  28.9901233
  44.7158670  60.7626915  29.3550658  43.5638714  61.0128736  28.4056997
  13.6713779  54.1306782  35.8852506  12.8839886  53.6060429  35.7403135
  14.3084228  53.5125923  36.2435436  29.9690890  30.1976705  63.8321495
  30.0972509  31.0746479  64.1937017  30.5652642  30.1574159  63.0843639
  34.1518068  30.0791121  62.1614361  33.9937353  30.7780313  62.7960682
  34.7224402  29.4630170  62.6208210  45.6406116   4.1834107  25.3460908
  45.0311422   3.9611119  24.6422696  45.9229088   5.0757754  25.1455259
  13.1664300  64.8144722  13.7852144  14.0333319  65.0784874  13.4769762
  13.3328176  64.0608835  14.3514752  72.2171259  64.3538952  15.3346968
  72.2623873  63.9309359  16.1921871  72.9415512  63.9707327  14.8400998
  51.1842537  71.0503531  16.9281256  50.5562592  70.3440475  16.7765081
  50.6421995  71.8262529  17.0709109  52.3681307  64.2889833  38.1733131
  52.4855757  63.9342165  37.2920752  52.6254511  65.2078533  38.0978465
  20.4141402  14.8929632   9.7098863  20.7051802  14.0772879  10.1175654
  21.2189531  15.3926766   9.5727938  72.4154806  21.0479379  42.1760654
  72.6729679  21.1254001  41.2574100  73.2358313  21.1296916  42.6624537
   0.8882908  59.7324705   2.4088655   0.5769257  59.2752123   3.1900200
   0.1793293  59.6315432   1.7737111  25.0033522  55.0157595  24.8561835
  25.2594256  55.6992531  25.4754496  25.6291056  55.0979233  24.1365242
  59.0562820   5.4756910  30.9644341  58.6088991   6.0702157  31.5666127
  58.6234713   5.6171733  30.1224780  74.9075031  31.9411993   3.7326142
  74.6855593  32.1015811   2.8154171  74.5372581  32.6882482   4.2027929
  53.7272406  66.2561941  12.8173614  54.5274115  66.7812300  12.8344953
  54.0238953  65.3619146  12.9861534  75.1902580  33.2389331   7.0920908
  74.3079138  33.1105042   6.7439449  75.3993607  34.1496944   6.8846762
  67.3194027  24.1358304  33.9879918  66.5912580  24.7530341  33.9166117
  67.0111227  23.4720302  34.6048903  29.4042730  37.6812744  33.2189894
  29.6483755  36.9329691  32.6743007  28.4473491  37.6642466  33.2344365
  78.5635471  65.6837797  51.4697599  77.6538372  65.8589458  51.2289715
  78.6587286  64.7362518  51.3729811  41.9737005   4.9229518   4.9261913
  42.2094536   4.4105610   5.6995660  42.6844072   5.5574024   4.8334476
  46.2111855   4.5498994  30.4188442  46.1802149   4.5967144  29.4632912
  45.4313374   5.0241089  30.7072759   5.9580016  13.4510016  53.9980793
   6.4607441  12.6532447  54.1625977   5.1860017  13.3672941  54.5577574
  33.9174271  70.4761314  15.3840888  33.3599782  70.4742336  14.6059632
  33.3076859  70.5750561  16.1152947  46.0887766  20.0714207   1.6539699
  46.7177963  19.9801159   0.9382679  45.3751564  19.4767630   1.4229715
  57.5164175   5.8228713  12.2233105  56.7979383   5.3965873  11.7560792
  57.1555328   6.6649342  12.5006652  69.8858738  40.7597589  18.3005571
  70.6682682  41.0906315  17.8594005  70.2190876  40.3271008  19.0866911
  35.0277185  65.3779221  47.4640369  35.0367713  66.2822914  47.1505642
  35.8911657  65.2521849  47.8575897  29.3676519  33.0983639   1.6154255
  28.6822796  33.1240535   2.2831362  28.9175582  33.3241630   0.8013856
  43.2173824   3.3851376  33.2031631  42.7352238   3.1307888  33.9899683
  42.5531387   3.4157804  32.5146341  44.2814684  72.7273512  34.2559314
  43.9095974  72.0096827  34.7686696  43.5261440  73.2594538  34.0057635
  59.3590832   5.5298024  46.6908979  59.9512100   5.6371242  45.9465218
  59.7783375   6.0140431  47.4022102  58.9724874  38.2971334  26.2230968
  59.0266466  38.3421016  25.2684903  58.0362463  38.3573413  26.4129782
  70.3301430  66.4055061  46.3435078  69.8778772  67.0904064  46.8360519
  69.8389149  66.3350201  45.5249977  61.8674278  71.4875078  27.8197432
  62.7533340  71.2990427  27.5100994  61.3968849  70.6602526  27.7173972
  73.5324955  20.2011681  -0.1772290  74.4196606  20.0410175  -0.4989781
  73.6543846  20.4926777   0.7263170   8.2663566  16.7952228  43.7740183
   8.9460117  16.2984359  43.3184910   8.7465268  17.3497725  44.3889523
  16.8854368  24.3293333  35.4730010  17.3243153  25.1356411  35.2019143
  16.0496843  24.6220803  35.8363891  11.3405120  58.3182764  18.6091590
  12.1009243  58.6708021  19.0714669  11.1400557  57.5013208  19.0659297
  68.8172674  23.7802148  49.9740219  69.4188929  24.3961740  49.5558453
  68.1246138  23.6454558  49.3272543  23.9045358  11.5656435  29.9855542
  24.4376040  11.7686367  30.7542300  23.3540869  12.3393595  29.8647046
  60.9271240  69.5434332  16.8000102  60.6465340  68.9702845  16.0865653
  60.1189041  69.9499846  17.1126139  45.8880806  55.3139734  25.2476883
  46.2254572  54.6005106  25.7893372  45.1812887  54.9155331  24.7398305
  76.0711765  15.6912971  51.9044209  76.8274975  15.7286453  51.3189077
  76.2023735  14.8919952  52.4144554  12.5013316   0.6554370  52.8588343
  11.7088282   0.6858434  52.3228836  12.1965599   0.8381788  53.7476254
  54.3378687  63.6783552  54.7201443  54.3901253  63.2267714  55.5625057
  53.6486816  64.3315554  54.8409081  27.2652864  42.2202253  60.3713036
  26.8342996  43.0562401  60.1936293  27.9094505  42.1288681  59.6692038
  13.4667444  63.8680696  50.6823063  12.7761614  64.4230652  50.3199482
  13.1849325  63.6901903  51.5796232  47.8593969  44.8923635  63.9159250
  47.4922085  44.1559744  63.4269094  48.5020399  44.4936228  64.5026541
  51.0411119   6.9483900   9.2727637  50.5221796   6.7228651  10.0448251
  50.6625509   7.7706230   8.9615500  46.7921209  64.0206575  14.6184623
  46.5287256  64.8497343  14.2191052  47.7211189  64.1355848  14.8184156
  22.1627021  31.1679912  27.7091408  22.8773189  31.4066744  28.2995534
  22.5834370  30.6555915  27.0187354  75.4067135  17.2011542  47.1311140
  74.9839783  18.0437756  46.9652367  74.7101116  16.5558457  47.0104837
  41.2153625  62.6076460  63.1418180  41.4511061  63.5034084  62.9004383
  40.4588270  62.7065659  63.7198305  18.9565194  69.5791435  13.8787735
  18.0745840  69.9487114  13.8358355  19.1606784  69.3409300  12.9744470
  63.5262632   9.8180407  57.8191853  64.0675879  10.2380526  57.1507597
  62.6344776   9.8757666  57.4762344  17.4485064  44.2195988   7.9148376
  16.7384982  44.5954323   8.4352881  17.3782098  43.2760572   8.0597937
   5.5060267  15.1626277  21.2509513   5.4037380  16.1131620  21.2984204
   5.6151015  14.9797773  20.3177309  11.4080584  66.3009787  56.7903852
  11.8976772  65.6869507  57.3376226  11.7796993  66.1907005  55.9151983
  15.1230228   8.9618510  61.3547373  15.9556580   9.4174087  61.4789009
  15.2995121   8.3246762  60.6625748  72.2224951  16.6541219  13.7168694
  72.9631233  16.8227696  14.2993271  71.8314600  17.5155544  13.5710585
  58.0060816   1.6008843   2.0032594  57.6007891   1.3029964   1.1888705
  58.8556194   1.1602846   2.0231478  75.6348991  48.1647491  61.9707966
  76.1825895  48.0813265  62.7513742  76.2565804  48.2962561  61.2549400
  64.1483068  13.9680159  43.4684658  63.7203932  14.7581995  43.7982082
  63.6742306  13.7567711  42.6641893  56.2237644  60.7232952  23.9097738
  55.8203363  60.3378248  23.1320286  55.9188414  60.1764107  24.6337676
  28.4261298  30.0836563   6.1818218  28.5502505  29.1364121   6.1221927
  28.2688212  30.2465272   7.1118534  75.9409237  30.6447434   1.0210659
  74.9850893  30.6128025   0.9811640  76.1929846  29.8035645   1.4020073
  57.8577805  24.8757792  15.1355875  57.3772097  24.6579838  15.9342432
  57.6755238  25.8044505  14.9921119  20.8106375  15.2300572  52.8223991
  21.5778184  14.9202275  52.3410749  21.1611176  15.8608019  53.4513283
   4.3846488  11.0205257  58.5470915   4.3999326  10.5729735  57.7011061
   4.1756839  10.3321278  59.1785002  60.6378937  13.9817464  38.9423227
  60.2997589  13.2723689  39.4888401  59.8693132  14.5150149  38.7394881
  26.0875463  23.7412477   1.5793568  25.3502679  24.1423655   1.1191835
  26.3168311  22.9798388   1.0465156  49.7511959  57.2347784  62.0610666
  49.6530485  57.6189232  62.9322910  48.8659763  56.9639492  61.8176126
  31.8842316  58.9997530  18.6485589  31.0818887  59.0210962  19.1701174
  32.3900294  59.7518778  18.9563107  15.1479244  26.9922590  29.7955894
  15.0861132  26.0758114  30.0649118  15.6207466  26.9660687  28.9637327
  45.9815598  28.2546425   4.3066385  46.7220068  27.6550674   4.2145675
  46.2971115  28.9354515   4.9009085  28.3155131  12.2984266  14.4742143
  28.6054826  11.7413330  15.1965690  28.3296299  11.7243326  13.7084150
  38.2733464  65.3319836  14.9576116  38.9853263  65.8501005  15.3329384
  38.5496306  64.4233370  15.0770140  11.3586700   5.8578295   1.6908047
  11.0327375   6.4839584   2.3373049  11.6341817   5.1010102   2.2080570
   3.4787849  33.9808011  30.4979801   2.9406705  34.1304994  31.2753201
   4.2153308  33.4573221  30.8137369  26.7364454   6.8238735  50.4796028
  27.1677065   6.6791356  49.6374083  27.2033119   7.5661898  50.8633137
  35.8742356  41.4000273  19.1607380  36.0574675  41.4366388  20.0995231
  35.5534863  42.2757006  18.9449835  17.3205233  39.1718388  53.5978222
  17.4393022  38.8777494  54.5009470  16.3736641  39.1456366  53.4599686
  43.0489969  71.6968107  16.8131900  42.4852562  71.1947393  17.4017060
  43.1166077  72.5588226  17.2237957   3.4214807  28.1348467  37.6436710
   3.1497929  28.2511926  36.7332411   4.1012663  27.4619794  37.6066422
  30.8595920  45.0721979  17.0432734  31.7231274  44.6620607  16.9950771
  30.8255219  45.4565048  17.9192746  30.3132391  65.8892488   1.3352926
  29.8610568  65.7376671   0.5053619  30.1438093  66.8097687   1.5357177
  25.8039331  57.8895807  56.3983011  25.5923080  57.5081921  57.2503519
  25.5035567  57.2391701  55.7634974   1.0361567  16.1045361  29.0039563
   1.6488434  16.8169963  28.8216186   1.2648541  15.4240429  28.3708239
  76.6751051   3.9753065  27.4066401  75.8605671   4.0041882  26.9047213
  77.3525381   4.2256972  26.7784476  -0.2080484   3.9306557  16.0397422
   0.1585011   4.7265387  15.6544578   0.5243925   3.5332853  16.5107620
  13.3070505  64.9355841  58.2835770  13.5526466  65.3613663  59.1049337
  14.1261184  64.8724222  57.7922821  18.0267978  37.8149581  50.5452061
  18.9027238  38.0516601  50.2403164  18.0802214  37.8771162  51.4988899
  28.0507827  43.2233143  29.5607018  27.8889298  43.5624170  30.4410672
  28.1873250  42.2843647  29.6870542  12.9134405   6.0767066  38.4916639
  13.8166404   6.3181770  38.6969757  12.3878312   6.7965639  38.8406229
   4.4505632  65.1825142  43.8666725   4.3360499  65.6639814  43.0473423
   3.8756442  64.4221258  43.7800074  13.3880675  34.9832153  35.4974270
  14.3180120  35.1925468  35.4101610  12.9361343  35.7408452  35.1259661
  44.8410654  73.4614420  55.4964828  44.9469709  74.1050434  54.7959137
  44.8057222  72.6186275  55.0441122  13.5811305  60.6123590  63.1319189
  13.3635092  61.3726616  63.6711884  14.2460263  60.9332561  62.5226831
  77.2492313  55.9966850  53.2710218  77.0264053  56.8233109  53.6991310
  76.4692497  55.7717800  52.7637959  16.1310971  29.7437382  27.8183818
  15.6217206  28.9534879  27.6387382  16.7895544  29.4647813  28.4546614
  26.4083409  64.1975689  45.2978945  26.0048389  65.0606728  45.3899240
  27.0954180  64.1821146  45.9641695  75.4763842  23.8072038  21.5251184
  75.7086277  24.6553636  21.1470675  76.0554123  23.1832361  21.0873699
  32.2489404  35.9733611  -0.3516583  32.7199381  35.8904835   0.4775139
  31.3421326  36.1425988  -0.0961355  52.9799557   2.1216409  31.5375137
  52.5753260   1.2552452  31.4943361  53.8768387   1.9529942  31.8262839
  21.1191106  19.4427633  52.0129204  21.2816000  19.0401542  51.1598444
  21.3412857  20.3654718  51.8885136  29.1157031  54.3710804  54.3868685
  29.1034937  54.1850090  53.4480047  29.3667626  53.5411167  54.7922850
   0.7050222  46.7586422   2.5190005   0.6832279  46.1490536   1.7813314
   1.6164105  46.7483139   2.8113985  18.9749622  55.5347109  28.6212707
  18.7911499  55.8839464  29.4933224  18.7924123  54.5979786  28.6950326
  73.4552934  73.0587002  21.7702818  73.0400207  73.7986743  22.2132492
  73.6347416  73.3788031  20.8862209  30.3479791  57.7875566  26.8796039
  29.7399402  57.0828247  27.1029282  31.0461760  57.3547649  26.3882375
  28.8826346  54.5010996  15.3337002  29.5367217  54.1086912  14.7554111
  28.5799909  53.7757349  15.8800399   2.1188606  22.8558016   1.2354085
   1.5507311  22.7204204   0.4770337   2.4290565  21.9790268   1.4618517
  48.6497164  68.9489079  58.6608791  48.2227850  69.4280720  57.9506969
  48.0059052  68.2929230  58.9281321  17.6767671  20.1092029   2.5813323
  18.4848857  20.4217625   2.9881307  16.9779253  20.4967475   3.1082678
  13.2818305  58.2298374  20.6228662  13.5577512  58.1242895  21.5333390
  13.8800395  58.8862944  20.2658749  25.1862431  10.2962494  20.6328225
  24.8257637  10.6633532  21.4399910  24.8454785   9.4022512  20.6032014
  45.9086370  57.6911545  18.9155102  45.4436493  57.3746157  19.6899915
  45.2299261  58.1018353  18.3798540  26.5038395  11.8372250  28.1994247
  25.5468535  11.8169832  28.2010007  26.7494631  11.4842415  27.3442626
  14.5405686  12.7296174  56.2408447  14.6760595  13.0534840  57.1313429
  15.1943934  13.1914020  55.7159662  60.8761454   2.8537959   1.9067526
  60.4091215   2.6412833   2.7148116  61.7554426   3.0981335   2.1954891
  20.8363444  73.1175473  48.8084412  21.3700540  72.4447817  49.2312574
  20.2640302  72.6312973  48.2149363   4.7978595  25.7850909  43.6479712
   4.9024519  26.2533522  42.8197050   3.9029139  25.4466462  43.6204100
  75.9163523  49.3451405  31.8002701  76.0627747  48.9548969  30.9385824
  76.4835739  50.1160574  31.8135810  26.7202544  25.3550291   6.9794112
  26.3221407  26.1516953   7.3302126  27.4682164  25.6656790   6.4692318
   5.1970226  74.1661947   5.0377172   5.5885345  74.5743483   5.8099622
   4.3146927  73.9220397   5.3172070  52.7117435  73.9457627  36.1710596
  53.1021702  74.4634763  36.8751717  51.8835267  73.6327767  36.5348315
  77.2227049  57.4559212  16.5270364  76.7631769  56.6637468  16.2486005
  76.6851521  57.8077555  17.2365999  67.9747152  49.3882895  16.6707206
  68.5002089  48.7683535  16.1649895  68.5921431  49.7749662  17.2916031
  35.0237632  40.3379154   7.4040002  35.9689045  40.2391577   7.2891682
  34.8994374  40.3664637   8.3526623  50.5151987  17.2299922  12.2018218
  50.3546238  17.0433879  11.2768209  51.2682724  17.8208411  12.1997488
  57.9314327  42.5842905  49.1949606  56.9747353  42.6072884  49.2158318
  58.1414938  41.7720079  48.7341976  14.0138423  14.0753841   3.8234192
  13.2027996  14.4118738   4.2044908  13.8315046  14.0166521   2.8855836
  32.0657158  71.6395187  30.6324816  31.5772891  72.1476650  31.2801385
  32.9671001  71.6442871  30.9545279  37.5299835  28.0485106  17.5485003
  38.4040451  28.2369113  17.8901935  37.6243901  28.1167650  16.5984154
  71.7114115  60.1491070  14.5062602  71.0347462  60.7611465  14.7956789
  72.3731470  60.7023716  14.0912533  43.4189320  10.2303696   2.5849685
  42.6588583   9.6497792   2.5471190  43.9637518   9.9601865   1.8457778
  14.5273113  59.8348618  47.2111559  14.4943631  60.5210876  47.8776693
  15.2243769  60.1118231  46.6164923  42.9938316  61.9126940  44.6731663
  43.1948614  61.6561937  43.7731504  42.1664429  61.4727783  44.8684549
   5.1500720  16.7169762  30.0651908   5.2693105  15.7676971  30.0949097
   4.9887687  16.9093096  29.1414928  34.5936275  22.0618916  56.2762547
  34.4355702  21.8891764  55.3481293  34.3975830  22.9926491  56.3834524
   8.2215679  37.8382802  29.5539713   8.5962194  37.0110416  29.8565316
   8.9437038  38.4638476  29.6124220   4.0424943  50.6058979  11.6383541
   4.0391985  50.7199383  10.6879783   3.6228073  51.3971567  11.9759917
  77.9560900  24.8797631  35.7691050  77.4015474  25.1400614  36.5046048
  77.6199102  25.3813720  35.0264049  64.1998863   1.0027171  26.9774461
  64.4027042   1.7952868  27.4743676  63.2459784   0.9333940  27.0159864
  77.7779341   7.5016367  63.3144331  77.7531624   7.5186765  62.3577023
  76.8893242   7.2568971  63.5727119  65.8684731   6.4255911  26.1579275
  66.1955643   7.3098522  26.3232374  65.9046888   5.9934044  27.0112348
  11.4421439  38.6930013  39.0066695  11.8777335  39.5444036  38.9665484
  12.0471287  38.0936146  38.5696816  66.6621964  46.6062800   0.3736540
  66.3735860  47.0929567   1.1457201  66.4149707  47.1616010  -0.3657583
  62.0965481  32.7173138  15.8385444  61.5019369  31.9842386  15.9975064
  62.7534866  32.6473904  16.5312004  46.7522144  69.9119329  44.6214342
  45.9832191  69.3479252  44.7037029  46.4080000  70.8006811  44.7101831
  65.6971774  67.0475637  64.1042841  65.8817682  67.5510846  63.3114264
  64.8435888  67.3665653  64.3972999  59.8423958  40.3603077  59.0680838
  59.7981596  39.5080543  59.5016050  59.6596813  40.9924173  59.7632694
  29.5438242  18.2839465  23.5047865  29.5553255  18.0442274  24.4314122
  29.9808955  17.5556016  23.0635238  32.5076556   5.1918912  14.7622609
  32.5146770   4.9431154  15.6865406  31.7583227   4.7238478  14.3939328
   6.2038910  53.0463791  23.2445216   5.6763512  53.7561226  23.6108518
   6.9837844  53.4811020  22.8995371   8.2367116  57.7673340  31.5985680
   8.3901924  58.0527830  30.6979036   8.0350041  56.8346739  31.5231490
  28.1793737   9.0554565  10.1995444  28.3603716   8.1250656  10.0659621
  28.2941461   9.4484252   9.3343067   5.6242907  49.7889948  16.4471197
   5.3945160  50.1998377  17.2805703   6.5686762  49.6436405  16.5040541
  42.4683094   8.0669332   8.2101470  42.3701859   8.1843138   7.2652525
  43.2527304   8.5679328   8.4335589  68.1925392  13.4372938  57.6863432
  68.0789757  12.9037166  58.4728718  67.3084784  13.7312007  57.4665976
  20.5227542  29.9348140  61.1099052  20.8391881  30.7867169  60.8093071
  20.3496528  29.4460797  60.3052902  19.0320265  51.0403967   4.5793077
  18.5058939  51.1710072   3.7904119  19.8949099  51.3866472   4.3517655
  67.8855610   6.0186875  24.4377542  67.4235582   5.9990168  23.5996604
  67.2038555   5.8604795  25.0908089   8.7717021  19.1623187   4.9981907
   9.0049899  20.0796294   4.8555425   7.8797174  19.1930294   5.3440976
  14.6248078  67.2863674   4.9901637  14.0080976  67.9796505   4.7550905
  15.3036201  67.7315092   5.4974055  73.0346632  35.0080991  39.9449968
  72.6178074  35.0753045  40.8040333  72.5186491  34.3500829  39.4791913
  26.6391778  27.3146391  36.9886017  27.2442222  27.4327683  37.7208591
  26.0992241  26.5661311  37.2424126  20.2916193   6.9648552  14.0768087
  20.9502149   6.3703769  13.7175310  19.5338678   6.8586022  13.5016966
  18.3511913  13.5797000  15.2606058  18.8534880  13.8996816  14.5112455
  18.5301781  12.6397026  15.2851367  67.7878952  32.5751638  18.1914115
  68.7149382  32.6830053  17.9788220  67.6350594  31.6325688  18.1251895
  35.9114122  52.0072126  29.8525977  36.6568160  51.6143322  29.3984485
  36.1482191  51.9688845  30.7792497   7.5288761  35.3369880  31.1566257
   8.3649093  35.1782846  30.7183433   6.8761522  35.2669024  30.4600120
  13.3199227  20.3986621  18.9423275  12.8869879  21.2292910  19.1394460
  13.9395595  20.2749848  19.6613455  21.0637522   8.2853144  11.3557529
  21.8553734   8.6961007  11.7033517  21.3848114   7.5489944  10.8351898
  63.1499338  23.5913539  12.7589548  62.2882128  23.9961600  12.6599777
  62.9759359  22.7646255  13.2089257  69.6500158  73.7494230  13.6762607
  69.4097233  72.8485584  13.8928974  70.0455713  73.6892891  12.8066885
  20.5150604  47.8103352   6.5976727  20.5578256  47.4095488   5.7294697
  19.8997653  47.2620487   7.0845282  65.2293921  67.9897594  46.6231918
  65.4073668  68.8679457  46.9598579  65.7050419  67.9503918  45.7934666
  71.0083103  57.2244978  14.3022597  71.6863441  56.8349552  13.7502134
  71.2258911  58.1563044  14.3272758  23.0662298  35.4998899  28.0492854
  22.1234322  35.6629086  28.0212092  23.3452892  35.5499935  27.1350384
  22.0139146  17.2615027  53.9509916  22.2614431  17.5356686  53.0679321
  22.5186419  17.8331149  54.5295620  22.9319263  25.3922749  15.2650666
  23.1583500  24.8508525  16.0212588  22.5685835  24.7758150  14.6293068
  72.1529484  42.6758862  42.6637506  72.7676868  41.9648409  42.4828005
  71.7831469  42.8961706  41.8087912  18.0361497  12.8479660  56.3378382
  17.6261628  13.5182858  55.7911968  18.4607673  12.2578740  55.7151604
  46.7930937  70.9714413  19.8535955  46.0558033  71.0163498  20.4623795
  46.8947506  70.0377274  19.6690011  73.3050632  32.8668547  49.2629766
  72.5532770  32.7524877  49.8443222  73.2049704  33.7522817  48.9133596
  13.2828426  68.3562326  26.0108185  12.7631128  68.2968473  26.8124318
  14.0207231  67.7648926  26.1594200  59.3182087  21.9804621   8.1158751
  60.0974035  21.6864896   7.6439959  59.4590282  21.6880918   9.0163875
  26.0540414  30.7093716  16.6626120  25.8609962  31.5627933  17.0507324
  25.3976274  30.6055474  15.9737194  27.3725939   5.2365863  17.0879674
  27.0915937   5.5424696  16.2255824  27.8973961   5.9564424  17.4381399
  31.6026831  59.5381451  51.4044094  32.0659709  58.7053823  51.3143682
  30.7931972  59.3134975  51.8632078  25.7581663  42.8213024  15.4633963
  26.4734650  42.1975660  15.5880117  25.6859303  42.9162741  14.5136619
  32.8088427  40.5880690  21.4383864  33.4932566  40.7006884  22.0980287
  32.5754309  39.6612716  21.4912367  40.9028530   6.9149244  63.1782293
  40.9219742   7.8643829  63.2982111  40.5805779   6.7927933  62.2852278
  20.4196835   1.9101359  54.0266848  19.4825804   1.8978471  54.2214203
  20.6148171   1.0204867  53.7322712  25.5709672  53.3416271  48.8012314
  26.1651325  53.2997465  48.0519342  24.9257207  52.6546764  48.6339378
  56.8006134  69.1697121  37.6270986  56.4711189  68.4537888  37.0838451
  56.4578104  68.9843035  38.5013652  23.9586568  21.2791920  25.4637384
  24.0482163  20.9859371  24.5569801  23.1142950  21.7294359  25.4875636
   6.5478534  18.9733219   0.4441192   6.1974150  18.5219324  -0.3237825
   6.4292043  19.9031436   0.2502511  63.5074091   8.4125483  54.7531366
  63.2276106   9.1413599  54.1992617  64.3563128   8.1521940  54.3956423
  49.8046637  41.2022495   9.4807017  48.9873171  40.7604504   9.2505139
  50.4913664  40.6009483   9.1924226  34.0887213  70.4362392  63.0196762
  34.9476337  70.1672220  62.6938963  33.7527180  71.0293913  62.3477364
  19.2090404  38.3800745  25.9783340  19.1618812  39.2736387  25.6384063
  20.0053740  38.3675218  26.5093017   6.3211119  64.9090290  33.5095549
   6.4736879  63.9978647  33.2591057   5.7110661  64.8562622  34.2452812
  14.1518748  33.1796074  31.1324000  14.6957397  32.7737999  30.4572988
  14.6411252  33.0489445  31.9446778  12.1689546  33.6888528  24.7951627
  12.4994326  34.0540004  23.9743805  12.8911531  33.7980056  25.4138279
  72.2522688  50.5664778  11.3394845  71.5091848  50.7848120  10.7770038
  72.7855110  49.9719429  10.8118367  11.6419590  46.1812401  22.5634956
  11.1866343  47.0206594  22.6289725  11.6410470  45.8379316  23.4570122
   6.3197571  19.9756944  13.7036979   7.2122282  19.7402072  13.9572215
   5.9638512  19.1782987  13.3116210  35.2918553  55.4919386  16.0789442
  34.9575639  54.7025108  15.6531692  36.2032938  55.5508757  15.7925236
  18.0547690  28.3919835  29.5847964  18.0066991  27.4431562  29.4679761
  18.9710367  28.6084509  29.4120908  28.3551693  34.9675632   7.1738189
  28.5974622  34.1648912   6.7120367  29.1190267  35.5369520   7.0813620
   2.8091735  57.5849295  16.9045222   2.7591965  58.3693933  16.3583064
   3.6941856  57.2494745  16.7614985  78.6631152   7.3740119  54.2486620
  77.9138484   6.7795026  54.2859459  78.2789429   8.2480884  54.3167400
   8.0232888  46.0777283  22.3136568   8.4653914  45.3668499  22.7778006
   8.6452627  46.3452768  21.6370487  18.6063302  50.4575729  12.7761662
  18.3754718  49.5886374  12.4477112  18.3107960  50.4557896  13.6865985
  25.8202624  52.4638987  20.9134078  24.9807262  52.6133919  20.4785943
  26.0976171  51.6001081  20.6081748  51.3261223  66.7481995  15.0228095
  51.4581394  67.3174191  15.7809627  51.9984818  66.0725832  15.1105881
  69.3008614  58.7459373  56.1295509  69.0107584  57.8741026  56.3978195
  68.8305616  59.3440914  56.7102909  31.4962888  60.1630449  57.0200777
  31.3104153  59.4750023  57.6590443  31.1522794  59.8223591  56.1943531
  39.0667057  52.5613880   5.4953021  39.2260933  52.6685905   4.5575735
  39.0996671  51.6153431   5.6372356  41.1600876  65.8541870  54.1286230
  40.8537817  66.0645819  55.0107431  41.9978666  66.3105917  54.0507793
  49.7839982   0.7116397  64.3379106  49.3775470   1.3240321  64.9511047
  49.8330790   1.1954172  63.5134211  24.5603371  35.2376318  14.7488701
  24.1762900  34.5274639  14.2346692  25.4112053  35.3962851  14.3401134
  77.3260450  31.4267564  15.1096416  77.9957867  31.0114694  15.6529748
  77.5814247  31.2157369  14.2115986  41.6243315  61.1220169  36.1621785
  40.9190130  60.5385876  36.4421153  42.1994972  60.5669594  35.6355572
  27.7463174  49.8661613  22.7717233  27.3673868  50.1579905  23.6008668
  27.4195862  48.9734030  22.6601171  24.6115205  39.7259019   0.8138271
  24.6140048  39.0882233   0.0999685  23.7060020  40.0330974   0.8574148
  18.9914858  42.1545744  28.5992050  18.4679508  42.2303009  29.3969560
  18.5122919  42.6677608  27.9486299  33.9271307  27.0884037  26.9235277
  34.7440100  27.5741386  26.8095064  33.7139487  27.1926141  27.8508496
  44.1147184  19.5749855  12.9221773  43.5360146  20.2000737  12.4856019
  43.9464140  18.7431872  12.4794400   9.1468632  40.3183031  31.5739989
   8.5944003  41.0997963  31.5571594   8.6291695  39.6692300  32.0503712
  51.7151451   2.5920281   1.3180096  51.8038130   1.9347236   0.6278496
  51.4340687   2.0957521   2.0867345  28.8379788  28.9267683  20.6454420
  29.0963864  29.8436475  20.7391930  28.4132242  28.8840342  19.7887099
  31.9795060  37.8480983  20.9983563  32.1115994  37.0834541  21.5588045
  31.7263842  37.4828148  20.1505756  38.7582159  48.8363743   9.1093981
  39.4712353  48.3270597   8.7241322  39.1799188  49.3635798   9.7879648
  39.9867845   7.4306625  33.8230276  39.4174433   7.9668415  33.2711267
  40.8432341   7.4748588  33.3978534   3.9349243   8.0736291  39.6222162
   3.6617619   8.9785123  39.7732162   3.7767532   7.6331836  40.4572153
  36.5745902  61.0256577   6.4125752  35.9558892  61.2200165   5.7085401
  36.8552303  61.8844652   6.7286777  72.4531221  16.9200861   5.6422728
  72.6838875  16.0426331   5.9473234  73.2053423  17.1973813   5.1193005
   7.9116803   4.8382926  13.4088612   6.9821876   4.6961898  13.2297480
   8.3014822   4.9876708  12.5474823  65.5822945   6.6604596  40.4761696
  65.5772543   7.3304754  39.7925854  64.7661686   6.8016815  40.9559870
  73.5150290  33.1804347   1.4600700  73.6974907  34.0147901   1.0278808
  73.1859541  32.6154828   0.7609463  25.9415364  36.2835002  31.7886925
  25.8438778  36.5836596  30.8850336  25.2236366  35.6628609  31.9138288
  25.2056074  66.2675285  24.4387650  24.9695086  67.1834707  24.2919993
  24.5423841  65.9439564  25.0484085   9.1234344  16.9487262  40.4162264
   8.6766326  17.4967742  39.7710586   9.9991482  17.3285186  40.4877377
  44.9338579  48.1680632  59.2865849  44.1224909  48.1315231  58.7800503
  44.7914696  48.8747644  59.9162912  58.6314201  12.3489475  39.9220157
  57.6864672  12.4978030  39.9557281  58.8428688  11.9589829  40.7702208
  65.0724649  53.5012770  63.1079483  64.4087267  53.1878376  62.4935913
  65.0911474  52.8390169  63.7988138  16.1217439  23.0708599  38.5889602
  15.9143555  23.3100653  37.6856327  17.0281410  22.7651906  38.5537195
  18.8962567  52.8725576  29.4293571  18.3517683  52.0950174  29.3060827
  19.5023441  52.6318932  30.1300502  70.1292276  51.5911198  10.2414000
  70.0755739  52.4474144   9.8170072  69.3070364  51.5115643  10.7250369
  62.6154900  27.4213243   3.0005145  62.9091454  26.5675402   2.6826310
  63.1169462  28.0538654   2.4860594  27.3890448  36.1792040  36.7245865
  27.1527886  36.4921355  35.8513808  27.8315258  36.9227815  37.1338964
  69.3332767   8.0863893  57.6663446  70.0936508   7.7033508  57.2289228
  69.0676451   8.8082439  57.0966101  69.5863438  71.6863680  33.4520888
  69.1060305  72.4510193  33.7696433  69.9014807  71.9442511  32.5858235
  31.5469670  39.6098995  24.7334552  31.4306903  40.3864193  24.1859818
  30.6904221  39.4713664  25.1376462  39.0226340  42.8157377   7.6442164
  39.3860650  43.5994911   8.0563760  38.4297371  43.1516504   6.9720066
  12.7869713  19.2614079   0.3001591  13.2529867  19.9753869  -0.1349219
  12.0685947  19.6917367   0.7638238  41.5743351  41.7271233   5.3193635
  41.0235453  42.2593546   4.7452569  41.0847282  40.9125376   5.4332453
  21.6418839  17.4581933   8.8488740  22.5511003  17.1630335   8.8982242
  21.6953611  18.4113419   8.9187312  11.4401400  63.1020069   4.5380545
  11.6831625  63.9967871   4.7758451  10.8996558  62.7987242   5.2675247
  51.2565279  11.9112110  41.8225718  50.9448433  12.7501571  41.4830875
  51.5249920  12.1014166  42.7214527   0.3463940  27.4237394  11.1941123
   0.9788708  27.9227471  11.7110229  -0.1770683  26.9546866  11.8438888
  28.7484312  40.5953217   3.1093302  29.5366168  40.2620697   2.6804477
  28.9043045  40.4508114   4.0426317  43.1213999  57.7481556  62.1777344
  43.5508919  56.9030380  62.0452738  43.1442595  57.8825474  63.1251764
  35.9599209  37.1855927  11.4925313  35.7626438  36.3009238  11.1848414
  36.8081737  37.3920965  11.1000347   4.5492062   2.6355287  49.3117237
   3.9188686   2.2214130  49.9011421   4.0518460   2.8084618  48.5123730
  19.3698740  41.6420126  16.6401637  19.3616462  41.4673233  15.6990743
  20.2919579  41.7935848  16.8475783  55.0523329  69.0523911  40.1640940
  54.3545198  69.7075844  40.1681852  54.6481895  68.2697058  40.5386734
  11.4517069  49.8670387  34.4085336  10.8713841  50.5577087  34.0884733
  12.2695923  50.3187227  34.6165681  29.9308729  63.3358002   1.9492634
  30.2010322  64.2356920   1.7663936  30.3964758  62.8092194   1.2995249
  36.8114734   0.3489223  61.7566395  37.2837257   0.5903133  62.5534678
  37.4823308   0.3403728  61.0739183  19.4658685  45.6679010  18.4329939
  20.4225159  45.6354380  18.4304810  19.2076910  45.1825809  17.6493871
  16.2078977  59.0620470  10.6116700  15.5080986  58.9831972  11.2599742
  16.8950462  59.5552778  11.0597575  28.5013843  36.8115735  28.8238740
  27.5467992  36.8481731  28.7633538  28.7703037  36.2998939  28.0609202
  31.6673183   2.7165782  20.2420378  32.2113943   2.1684289  19.6765780
  30.7687116   2.4829629  20.0093174  72.2598076  47.6518583  33.8639736
  72.6045322  47.8308487  34.7388220  72.5238895  48.4100246  33.3427405
  24.0893459  57.9635763   3.6983082  24.2115974  57.7520704   4.6238086
  24.7607756  58.6198187   3.5118750  30.3582478  35.6168389  62.2320700
  30.6981087  36.5067339  62.3259497  31.1010456  35.1101613  61.9038010
  30.4357767  26.3845468  27.2218037  30.8568215  25.7096910  27.7542710
  31.1253047  27.0291972  27.0630360  37.9745531  60.0831270  21.8132639
  38.4320569  60.9226561  21.8591976  37.4008775  60.0807428  22.5795031
   1.7729369  49.8048067   9.7141206   2.1676148  50.4992390   9.1866493
   1.3052641  49.2597866   9.0812951  14.4432271  34.8066378  53.5326433
  13.5064590  34.6762705  53.3853245  14.7098100  35.4217243  52.8493881
  35.1819277  49.5561647  14.2544460  35.2337742  49.9972630  15.1023698
  34.3137836  49.1530514  14.2468536   0.7094135   5.4134583  63.0936098
   0.0709970   6.1110908  63.2418203   0.2901442   4.8368421  62.4548960
  67.3354435  42.9324865  30.3889537  68.0924940  43.4195089  30.0635004
  67.6792860  42.0623541  30.5911160  22.9814267  44.2104292  26.2178326
  22.6994061  43.5774612  25.5574965  22.2494531  44.2571354  26.8328667
  39.2384195  27.2059608  10.3681111  39.8773122  27.6585197   9.8174393
  38.8342261  27.9013777  10.8870077   4.6049449   0.5852005   8.6208397
   4.9321458  -0.2894762   8.8308603   5.2000997   1.1796305   9.0776533
  16.7096722  10.5432355  50.8070183  16.9631672  10.8441520  51.6796112
  16.7683029   9.5891035  50.8562851  32.2475529  30.2868152  13.6545551
  31.5159941  30.3076267  14.2714977  32.4178839  29.3550873  13.5163486
  38.5611272  48.9376402  31.4577603  38.0400038  48.1420755  31.3494182
  38.3313298  49.4791698  30.7026625  13.4212208   7.9942131  53.5551119
  12.8382003   8.7303001  53.7408352  14.3014884   8.3475471  53.6836290
  53.7281179  10.4161298  64.0339756  53.0707884  10.8070230  63.4583426
  53.3775425   9.5507878  64.2449570  63.8153505   7.2416937  58.3623505
  63.3789444   6.9702637  57.5548220  63.7776041   8.1979954  58.3452177
  13.4565938  48.3798885  19.6680260  13.6472023  47.8038883  20.4083776
  14.1810000  49.0054941  19.6585858  66.4813757  64.6312189  46.2805986
  65.5807352  64.8879766  46.4784813  66.4070654  63.7393761  45.9410000
  30.0212073  49.3575335  -0.3037712  29.4974732  50.0208759   0.1455742
  30.7826495  49.2298317   0.2620308  61.7340231  46.0113096  59.8875284
  62.0634794  45.7944298  60.7596827  60.9034872  45.5401039  59.8212194
  37.2769094  39.8878050  61.8863583  37.3156166  39.0011978  62.2450495
  37.8984261  39.8790288  61.1584377  76.1092281   9.5580673  53.2354975
  76.7206907   9.8611432  53.9066792  75.3405428   9.2666191  53.7258148
  73.3481932  49.9852753  32.4775577  74.1996574  49.5816183  32.3093557
  73.5007381  50.9231520  32.3620248  31.8411422  19.6354115  61.8032789
  32.5782657  19.1148639  61.4840508  31.2246466  18.9903498  62.1497774
  20.2946806  15.8844256   6.8756413  19.4425964  15.6758702   7.2586441
  20.6671929  16.5415156   7.4636024  41.3934422  15.7749963   8.7253141
  40.5090332  16.1134660   8.8649273  41.3586044  15.3626537   7.8621852
  54.3736601  10.2734387  56.2585545  53.9814615  10.6186783  57.0605659
  53.8037586  10.5900633  55.5577040  59.8711920  70.1513910  40.8593416
  59.7813892  70.6383514  40.0401735  60.0413942  70.8230019  41.5197992
  10.4974496  57.0670509  26.7093611   9.6485281  57.4400997  26.4718843
  10.5732322  57.2240877  27.6505470   2.7420244  20.7867384  60.3803253
   3.3046323  20.0692582  60.0888968   2.4784598  20.5395699  61.2667084
  77.3382711  19.5441866  11.2678480  77.8488731  19.1304243  11.9637775
  77.9633379  20.1123285  10.8175898  40.7794714  26.0134673   7.6374108
  41.0188770  26.8595791   8.0155802  40.5283594  26.2163186   6.7362863
  14.1162181  25.3858709  33.5413957  13.1995869  25.5048585  33.2926750
  14.4889307  24.8565292  32.8363323  39.3699479  13.6497641   8.8444263
  38.8078046  12.8822434   8.7388808  40.2584171  13.3141255   8.7252694
  73.4852409  25.2023220   6.0166693  74.2493057  24.6662354   5.8044243
  73.7406683  25.6820798   6.8045902  38.4710598  58.5658360   3.2916564
  38.5047436  57.6197672   3.1500757  38.5627031  58.6696911   4.2387825
  68.2663250  28.5020709  63.8975716  68.5709047  28.0519366  63.1096363
  69.0365028  28.9714551  64.2180967  17.0338964   3.2272780   5.8705139
  17.6670349   3.0943069   5.1650447  17.0260394   4.1742352   6.0099500
  69.4684410  23.2575345  13.7881410  69.6092176  23.9652205  13.1591761
  70.3469324  23.0283308  14.0913785  15.0785029  66.5718794  26.7030549
  15.8818769  66.1845875  27.0506597  14.3787026  66.1833668  27.2280073
  25.8808923  32.5747466  34.2827606  25.8026481  33.2523537  34.9542952
  26.0650635  31.7728686  34.7719479   8.9593053  31.9412684   6.1922705
   8.1351835  32.3592806   5.9426272   9.6345311  32.4705386   5.7678014
  25.7934594  41.3318968  23.9670968  25.1409507  40.7006168  24.2703366
  26.4937449  40.7938576  23.5978460  46.1711507   0.4572460  61.7797899
  45.4828780  -0.1383808  61.4835835  46.2756603   1.0793898  61.0598946
  13.6522460  65.8223915  20.9967780  13.7218082  66.6320086  21.5026593
  14.5573509  65.5322599  20.8834600  12.0881391  42.6485920  25.6477475
  12.0725608  41.6990614  25.7676935  12.5062692  42.7755976  24.7961235
  38.4270835  36.2628698  16.9868255  37.5688148  36.6494823  17.1604264
  38.4808326  35.5194974  17.5874400  66.6743708  31.3025451  62.8005648
  67.3386478  31.1205268  62.1358585  65.9181404  31.6153431  62.3040676
  39.3002748  11.3808000  48.2578325  38.5114431  10.8894348  48.4870386
  39.7419620  10.8348751  47.6073599  64.3068409  66.8255377   1.3164368
  63.7694740  66.1186695   1.6739419  63.9383745  67.6226330   1.6973597
  17.3965633  22.7100945  15.5384386  17.2682321  21.8651438  15.1073694
  17.3848307  22.5061250  16.4735806  73.7071848  61.5169382  13.2672715
  74.4169521  62.1429825  13.1240129  73.6921501  60.9856129  12.4712181
  33.2047701  63.5305119  30.2744412  32.5514770  64.1435909  30.6114507
  32.6955295  62.8787565  29.7926497  21.7287254  46.2662840  22.2766852
  21.8008256  45.3127098  22.2351050  22.6236296  46.5675259  22.4336362
  61.2175083   1.5616329  63.1576014  61.8304634   2.2210020  62.8324080
  60.3782940   1.7997530  62.7635860  63.1779575  59.1584206  60.7650757
  63.3160686  58.7770605  59.8980570  63.1271887  60.1010752  60.6067848
  62.2136211  61.6624689  36.7067409  62.1778393  61.7174244  37.6616907
  62.3507261  62.5653124  36.4198446  61.2934828  70.8946943  58.4262848
  60.3778458  71.1723804  58.3991623  61.7926264  71.7048311  58.3225441
  72.6341295  45.3646231  49.7888660  73.3334732  45.8238602  50.2538967
  71.8361235  45.6027842  50.2607727  55.8753824  16.7350912  10.4882956
  56.2254286  17.4236500  11.0536158  55.0147247  17.0583951  10.2218878
   3.9294967  62.7191782  40.4887915   3.2812005  63.2759190  40.9200478
   3.4924972  61.8729973  40.3926468  63.1401730  33.5541987  27.8392649
  63.7353420  33.6057210  27.0913672  62.4567938  34.1960335  27.6461983
  39.7562528  28.5067129  23.9913249  38.8987517  28.9110541  24.1233563
  40.3535986  29.2452121  23.8728809  34.5938754  37.8908706  19.8495185
  34.4386148  38.6665726  19.3106210  33.8950872  37.9097223  20.5034065
  75.7913589  69.0338135  24.1103697  75.4866362  69.9290609  24.2584014
  76.1610460  68.7645245  24.9512291  47.4447060  12.5489628  57.3283958
  47.5435495  12.7575231  56.3994408  47.3698521  11.5950131  57.3530531
  34.7505569  57.6191616  25.0357819  34.5551229  57.2551155  25.8992100
  33.9191341  57.5751734  24.5635200  19.8715782  14.2565215  23.1744242
  19.4419551  13.5021639  23.5776615  20.7564712  14.2515421  23.5393524
  44.8658228  23.6758184   4.5204791  44.1705465  23.6916494   5.1781851
  44.8676634  24.5594931   4.1525805  63.0105877   3.5069245  52.5285721
  62.7991152   4.0317428  53.3006334  62.5315094   2.6882407  52.6569176
   0.5476288  45.5233431   8.9108819   0.5253411  44.6475220   8.5252976
   0.9309436  46.0754156   8.2293260  40.3762341  11.3571239  18.8261092
  41.2281704  11.1473203  18.4434700  39.7718072  11.3490903  18.0839264
  28.1832743  52.1801090   7.9501307  28.7457633  52.7617216   8.4615636
  28.4182310  51.3000488   8.2442755  42.4060059   3.5511094   7.4055821
  43.0589724   2.8604037   7.5186634  41.6857147   3.2965130   7.9822934
  72.5516701  57.3824358  36.0908151  71.8973684  57.0544481  35.4739308
  72.7085304  58.2857609  35.8158040  61.5003633  18.7536669  44.8495722
  60.8921003  19.2034745  44.2631292  61.1063957  18.8426590  45.7173872
  63.5744429  35.1454473  11.9577622  63.3680105  34.4092870  11.3818383
  62.8371668  35.7466149  11.8516779  36.5193176   7.4810863  13.8489878
  36.4330983   8.0667049  14.6012175  37.2931361   7.8000754  13.3845699
  32.8364182  59.1268206   5.1096374  32.5193572  59.6675634   5.8330327
  33.0761290  59.7549200   4.4282690  36.6062546  53.0433273   6.7830902
  35.8772349  52.7523851   6.2352628  37.3875284  52.8476095   6.2658495
   9.9943238  36.5010214  39.4893837  10.1821971  36.4123702  38.5549998
  10.5083954  37.2595525  39.7661400  51.7715788  60.6223631  14.2608821
  51.7803097  60.8151817  13.3233452  51.3264990  59.7775555  14.3275237
   7.8575456  68.9172840  63.2590628   7.7756423  68.4597063  62.4223137
   7.8814244  69.8447466  63.0235291   3.2431322  68.2700109  57.5767136
   3.3046493  69.0111494  56.9740868   3.4314486  68.6446857  58.4371710
   7.2191399  45.9567308   4.7568294   7.3993152  45.6503963   5.6456077
   8.0542719  45.8653784   4.2980921  40.4077339  42.2750807  11.2621081
  40.6931686  42.1551800  10.3563583  39.7516680  41.5916491  11.3989484
  35.6816101  34.2299032  16.4327145  35.8244848  35.0702977  16.8680918
  35.2224851  33.6982870  17.0829606  67.4684286   1.7438446  37.2795463
  66.6974401   1.1925028  37.4130702  67.1196079   2.5614750  36.9245291
   9.3225205   2.4867608  51.5618944  10.1426184   2.9644546  51.4374781
   9.5257920   1.5892488  51.2984896  30.5925012  10.9481072  20.0390863
  31.5259242  11.0049212  20.2433538  30.3435326  10.0617266  20.3009582
  76.5970135  70.6378937  56.7669725  76.8276215  71.3680601  57.3413467
  77.2601986  69.9718857  56.9482136  21.6870689  73.4381485   6.9856787
  21.1044765  73.0902004   7.6607716  22.5036645  72.9520702   7.1002579
  69.9490452  67.3366833  52.5368595  70.1004076  66.4144659  52.7438211
  70.7713890  67.7710772  52.7633333  35.6506085  68.8449812  30.1218176
  35.2125049  68.4141397  30.8557606  36.0860252  68.1337881  29.6518731
  18.0409837  31.3479424   7.0921504  18.1254375  31.5986395   8.0120695
  18.2552195  30.4151392   7.0774722  12.2547781  13.4408438  54.4451141
  12.3148048  14.3874061  54.5741415  13.0373085  13.0909503  54.8710823
  70.3054953  16.8295062  19.4561172  71.1902285  17.0666599  19.7340333
  70.0333786  17.5475955  18.8846874  16.0532188  63.6440086  39.6290803
  15.6287432  63.0532169  40.2511883  15.9473073  64.5138311  40.0143337
   7.6645166  11.6958916  40.8171988   7.0815194  11.3381898  40.1475763
   7.4486208  12.6278603  40.8496952  58.6579084  60.6276035  61.5138388
  59.4864225  60.9006214  61.1198044  57.9898167  60.9215546  60.8945847
   8.1031609  29.7315526  10.0799000   7.2202772  29.6958923   9.7118282
   8.5070890  30.4911566   9.6602887   4.9004522  32.7264524  33.9785695
   4.1464514  32.1389914  33.9275479   4.5197016  33.5930133  34.1211724
  37.9787207  66.9218779  52.3913622  38.5264015  66.1434460  52.4929380
  37.8735065  67.0188713  51.4449215  19.0219569  58.8137245   6.2388968
  18.9921319  58.7834311   7.1951520  18.3032858  59.3971300   5.9952146
  35.6341696  21.1971283  32.3212552  34.9310422  21.3608098  31.6927218
  36.0883379  20.4278016  31.9775939  39.4826055  65.5970526  11.3989866
  40.2388811  66.1741209  11.5051520  38.8106656  65.9761333  11.9655740
  37.2170401   7.2936577  21.2043381  36.9184399   8.2030332  21.2145805
  37.2260880   7.0549619  20.2774215  26.9994497  10.2129149  30.8770537
  26.3589978  10.7212102  30.3793716  26.5635872   9.3774962  31.0453749
  62.3835135  42.7516556  26.5503907  61.7177057  42.6449490  27.2297597
  63.1555367  42.3063850  26.8996048  37.3928118  67.1409464  12.9364157
  37.8057218  66.6505051  13.6471915  36.5255046  67.3660803  13.2730544
  73.4568310   3.4240395  60.2431393  73.1058455   3.6234644  59.3752289
  72.8255701   3.8090160  60.8510351   5.5158660   1.4630815  61.8500042
   4.7230480   1.8293259  62.2418308   5.2331397   0.6310198  61.4705706
  18.0635703  32.6267695   9.8287559  17.1443510  32.6758742  10.0911629
  18.4813285  32.1073246  10.5156946  78.2450533  70.4735422  51.4288807
  78.3595705  70.4688263  52.3791933  78.4442234  69.5769787  51.1591816
  38.9837861  10.0275755  23.3666539  39.5277762   9.9979651  22.5796127
  39.6023631   9.9220753  24.0894699  45.5944777  10.8838212  28.9946008
  44.7698736  10.4010177  28.9383340  45.8102655  11.0959506  28.0864859
  75.0322628  38.6144972  33.4550405  74.4689178  39.0905738  32.8449345
  75.8770275  39.0611482  33.3993244   1.6306244  35.5449772  62.6635075
   2.3395327  35.8141708  62.0793724   0.8326015  35.8326721  62.2200871
  77.4670219   7.5513554  60.4619026  77.4562883   6.8862855  59.7735739
  76.6105986   7.9743135  60.3996658   0.6641546  53.8032675  62.7610874
   0.0434549  53.1700039  62.4006081   0.4504380  54.6256542  62.3203659
  10.7393367  74.0386385   0.9604771  10.9568674  73.4822582   1.7083763
  11.3904316  74.7398132   0.9861828  24.7307038  49.2584324  29.6653318
  24.4481969  48.4954834  29.1610241  23.9237809  49.6075630  30.0437760
  55.8008480  40.6932640   1.6069901  54.9447536  40.5835485   1.1931072
  55.6005526  40.9190941   2.5153482  14.3065286  57.8099632  32.8174877
  14.5021570  57.6171207  31.9005513  15.0632513  58.3097029  33.1238627
  38.2261491  19.4757438  63.5112238  38.1218028  20.4252386  63.4495306
  38.5201693  19.3249714  64.4095850   4.6479639  60.4209280  64.0711975
   4.6007609  61.1516666  64.6876574   3.9563709  60.5999660  63.4341097
  30.5840540  23.4851789   2.0502834  29.7994161  22.9840207   1.8279926
  31.0831952  23.5230446   1.2344063  67.1621227  64.9017572  54.9178219
  66.9113922  65.6439924  54.3678665  66.5456486  64.9268675  55.6496382
  63.4182167   3.2710329   3.2037055  63.1520081   2.7228439   3.9418474
  63.6117649   4.1226992   3.5954151  21.1142063  59.2297888  28.7026048
  21.3821411  58.3436537  28.4592772  20.2500749  59.3364239  28.3049369
  25.6010962  56.5252066  13.3009684  26.0519004  55.8013582  13.7357688
  24.6743560  56.3785458  13.4903777  17.7210891  63.9568949   6.0489732
  17.1831965  63.4517956   5.4392362  17.0990539  64.5258474   6.5024018
  31.9883657  15.5377066  32.1742320  31.4745069  16.1329913  32.7199602
  32.4971199  16.1143112  31.6042089  32.8478980  66.4467573  23.7885189
  33.2204914  66.0803890  24.5905042  32.6737666  65.6850624  23.2355881
  13.9907753  42.7912092  53.3391142  13.6967051  43.4533024  52.7135086
  13.3465779  42.8269386  54.0461969   6.8433803  60.7366276  41.0876083
   7.0646030  61.4586306  40.4993916   6.7681682  61.1448383  41.9501305
  49.8720837  20.2542949   8.1633759  50.1356888  19.7362745   8.9239013
  48.9414310  20.4289269   8.3034444  36.8813753  10.4299438  14.5926929
  37.6968336  10.4277539  15.0939476  37.1070957  10.8640695  13.7700033
  54.0325499  71.9511080   8.5506082  54.4017506  72.3494911   9.3387806
  53.2726812  71.4603949   8.8637036   8.5328156  18.7311125  36.1021972
   8.8823575  17.8400576  36.1107421   9.2310083  19.2659128  36.4800191
  69.9339008  -0.2320058  18.2868397  69.1174603   0.1721328  18.5806620
  70.6205320   0.3461587  18.6192536  44.5488453  62.4202776  60.0778341
  45.2408695  62.1580696  60.6849432  44.2771435  63.2856512  60.3836727
  59.0410089  40.0794649   1.8708792  58.8211250  40.1101589   2.8019753
  58.2401752  40.3574991   1.4263630  10.7629836   9.9376333  50.5310249
  10.9374654  10.7172084  50.0037193   9.8265153   9.7758108  50.4166937
  48.0055285  72.1845007  13.3153522  48.7087393  71.7004108  13.7482262
  47.9321432  71.7789650  12.4514151   5.3881758  47.0071363   2.0838553
   6.2813383  46.6765070   2.1796396   5.4873300  47.8293419   1.6038743
  57.3103952  41.4431858  11.0329390  58.2228994  41.2651825  11.2607276
  56.9056702  40.5779266  10.9716368  18.4448147  64.1104269  56.9788218
  19.1296935  64.6582556  57.3622990  17.9630280  64.7001839  56.3989115
   4.3487445  33.0476809  25.5218101   3.8811055  32.2264767  25.6740141
   4.8135048  33.2141900  26.3418746  42.2035742  66.7363262  21.9187236
  42.1576881  66.3835716  21.0300779  42.3676014  65.9722996  22.4715281
   7.9858017  55.8243799   6.4203632   8.8677162  55.7001925   6.0695958
   7.6647115  54.9370289   6.5808123  20.5179930  40.8093166  14.2290306
  20.0816464  41.5831327  13.8725948  21.3219762  41.1478758  14.6230114
  11.1015332  57.9614973   4.6719837  10.2405953  57.9547882   4.2536861
  11.6810441  57.5451231   4.0339914  56.1830711   1.6627574  13.5106564
  56.9494867   1.4544745  14.0449345  55.7628250   2.3909256  13.9682579
  22.0849252  65.0419712  15.4382801  21.7509937  65.9388018  15.4177547
  21.4891171  64.5515299  14.8719656  36.6721010  70.8981037  17.7834654
  37.0113945  70.0673151  18.1164932  36.7151785  70.8099699  16.8313050
   4.2001012  19.1229415  51.0165787   4.5540476  18.9176250  51.8819094
   4.6958128  18.5656404  50.4166460  74.6427679  32.5827479  59.4783258
  74.3194485  33.3255053  59.9882364  74.4456959  31.8174839  60.0184774
  39.6112919  53.8120413  18.6418593  38.6552000  53.8434792  18.6081684
  39.8165941  53.7637997  19.5755386  27.9724908  59.6170616  17.5242448
  28.0489969  58.7740612  17.0773327  28.2943559  59.4487333  18.4098506
  44.4727945  65.9111595   9.7489941  44.2645788  64.9930286   9.9219370
  45.3679085  65.8940697   9.4103044  46.2419367  57.5347853   9.3037087
  46.3649035  57.5772619  10.2520263  46.4169788  56.6206551   9.0802026
  32.3992229  25.7301450  15.3571355  32.3618889  25.6493974  16.3101923
  32.6268244  24.8522019  15.0511146  74.5698357   6.8035299  29.4262719
  75.4245090   7.1223980  29.7162580  73.9430714   7.2392446  30.0038123
   9.0146428   8.9859176   6.9223309   9.0392411   8.3439380   6.2127614
   8.0855054   9.1899872   7.0285887  41.5382910  67.9802322  17.1576762
  40.7036304  67.6065493  17.4404025  41.2963152  68.6514807  16.5196264
  12.1283281  42.5578165  22.8179669  12.5834763  42.6778316  21.9845009
  12.2775197  41.6392994  23.0422449  33.1349111  48.1153202   5.7453734
  32.9684114  48.3243036   6.6645241  32.5524163  47.3792934   5.5577773
  66.6099787  51.1249256  13.3989704  66.4143419  51.8145275  12.7646172
  67.1536112  51.5543175  14.0595126  23.2743859  71.1097240  11.7304444
  23.2926846  72.0175552  11.4275575  22.6792550  71.1192894  12.4800837
  58.7108135  14.1093016  23.8440490  58.3916616  13.4773362  23.1998491
  58.5917091  14.9608910  23.4235239  23.9991498  63.2635403  37.4008679
  24.8746634  62.8785467  37.3622966  23.8386369  63.5829735  36.5129328
  69.9311781  13.4385741  64.4909668  69.3622923  13.8556004  63.8439035
  70.1946402  12.6140845  64.0822649  28.5351658  59.9033165  60.8633947
  29.4022918  60.2440500  60.6438017  27.9662657  60.2286053  60.1657057
  44.8941660  52.5809288  14.1637754  44.7428751  51.6397429  14.2504311
  44.5895481  52.9498196  14.9928474  46.2956619  36.6820097   1.0563304
  47.1276569  36.6343904   0.5854291  45.7525778  36.0053444   0.6520810
  25.7505178   8.5731351  23.7168932  25.1381540   8.0978572  24.2784548
  25.3941250   8.4718776  22.8343034  58.1034279  48.2398081   5.3453493
  57.7722740  49.0261889   4.9115631  57.8106499  48.3254576   6.2526393
  17.5140572  55.9461784   8.0411726  17.7824485  56.0278988   7.1260118
  16.6394520  56.3340902   8.0698276  40.0697279  19.2685676  46.0040379
  40.4483986  18.3894885  45.9963799  39.5083356  19.2807841  46.7792273
  42.7120066  71.0095215  54.3944454  41.9090509  71.4300537  54.0867901
  42.9549980  70.4113388  53.6877871  51.6159105  49.4100475   0.6147594
  51.1993122  49.6060944  -0.2244321  51.6192150  48.4540701   0.6629804
  71.1462307   4.4093698  13.1648409  71.4744139   4.0193957  13.9750540
  71.3132524   5.3465170  13.2652926  45.0167561  57.6701403  26.5420866
  45.3139830  56.8129683  26.2368870  45.8036661  58.0843782  26.8962193
  73.6877966  70.0299406  55.4014349  74.3462563  69.9292612  54.7140265
  74.1348982  70.5200768  56.0914326  46.9850063  14.6107936  10.6903744
  47.5505638  15.2274466  10.2254939  46.2003660  15.1171291  10.9006083
  71.6347980  31.9360328  13.0248177  72.4909782  32.2852325  13.2722926
  71.2346935  31.6730833  13.8536763   2.1544773  20.2440699  62.9928463
   3.0109269  19.8480709  63.1538193   2.2078235  21.1061152  63.4054783
  17.2502375   7.8322273  37.1996665  17.2133195   7.2177535  37.9326677
  16.5825450   8.4874159  37.4025106  73.4633017  34.5153832  61.0830832
  72.9432487  34.4014406  61.8785620  74.1372204  35.1501083  61.3263750
  36.7064619  46.6164732   8.5163665  36.6952014  45.6628609   8.4343487
  37.1929359  46.7816782   9.3240064  18.0799747  61.6318512  48.1803417
  18.7557936  61.5558243  47.5067568  17.4120772  60.9965944  47.9222870
  14.2347205  21.6797996  13.2213819  14.1796517  22.5119376  12.7515435
  15.0949538  21.6980195  13.6407828  36.4823873  73.2530037  11.3322330
  36.3103015  72.3573700  11.6228521  35.6363399  73.5684513  11.0145438
  72.4899912  60.5993938  51.9181585  72.2696686  60.3508186  51.0204411
  71.7314911  60.3276443  52.4349403  65.5674601  15.0307190   5.6230778
  66.0480642  15.3071141   6.4033693  64.7187328  14.7385228   5.9555215
   7.4088794  64.4751883  20.5447173   7.1761513  64.1259861  21.4050221
   8.1900501  65.0047827  20.7045150  42.1563768  73.5495901  31.8148088
  42.8007412  73.6826849  31.1196017  42.0103979  74.4236708  32.1766162
   8.2600719  24.2087229  62.5776687   8.4477622  24.2829474  63.5133477
   9.0105183  23.7344368  62.2197374  16.6566777  57.3970604   0.3725068
  17.3108876  56.9818401   0.9344961  17.0183778  58.2628298   0.1831748
  72.6727104  67.0969296  57.2333193  72.0220375  67.1801662  57.9304075
  73.3116674  67.7851200  57.4186707  52.9553366  72.3641586  15.4908657
  53.5526419  72.8553152  16.0549784  52.3470259  71.9411373  16.0968733
  44.4841957  34.6055460  56.2041616  43.7453413  35.1345515  56.5049648
  44.0984821  33.9851379  55.5856562  69.1295815   1.9084883  22.2759581
  68.1731081   1.9267607  22.3084116  69.3351889   1.1930738  21.6741776
  22.8246784  49.6153545   0.1754835  22.1867061  50.3219652   0.2750772
  23.0482197  49.3663311   1.0722825  18.1999195  40.7890749  57.0194244
  17.8259218  40.6757879  57.8932238  17.9870510  39.9764347  56.5605831
  26.5925956  66.8527412  36.2943339  27.1113110  67.5911713  35.9751368
  25.7095122  67.2072935  36.3977313  17.8034830   1.1702631  54.2597008
  17.3067689   0.9834342  53.4630823  17.1412802   1.4342000  54.8984957
  19.6758425   5.4046327  33.0205488  20.4242754   5.9017229  32.6904249
  19.4336677   5.8479923  33.8335752  28.3303928  46.9827414  26.5549636
  29.0199161  47.5460148  26.2035203  28.8006377  46.2713861  26.9897914
  12.3095262  63.8615656  19.3332410  13.0865777  64.1863489  19.7881460
  11.5930796  64.0030718  19.9520409  24.5207357  60.0641108  39.4502425
  24.2830920  59.4211721  40.1183653  23.7153125  60.1997042  38.9511013
  37.3039198  46.1964130  30.3388906  37.3220110  45.2394342  30.3289413
  36.4618659  46.4159155  30.7376289  66.2680292  69.8926640  42.9036903
  65.7999659  70.7255936  42.8455782  67.1922922  70.1320314  42.8353357
  14.0560913  30.3364468  16.8661237  13.9411449  29.6131516  16.2497938
  13.3273458  30.2460337  17.4801171  58.6887693  67.2878790  10.9940386
  58.0997610  66.6264200  11.3570428  59.4656229  67.2488642  11.5518975
   7.2238654  38.1788278  59.2121077   7.7697945  38.9232564  58.9590883
   6.5460479  38.1386280  58.5374403  43.3323622  69.9891996  11.7984438
  42.9157400  70.5392551  11.1350477  43.3399963  70.5303621  12.5879455
  25.2409410  58.2669067  61.5221691  24.4001627  58.3355141  61.9745111
  25.8942509  58.3605194  62.2154617  26.9731259  60.2529049  63.1739426
  27.4176598  60.2113962  62.3272419  26.6428828  61.1497402  63.2273626
  34.3916202  23.2676530  18.7782943  34.4581580  24.2130709  18.6441791
  35.2831149  22.9928184  18.9926267  29.8001552  58.6079597  20.1508141
  29.7023296  59.0060186  21.0158038  29.0660191  57.9974079  20.0837135
  48.8557959  15.0471270  45.3042507  48.1325054  15.6604493  45.4343414
  48.5863304  14.2564225  45.7715940  19.1089547  45.9545231  29.4347763
  18.3630848  45.3548574  29.4523787  18.7978327  46.7371655  29.8896456
  51.2823772  50.4755688  10.5526161  50.7385492  49.9863338   9.9352574
  50.6635761  51.0250759  11.0336077  23.0098534  37.6103926  22.8159356
  23.8718557  37.7771688  22.4346590  22.4089575  37.6394391  22.0714116
  78.7580442  31.0756183  41.8981123  78.1999874  31.7512918  41.5130520
  78.2959414  30.8072233  42.6922512  29.8234701  63.1130791  32.4535394
  29.0095305  63.2977581  31.9848919  29.9952626  62.1876144  32.2796679
  31.3371086  40.3701782   8.4062880  30.6076312  39.9466944   8.8587904
  31.8133569  40.8299494   9.0976834  46.6932306  69.2612063  64.3007071
  47.4483499  69.1875302  63.7170980  46.3972649  68.3593618  64.4244471
  17.1600449  32.5826502  63.3812094  17.3338413  31.7428708  62.9560089
  16.7965174  32.3480916  64.2350578  45.6346989   9.2272532  54.6021748
  45.4974031  10.1626134  54.4522333  44.8337412   8.9342433  55.0367403
  19.2033851  34.4035292  62.8541183  18.6740196  33.6061573  62.8684330
  18.6890066  35.0414228  63.3488274  31.4603281  18.7717795  40.4854679
  32.0187759  18.0718148  40.1472139  31.5456915  19.4772947  39.8442245
  67.2767448  66.6277075  48.0787992  66.4954233  67.0364809  47.7064133
  67.4554539  65.8840799  47.5032043  63.0322218  11.6894197  48.4381771
  63.8779306  11.6066039  47.9975462  63.0665350  12.5463617  48.8632679
  72.0548630  44.5366001  28.7629199  72.1936560  44.1572809  29.6307254
  72.6988745  45.2423143  28.7042022   5.2618009  13.6750865  62.1335602
   4.8061728  12.9893553  62.6218319   4.8930371  14.4926167  62.4680567
  62.4605465  22.4949384  37.9441094  61.6833448  22.0938611  37.5550985
  62.7416134  21.8719244  38.6142468  42.3513365  54.4512701  19.8568678
  41.7690086  54.9730253  20.4090405  43.2281542  54.6319199  20.1956773
  59.6175957  26.9451284  40.2544785  58.9399624  26.6208410  40.8476734
  59.1971731  26.9577837  39.3946433  22.8284812  55.8504963   7.3246348
  23.3282804  55.2411890   7.8679395  21.9263601  55.5350971   7.3788321
  20.2046466  69.4605923  38.4818363  20.3883100  69.3860960  39.4182920
  20.7226992  70.2127361  38.1952477  75.3031349  22.6627779  52.2411060
  75.0961733  23.5971093  52.2206211  74.4501591  22.2289109  52.2616816
   4.2384166  34.9802637   8.8157147   5.0109577  35.4269791   8.4695101
   4.4805360  34.0542245   8.8233149  65.6753778  39.0980458  36.8821669
  64.9366999  38.8877153  37.4534392  66.4066124  39.2476726  37.4814510
  21.8003154  46.2847567  60.1223373  21.4434814  45.4702950  59.7680044
  21.0318255  46.8308067  60.2881289  29.1561532  59.4915199  28.7870622
  28.4461737  59.0127707  29.2148018  29.5611739  58.8491392  28.2043648
  69.0602255  35.7664943  11.1971021  69.1562843  34.8581624  11.4833522
  68.9096069  35.7056880  10.2537847   8.6204636  19.1799438  15.4063118
   8.2528383  19.9438500  15.8507562   9.5511258  19.1978979  15.6294203
  56.0723782   8.3177602  13.3875024  56.0587358   8.3223200  12.4304104
  55.5313635   9.0665120  13.6383176  48.4161234  61.0328627   6.6466314
  48.9550209  60.2766752   6.4142525  48.7739611  61.3344574   7.4816293
   9.2807645  46.0605717  14.9411213   8.3246714  46.0515976  14.9862576
   9.4795799  45.8440924  14.0301657  40.1128006  57.1796751   7.9398382
  39.3301201  56.8578720   7.4925280  40.8369493  56.9268084   7.3672110
  71.3083363  65.8253574  36.3767743  71.0138226  66.1541271  35.5274200
  70.5094147  65.5168581  36.8043137  46.2796879  73.0958366  15.7312250
  46.7383146  72.8100348  14.9411547  46.2098885  74.0458488  15.6372249
  25.2883029  48.1190205   6.2553787  25.6226993  48.9705610   6.5369666
  26.0474253  47.5375319   6.2981784  16.5835965  63.5106325   3.1128204
  16.4424849  62.6606417   2.6958853  17.4069762  63.8262987   2.7404854
  32.5283885   0.7691505   9.9421167  32.9746532   0.8240420  10.7871413
  31.5968728   0.7778239  10.1621890  69.1430330  35.8178329  52.4508238
  68.7400818  34.9779177  52.6708317  68.4046507  36.3910842  52.2448826
  51.4409971  29.8618269  13.1977606  51.9686985  29.1496110  13.5590255
  51.3729620  30.4955530  13.9118993  34.0541649  30.1371050  11.4248872
  33.5436583  30.5058908  12.1457291  34.8048568  29.7228456  11.8504250
  49.6922207  59.4030905  31.7434907  50.1544762  60.1893187  31.4529753
  49.1594076  59.1466284  30.9907842  22.5009775  46.1621237  16.0330129
  23.1797361  46.3411379  15.3822649  21.7841721  46.7521286  15.7999611
  20.9071565  72.0130920  18.3428621  20.0313735  72.2827339  18.0662262
  20.7937407  71.7230988  19.2479992   4.8887199  24.2795968  38.9714003
   5.2200884  24.9060202  38.3279562   3.9550972  24.4789457  39.0409708
  32.3367286  73.5727549  25.8443379  32.3866415  72.6889658  25.4801154
  31.9003701  73.4595299  26.6887331  68.2130527  45.8006144   8.8540423
  67.5288105  46.4416790   9.0465987  68.2175779  45.2193832   9.6145570
  43.0604792  19.6555150  17.5949061  42.4931288  20.0058484  18.2816458
  43.6241579  19.0277350  18.0470026  43.5509109  41.6770697   0.8563382
  42.6281929  41.4391232   0.9469441  44.0161371  40.8406019   0.8671229
  27.1472692  51.2822723  25.3775167  26.5430069  51.7459679  24.7977901
  26.5804625  50.8339596  26.0051942  60.8389807  11.2051272  17.3813426
  61.6229916  11.7377794  17.5149155  60.1208353  11.7517972  17.7001715
  67.3047686  16.4832664   1.8102276  66.4651442  16.6764784   2.2272718
  67.2608566  16.9303107   0.9649739  21.7263514  73.9716734   0.3709016
  21.5404565  74.0157147   1.3088429  21.0035283  74.4467047  -0.0390971
  59.0735960  65.8330774   8.6382604  59.0406942  66.4080811   9.4027984
  58.3896255  66.1669970   8.0578190  64.8354244  72.4762344  25.0641751
  64.7491693  72.1458578  24.1699481  64.5395422  71.7525816  25.6164527
  71.9063997  14.6992791  61.8011093  71.3847733  14.0957844  61.2720251
  72.4230194  15.1917863  61.1633205  56.6335440  69.3803549  51.9268131
  57.2197771  68.7132359  52.2839022  56.7615032  69.3294287  50.9795713
  19.3958771  33.9270639  17.6362395  19.2145634  33.0409122  17.3230445
  20.3368211  34.0406251  17.5022137  10.7964027  68.9495659  57.1695471
  10.7360959  68.0125046  56.9837952  11.4160216  69.0102243  57.8966141
  15.1192462  56.9263315  25.7416177  14.8241901  56.0200071  25.8296680
  16.0333908  56.9092131  26.0249519  20.9701729  55.1398468  14.7750556
  20.2662468  54.7491264  14.2573142  20.5917525  55.2530146  15.6469643
  18.0219972  72.3583412  18.1897807  17.7906811  71.7197990  17.5152540
  17.6915026  71.9775963  19.0034378  23.4498501  64.5622301  10.1142180
  23.9506292  64.6150398  10.9282601  22.5358868  64.6301031  10.3904307
  34.9690461   9.1469145  21.6894078  34.4479752   9.4059926  20.9294105
  34.3239570   8.8579541  22.3348498  54.4416618  71.2067795   1.0444791
  53.5399294  70.8899879   1.0970052  54.6611261  71.4546919   1.9425911
  27.3409081  70.5046892  20.6108856  28.0054402  70.3368187  19.9427176
  26.9891834  71.3664865  20.3876758  53.7215614  11.4891994   5.9152198
  53.0645990  10.9406948   5.4865330  54.1195536  10.9174359   6.5716654
  58.2495737  12.1392035  55.7542753  57.9010868  13.0052543  55.5427408
  59.1801214  12.1959150  55.5372524  61.3784838  35.5890727  26.9943166
  60.7428217  35.1967072  27.5928259  61.3272858  36.5281439  27.1725178
  12.1461723   0.5050918   5.5021995  12.7767846   0.7735559   4.8339999
  12.3010347   1.1044714   6.2322646  25.1752162  34.9590230   1.5317076
  24.6925116  34.4360185   2.1717818  24.5085430  35.2528811   0.9108786
  44.6437263  51.3233566   5.7400042  44.7759438  50.8752441   6.5754372
  45.4938316  51.2713432   5.3031433  59.5051241  21.6295934  36.0220790
  58.6528587  21.7753983  36.4327097  59.7391510  20.7344317  36.2673306
  36.0772562  43.5179234   3.1924751  35.2114058  43.7368393   2.8480777
  36.6776824  43.7139893   2.4732541  24.8251653   9.6826428  61.3258028
  23.9355707   9.3340886  61.2678242  25.3022647   9.2394155  60.6242657
  24.5428872  49.1295242  15.2109623  24.5399165  48.3070660  14.7212815
  23.6738133  49.5012474  15.0600791  25.0095201  53.1487465  56.6842651
  25.2035141  52.2189808  56.5653419  24.0535283  53.1965351  56.6789770
  28.3019710  50.4079437   1.3284414  27.4078417  50.1043272   1.4852318
  28.7221074  50.3694725   2.1876483  36.2574410  18.0510354  34.3797684
  36.0300350  17.2156000  33.9716434  36.8218875  17.8125727  35.1151371
  31.0776067   0.6209511  40.6297207  30.2195239   0.5679444  41.0505724
  31.2634659  -0.2757056  40.3509808  17.4090970  20.1322293  32.3368311
  18.0862653  19.4993973  32.0976686  17.8859627  20.8425474  32.7661109
  40.3443718  60.4042721  61.8367672  40.6993246  61.1890936  62.2542620
  41.0143137  60.1458693  61.2038088  12.4574828  69.1124582   3.8228190
  12.0205081  68.6296749   3.1212431  11.7536271  69.3435574   4.4289634
   5.7996726  32.7731347  31.1747169   5.9725690  32.0770073  30.5408812
   6.6435689  33.2110357  31.2856793  10.6953907  13.2198000  38.9141226
  10.0933862  13.8789451  38.5686517  10.4692280  13.1515992  39.8417163
  57.6550341  68.7258863  49.2134333  57.2146606  68.7458944  48.3637857
  58.3418322  68.0669451  49.1117811  33.0526876  40.9065151  36.3640070
  33.3798146  40.1286554  36.8158364  33.6954474  41.0707569  35.6739950
  25.0862861  12.2575760   8.4150809  24.7673941  11.3553989   8.4399241
  25.9632254  12.1913171   8.0371684  26.9223189  40.1916313  15.0313532
  26.4841604  39.8280478  14.2619002  26.6435409  39.6290660  15.7538748
   2.8538042  31.0930562  41.1810923   3.1514093  30.6107831  41.9525051
   1.9003382  31.1117935  41.2634516  45.7401466  66.1192083  62.7853012
  46.0610104  66.0898733  63.6866426  46.5154791  66.3210249  62.2615099
  76.0728168  19.3045235  60.4332161  76.6863155  19.7240865  61.0363865
  76.2645531  19.7001123  59.5829344  27.6656246  45.7791138  16.1442041
  27.4860215  46.1397886  17.0124722  28.1814456  46.4558220  15.7057619
  72.1395731  30.3526235  47.7883768  72.2678328  30.8128166  46.9589186
  72.4842882  30.9517860  48.4504986  32.7745652  52.3072815   7.8889477
  33.5559130  52.8548765   7.9655212  32.0442915  52.9127264   8.0168700
  11.1107731  22.0212412  50.2300024  11.1229408  22.9753923  50.1546574
  10.1997912  21.7794013  50.0630951  73.2788086  62.2058058  54.5205784
  73.0562830  62.1469545  55.4496956  72.6277065  61.6572189  54.0831423
  58.2562304  69.7050858  25.1496124  58.2209921  68.7592316  25.0069427
  58.4074497  70.0731516  24.2790437  68.3707905  53.1868029  11.5150166
  68.8215637  53.9596319  11.8552673  67.9687977  53.4840012  10.6987417
  18.7475967   2.0225452  13.7849605  18.5013962   2.0283060  14.7099376
  18.3640552   1.2162223  13.4400392  11.5020609  16.1457562  15.9160972
  12.1559894  15.6210661  15.4542422  10.8593440  16.3731122  15.2441919
  36.0182500  46.9709015  15.2329326  35.9687829  47.4260378  16.0735488
  35.8252335  47.6465988  14.5829999  41.4810896   5.0288564  26.6152072
  41.0095978   4.3652421  27.1187401  41.7440033   4.5784885  25.8125401
  71.9162846  74.0947580  60.0999355  72.8408527  74.1164446  59.8530865
  71.4860201  73.6381340  59.3770266  38.0056208   0.0244448  24.5209718
  38.8014250   0.5212042  24.3308234  37.5205462   0.0241539  23.6957836
  75.2475166  49.5928764  55.8364964  75.7686090  48.8495541  55.5329132
  75.3363562  50.2467632  55.1431227  15.6136155  27.9327846  23.9993382
  14.6682918  27.9022145  24.1465163  15.9932125  27.5906706  24.8087168
  18.2955945  71.0659933   6.5296334  19.1321754  70.6179190   6.6545016
  17.9744554  71.2254000   7.4171537   7.7122915  22.6605940  38.0740976
   6.8772268  22.7660370  38.5299277   7.9596454  23.5493159  37.8187132
  30.6849551  66.0612488  50.5387402  29.9609160  65.6020641  50.1131248
  31.4543414  65.8295012  50.0185776  28.0049348  34.7425604  62.8635550
  28.9005256  34.9597263  62.6047373  28.0648303  34.5566058  63.8006020
  14.5941460  65.6485224  33.5486865  15.2190804  66.0862732  34.1266656
  14.1449261  65.0199652  34.1137981  55.6705332   5.9298062   6.3251197
  55.0673676   6.5350938   5.8937830  56.4651060   5.9632134   5.7924151
  29.4540477  64.9859619  24.7580719  28.5655165  64.6718264  24.9255848
  30.0025344  64.4873190  25.3636694  66.2829876  16.0944188  30.4693270
  65.6954193  16.1781454  29.7183394  66.0258150  16.8063569  31.0551929
  72.6839447   0.5034945  25.3217888  72.5491762  -0.1270182  24.6143126
  72.8119040   1.3405488  24.8754716  41.0251904  49.0022182  19.6540022
  40.3392172  48.4255886  19.9904108  41.1127663  49.6841574  20.3199768
   2.4240579  11.4210451  11.1855841   2.0761563  12.1976626  10.7473350
   1.6600797  11.0142899  11.5943861  58.9035511   6.7689425  34.0873790
  58.5913420   7.0223439  34.9560261  58.1928158   7.0162827  33.4958434
  34.8499727  22.3270369   6.5836018  35.1529646  22.7529025   5.7816881
  35.1864862  22.8788161   7.2896689  36.9323468  65.8210897   1.3004892
  36.6819954  66.2439537   2.1219155  36.2791133  66.1205292   0.6681493
  66.7858028  22.6440430  59.3035221  66.4640808  22.0580959  58.6183977
  66.7693567  22.1131992  60.0998688   6.1931157  48.7620926  40.5114079
   6.1545783  49.0840816  39.6108150   5.7093346  47.9363871  40.4914618
  31.2274933  70.8804560  46.1658144  31.7496037  70.1431131  45.8496618
  30.4087639  70.8228350  45.6732750  18.9895961   0.6219646  57.1633291
  19.1740844  -0.2578095  57.4922705  18.6961362   0.4842731  56.2626886
  74.8423576  48.3782482  19.7356570  74.9667501  48.0588388  18.8419354
  74.6534681  47.5914812  20.2470732  78.0791140  24.2111444  26.4138722
  77.2591877  24.4947886  26.0095167  78.6503077  24.9773550  26.3600993
  68.8741016  70.6398582  27.2909069  69.2011023  70.5422020  28.1852031
  68.6709118  71.5717936  27.2106123  46.6675425   2.9273739   6.8745935
  45.9671450   2.4399446   7.3082876  46.9823694   3.5382074   7.5409240
   3.6819777  71.7991018  35.8411169   2.9140988  71.3399506  36.1813664
   3.8653779  72.4751282  36.4934850   5.7393849  46.2160444  10.9889042
   4.9246031  46.4322281  10.5354428   5.7858169  46.8435669  11.7102170
  33.1570101  65.8707905  34.4481850  33.8463020  65.4234600  33.9572668
  32.5284243  65.1810312  34.6611214  44.4062042  15.2511585  57.0874691
  44.9965715  14.8127401  56.4747000  43.6496019  15.4983699  56.5557957
  61.3618374  67.4337912  12.1262741  61.8044996  68.1753111  11.7134368
  62.0117283  66.7311001  12.1162927   2.5121292  41.5172911  44.6620131
   1.5647981  41.6511011  44.6918535   2.6243198  40.5732870  44.7738075
  14.6315181  49.1653252   3.5120380  13.7955618  49.4025135   3.9134747
  15.2895963  49.4309425   4.1543880  33.1099868  73.8642073  32.8154922
  32.7953410  74.3473911  33.5795355  32.9389572  74.4475365  32.0760965
  36.3543415   4.8560938  22.2610259  35.5269456   5.2316672  22.5620127
  36.8957949   5.6143296  22.0416212  36.8778110  27.3754096   5.2431387
  37.6419902  27.6866865   4.7579896  37.1111131  27.4999404   6.1630809
  60.4303455   4.2918029  40.0751114  60.8941984   4.6300083  39.3091559
  61.0858631   4.2945802  40.7726240   7.7884084  21.1654353  52.3749065
   6.8817073  21.0056996  52.6368380   8.1694853  21.6443920  53.1108475
  49.7419739   2.9621109   7.8185934  50.4912567   3.5520825   7.7364814
  49.3933964   2.8925243   6.9298404  13.5637057  13.0252874  26.2052941
  13.4265769  12.2135711  26.6937065  12.7624726  13.5290968  26.3482428
  71.5769148  44.3177080  62.1677780  71.0594988  44.6519518  61.4351177
  70.9267759  44.0141916  62.8013659   3.6803293  33.7104440  43.1632471
   3.6599407  33.3110046  44.0328836   4.0706867  33.0410576  42.6013088
  59.5724392   2.1643464   7.5533623  59.2617321   2.3747399   8.4339470
  58.8266087   2.3546749   6.9843787  43.2128525   3.9200696   1.3679588
  43.5514975   3.0526108   1.5894650  42.5968695   3.7612483   0.6527151
  40.9194469  51.3790655  14.3702793  40.3726864  50.6461859  14.6534228
  40.2989721  52.0225191  14.0279150   3.6254025  30.7671285  51.1844635
   4.3965721  30.2373934  51.3867235   2.9188827  30.1303363  51.0769510
  59.4409418   4.4123614  43.7486744  59.1639423   3.8797763  44.4942284
  60.3348970   4.1227654  43.5664320  74.9653912  70.5959177  39.5698977
  75.8177090  71.0303831  39.5379066  74.9966526  69.9546289  38.8599634
  48.8468695  24.3838811  45.0099325  49.5733118  23.9114738  44.6033096
  48.4631920  24.8934770  44.2962551  41.8903399  10.2933359  10.3635168
  41.4985991  10.2241850  11.2341416  41.3038254   9.7926015   9.7965103
  66.5709305  13.5195565  20.3507137  66.1690903  14.0507829  21.0381413
  66.8935680  14.1567290  19.7134161  50.2679348  65.5152750   6.2429720
  50.1142406  66.2563944   5.6570059  50.5577374  64.8092461   5.6652445
  67.1431494  53.4142017   8.8139534  67.4540472  53.8228750   8.0061412
  66.7433023  54.1309738   9.3064898   1.2326609  60.5077744  17.1229208
   0.8286685  60.0769854  16.3696313   0.9436694  59.9931955  17.8765285
  53.7415075  24.2709446  60.7636690  53.5800505  24.6517062  59.9004316
  54.1492367  24.9773908  61.2645912   0.9789681  41.7938423  54.6635294
   0.4327676  41.9912386  53.9026546   0.8766273  42.5544119  55.2356291
  11.1264122  51.2446737  40.9375715  11.0251355  50.9065723  40.0478172
  11.9051337  51.7997122  40.8956909  23.5340738  24.7590256  52.8088808
  24.2505884  25.0705647  53.3618546  23.5473847  23.8076043  52.9130602
  22.4329972  19.8563302  37.3033595  22.1827269  20.6885791  36.9021630
  22.0512247  19.1903901  36.7315149  67.3252916  30.6340289  48.0040359
  67.6540565  30.1617098  48.7689304  66.7810488  29.9951601  47.5437307
  29.7407484   8.6183006  49.6024418  29.0318179   8.8953501  50.1828623
  30.0883603   9.4343036  49.2425251  38.7650609  74.1350651   1.9658746
  39.1214347  73.2723665   1.7537908  37.8423595  74.0808201   1.7170489
   3.8535738  43.7653923  51.9439316   4.8098671  43.7990570  51.9194174
   3.6499527  43.3495474  52.7816916  52.1640110  63.6836100  35.3564644
  52.5781441  63.0957222  34.7247124  51.2249088  63.5505199  35.2275991
  67.4945545  13.6381841  34.6087122  68.4339476  13.4554231  34.5894098
  67.2936392  13.7619352  35.5363703  62.8725863   7.8592312  26.3867068
  63.3650970   7.3465836  27.0276880  63.5246181   8.4369808  25.9901071
  63.1200933  23.2886457   8.7153721  63.4521580  22.6869583   8.0490851
  63.8928699  23.5313678   9.2254055  12.0836318  48.7477779  64.0199423
  11.3481152  48.2382631  63.6798859  11.7628682  49.6494770  64.0368748
  31.5651035  63.6021614  34.6706319  31.8310976  62.8610134  35.2148533
  31.1346865  63.2021666  33.9150047  64.8653507  39.4104934  18.0120742
  64.0709829  39.8261452  18.3474040  65.5283546  40.1001501  18.0441427
  52.6127243  10.2009833  60.7463074  53.4833145  10.3734946  60.3877783
  52.3999262  10.9880698  61.2477493  27.4398613  71.9999456  33.0279732
  28.0685616  71.2797546  33.0758834  26.9685078  71.8522596  32.2080660
  21.4224529  66.0571766  40.9979343  22.0328045  65.9229422  41.7229748
  21.9610333  66.4224195  40.2959633  72.6711226  28.3025861  17.4222422
  73.1206703  28.4375191  16.5880167  73.2004786  27.6469421  17.8762722
  31.2568641   6.9299507  31.9164276  31.9677353   6.4044374  32.2834826
  31.6883683   7.7160096  31.5815425  52.5680399  62.9834366   0.8411177
  52.3868179  62.7474737   1.7509046  52.6652098  63.9355850   0.8554270
  21.0018039  64.4476128  10.8920979  20.0520396  64.5540190  10.8386254
  21.1285615  63.7446976  11.5293396  35.8812141  68.2105970  19.1932547
  35.2738571  68.9396524  19.3190837  36.0321856  67.8697443  20.0748777
  67.2436714  69.2359257   8.7818193  67.7160072  69.8812389   8.2557940
  66.3298798  69.5183420   8.7435955   8.0119610  25.4749990  36.9931674
   8.0401468  25.4108477  36.0385346   8.7451750  26.0483909  37.2164392
  63.1021547  11.0761797  19.9386108  63.4321547  10.2954626  19.4938517
  63.5267830  11.8060899  19.4878864  40.8923197  59.0709400  12.0374572
  41.0325003  58.3633041  11.4083064  40.0561333  58.8599825  12.4528146
  54.6133852  66.6912222  24.7376013  55.1904964  67.4476433  24.6327186
  53.7468576  67.0151711  24.4917965  33.8243628  64.6572876  11.4779925
  34.0166211  64.5187616  12.4053967  33.6636162  63.7790346  11.1329293
  69.8266077   4.6132532  51.3703060  70.5331707   4.3748933  50.7701492
  69.9420118   5.5523592  51.5151930  33.1531858  36.4077568  60.0679398
  32.3710418  36.9531608  59.9841881  33.6228681  36.5343738  59.2435598
  38.0750775  12.7048898  13.1958592  37.3558259  13.1107402  12.7119231
  38.8652992  13.0953050  12.8225517  11.2388062  58.3077288  60.4986095
  11.9384325  58.3431292  59.8463058  11.6799271  58.0543709  61.3094473
   0.2769760  72.2207737  28.0595660   0.1196722  71.6918182  27.2774577
   1.2113957  72.4256468  28.0262065  11.8679333  51.7728233  15.8445227
  12.6179206  52.2863245  15.5444086  12.2472656  50.9453726  16.1406112
  34.1129303  45.5151272  29.1439700  34.3919635  44.5997143  29.1241693
  34.5510197  45.8825064  29.9116564  41.9405556  62.1386337  27.0976710
  41.2230444  62.4079037  26.5241694  42.6090670  61.8000937  26.5020967
  70.9716558  32.3111224  19.1705894  71.2523079  31.4641976  18.8239098
  70.9514809  32.1867275  20.1194572  48.1377172  67.5174809  27.8328991
  49.0493250  67.7910662  27.9346228  48.1005239  67.1282768  26.9591904
  71.5760088   8.1842220   8.8915122  71.3814402   7.7488977   9.7214925
  72.4565649   8.5407561   9.0087152  61.7353058  12.4384141  31.3400149
  62.0780897  12.6150131  32.2161126  62.2303438  13.0236137  30.7666826
  23.2691349  63.7769233  64.3673870  22.4327530  64.1522466  64.0920101
  23.1276049  62.8306399  64.3400519  15.8121896  18.1671524  53.2227230
  16.7551804  18.3212924  53.1657982  15.4251742  18.8410962  52.6639318
  53.9823341  49.2211533   3.7863186  54.6400547  48.5917473   3.4905484
  54.2102098  50.0348425   3.3366391  61.0144043   4.9356127   5.8509541
  61.0539341   5.0119966   6.8042821  61.7636633   5.4429287   5.5387533
  31.7907977  15.0251865   9.9202538  32.1029043  15.8348453  10.3243279
  31.7162800  14.4076562  10.6478083  10.9163332  27.7620292  46.7281771
  10.6449294  28.2397819  45.9443903  10.1029789  27.6091170  47.2091150
  56.4681435  59.7490072  20.8352613  56.2761927  60.6149340  20.4753113
  57.4236202  59.6923447  20.8263493  24.2642093  59.1392803  24.7091651
  24.0180087  59.3362761  25.6129408  24.3006253  58.1834269  24.6737647
  77.4438000   9.8521805  16.0772932  77.0725489   8.9797777  15.9457064
  76.7474079  10.3460348  16.5101612   9.8098731  49.1959047  54.5983887
   8.8597536  49.2326450  54.7086334   9.9634856  48.3854437  54.1128111
  50.7646847  28.0033350  62.8035450  50.7141781  28.7473941  62.2034979
  50.7842970  28.3991981  63.6748314  54.5646477   3.7977788   7.5372994
  54.9351835   4.5953473   7.1593809  53.6802530   4.0479094   7.8047121
   9.2446971   0.4497938  16.0179293   8.7234402   0.2900815  16.8047047
   9.9275297   1.0573521  16.3022614  12.7037501   2.0431538  37.9048419
  12.4463356   2.1959482  38.8140297  11.9417322   2.3120311  37.3917484
  14.3335259  48.4504318  34.1498256  14.9378252  47.7132654  34.0624237
  13.7931609  48.4120321  33.3606720  66.6214323  54.4045782  15.4745066
  66.5696192  54.5846319  16.4131904  66.5071344  55.2597332  15.0599277
  27.6226521  50.4079676  19.8356056  28.2941222  49.8913908  19.3900621
  27.9572225  50.5191278  20.7255149  27.8298521  20.4646540   7.0763379
  27.9724312  21.2121820   6.4957309  27.3759055  20.8331800   7.8342009
  55.0764084  72.6122665  11.0878861  55.6308937  73.3837938  11.2041807
  54.9633646  72.2631025  11.9719315  26.7592382  64.0486288  24.6329927
  26.3529158  64.9137592  24.5812464  26.8546700  63.7738991  23.7210464
  78.7294251  15.1663911  53.8481569  78.3738163  15.3171861  54.7239590
  78.8998025  16.0434008  53.5045624  30.1599169   8.4215319  34.3803239
  30.3533149   7.9017407  33.6001658  31.0177207   8.6118025  34.7600627
  59.0738106  58.2141066   5.0670779  59.5416355  57.8844309   4.2998192
  58.2123423  58.4642649   4.7331268  24.1670322  13.5173512  62.4240828
  24.3482804  13.1444812  61.5613222  23.2154655  13.6186624  62.4461222
   5.8139211  52.2128725  26.1144471   5.6606555  52.0261765  25.1882243
   5.1426393  51.7090225  26.5746093  41.0059357  63.6468458  46.2002230
  41.8279457  63.4970713  45.7332134  40.6074667  62.7791739  46.2680435
   5.6612843   8.2216865  35.4314733   6.0371649   9.0545809  35.7164860
   4.9235582   8.0766386  36.0238862  12.1606183  17.0244551  55.2175808
  11.7461252  17.7000713  54.6809483  11.8065524  17.1653414  56.0956573
  34.3270087  66.5732431  36.7812157  34.9395823  65.8488798  36.6536117
  33.6889720  66.4746618  36.0745168   9.0581805  58.1282997  57.7342844
   8.8345087  57.4884176  58.4101248   8.6446828  58.9404011  58.0271006
  66.7337084  58.5260582  13.4531581  67.5213718  58.9477539  13.7966478
  66.0142136  59.0807343  13.7546444  67.0154095  56.2178898  10.1814044
  67.3848248  57.0713663  10.4079831  66.0680437  56.3516569  10.2102876
  27.7060604  41.2394428  33.1319022  28.4603596  41.0414743  33.6869478
  27.6938295  40.5348110  32.4841547  40.6139374  22.5389934  52.0520592
  39.7903085  22.6574874  52.5251627  41.0260630  21.7849851  52.4737930
  45.1836205  68.8598967  27.4940372  44.7142839  68.6236906  26.6939354
  45.1694584  68.0630159  28.0241394  29.5082021  69.9838734  33.6686778
  30.4038095  70.1629019  33.3822036  29.5043063  69.0485859  33.8722968
  61.1265755  18.8834465  14.6092081  60.6778288  18.1701207  15.0631094
  60.5248594  19.1383111  13.9097691  48.0534983  58.8109684  17.9331601
  48.7668276  58.3142662  18.3340037  47.2734737  58.5454178  18.4202719
  28.6540532  65.8345652  18.0623150  28.7747455  66.4174652  17.3127210
  29.3890429  66.0345316  18.6420000   6.0316855  45.4942656  14.4603682
   5.4910362  45.9471226  15.1075542   5.9277964  46.0083294  13.6596310
   3.0674773   1.4877833   2.7503851   2.2612700   1.7796443   3.1759179
   2.9997176   1.8201342   1.8552968   3.8802987  54.9568892  38.6213779
   4.5538425  54.6196318  38.0307603   4.1459006  54.6493673  39.4880486
  70.0431108   4.4618309  22.4792743  69.8787546   3.5724771  22.1657944
  69.8645067   4.4214594  23.4187961  12.5470817  10.7834268  57.0891953
  12.0362306  11.4423633  57.5593710  13.4399354  11.1284542  57.0881367
  72.3398304  11.6156721  29.9972105  73.2673073  11.6544938  30.2306986
  72.0684052  10.7306314  30.2406502  38.3896065   5.3604007  18.9034343
  38.6568451   4.4449076  18.8216519  38.3602881   5.6827366  18.0026174
  38.5781884  21.9811773   6.6740698  38.0714989  21.1690879   6.6767699
  37.9622865  22.6487732   6.9760847  18.9769065  62.0927286  22.5098491
  18.4644186  62.3157310  23.2869315  19.8809695  62.2906256  22.7542639
  42.7267408   4.9430254  44.6639967  43.3056927   5.4520977  45.2313519
  41.8637657   5.3390217  44.7852039   3.4036195  30.7499480  38.5200930
   3.3524460  30.7858634  39.4752502   3.2607612  29.8277473  38.3070922
  58.9938784  71.9883919  57.0548677  58.3163404  72.1474981  57.7120304
  58.5779858  72.2136116  56.2226820  23.2787371   2.1371979  31.6398811
  22.8771853   1.3342327  31.3078666  23.3979058   1.9761011  32.5758719
  31.0772038  37.8094172  59.0465307  30.3076410  38.2396030  58.6737776
  31.8193817  38.3079171  58.7046289  44.8411179   5.4014677  33.1040788
  44.2868090   4.6227863  33.1553602  45.5292416   5.2486920  33.7516737
  78.4513092   6.5833056  27.0324183  78.8228512   7.4546814  26.8949723
  77.7675056   6.5068078  26.3669944  17.6005292  11.4017141  18.7953782
  16.8744016  11.2338126  19.3960273  17.3950255  10.8802044  18.0194747
  67.8347588   1.1214419  19.5620930  67.4759293   0.2472584  19.4095290
  67.3734522   1.4374684  20.3389812   1.8524565  45.4207087  30.3938961
   1.4167783  45.7605696  29.6122861   1.8651259  44.4719601  30.2676177
  65.2731609  25.7906532  33.7291312  64.4667578  25.3353238  33.9712524
  65.0357103  26.3040876  32.9569697  68.7557030   6.6007358  41.8943977
  68.7670994   6.8243212  40.9637451  68.5760689   7.4298435  42.3377323
  37.0909834  70.6817579  32.3064899  36.3975859  71.2480497  32.6452279
  36.6277194  70.0045109  31.8135834  16.3358796  48.2899189   9.0015244
  15.5344737  48.7734556   8.8010877  16.9019628  48.4401703   8.2444203
  35.4255128   6.0385156  52.3422337  35.7223344   6.8420458  51.9150734
  36.0631990   5.3761411  52.0760632  65.7686615   6.6623193  17.8777301
  65.3013611   5.9622324  17.4219441  66.6943026   6.4508295  17.7565503
  57.8038931  53.8568878  13.2853138  57.9571533  53.3777857  12.4709392
  58.4711123  53.5263920  13.8868308  77.5790930   1.8576428   2.1812579
  76.6898346   1.9012268   1.8297559  78.0957222   2.4105063   1.5950273
  50.1471853  61.5518427  26.5608501  50.8720255  62.1731806  26.4917707
  50.5710793  60.6996870  26.6627407  25.5232644  63.7543869   5.8078182
  25.2431750  63.2434464   6.5672392  26.4254212  64.0046787   6.0070592
   0.7055461   9.8317790  12.7361345  -0.0712541  10.2172267  13.1414032
   1.3192797   9.7118908  13.4608340  76.9568491  -0.1664117  50.3963995
  76.0084677  -0.2632545  50.4825878  77.1055603   0.7784031  50.4343700
  24.2061520  14.4807315   6.0779011  25.0700474  14.8924530   6.0980237
  24.0809774  14.1431963   6.9648248  77.5288200  31.5355134  20.8035731
  76.8246460  31.4630151  20.1592779  77.0824146  31.5117526  21.6499710
  26.6673946  18.3041608  16.7490160  26.2182975  17.7755344  17.4086356
  26.4494705  19.2078364  16.9772947  25.0058222  32.5796843  13.3967125
  25.9398270  32.7399659  13.5315275  24.8887396  31.6535521  13.6083794
  13.3659482  13.4898365  38.3453894  12.4698544  13.4595549  38.0102324
  13.2643569  13.5804880  39.2928576  17.9366171  28.4080434   6.8570071
  17.4799168  27.5820899   7.0165592  18.7898791  28.1469011   6.5106219
  55.0157642  50.1401138  58.0105591  55.2978563  50.8328199  57.4132156
  54.4744015  50.5893517  58.6596632  33.1080747  12.7266920  32.0669270
  33.9613986  12.9120100  31.6748500  32.8594613  13.5447717  32.4972391
  53.0635786  42.8805685  60.1631641  52.3573780  43.0213547  59.5325327
  52.9085398  43.5331917  60.8460093  12.3024225  23.9265561   6.6734612
  11.7488515  23.9963913   7.4512231  12.5505209  24.8293209   6.4742172
   4.7521999  72.5582314  58.6074972   3.8445157  72.2578907  58.5612917
   5.1067150  72.1302605  59.3868494  59.6372652  49.1257000  59.6424627
  58.8512707  48.6142969  59.8345900  59.4884586  49.9657679  60.0764847
  60.2822170  65.5568110  63.7835669  60.0551305  64.8216354  64.3529343
  59.5282039  66.1439263  63.8382714  62.7885818  54.5901012  17.0402217
  62.9474258  54.1633511  16.1982691  62.7136278  55.5202198  16.8269384
   2.7393636  52.3469019  29.1684437   2.3180614  51.4957190  29.2877269
   2.6425862  52.5332737  28.2345653  48.8941860  67.0418739  25.1929998
  49.6875954  67.5198650  25.4343724  48.4332418  67.6296234  24.5944118
  54.8422194   2.4605882  42.2857285  54.5815516   2.0987172  41.4387751
  54.7281313   1.7362612  42.9010057  36.7967272  29.3462968  24.2129040
  37.0767784  30.0001216  23.5723448  35.9310246  29.0709496  23.9112830
  15.3551149  27.3842406  16.0508406  14.8256278  26.6315961  15.7874000
  16.0925663  27.3836470  15.4405975   9.5533741  42.0443106  20.1339889
   8.7751073  42.5719404  20.3132606   9.5263523  41.3472462  20.7894325
  33.5065260  20.4358782   0.6531330  33.7843457  20.5002083  -0.2606014
  32.5564852  20.3282513   0.6075998  60.4969740  55.0693941  51.1668444
  60.8147430  54.3993664  50.5616045  60.1481390  55.7577181  50.6004858
  70.0003815  63.4920359  18.0871344  69.8358727  64.3259287  18.5273504
  70.8743429  63.2345819  18.3806348  33.6321354  17.6558232  28.5927677
  34.3353939  17.0147991  28.4891009  33.5563588  17.7772784  29.5392036
  36.6523242  13.0170214  19.8008072  36.8351436  12.3856640  20.4966497
  37.3989034  13.6158037  19.8184764  40.2425146  32.7533817   7.0936519
  40.7635355  32.0015001   6.8117964  39.8869729  32.4933505   7.9434800
  63.3807755  55.6874037  28.8502431  63.0951023  55.1188850  28.1351137
  63.5091400  55.0946522  29.5907807   3.1913266  56.8986845  61.7154312
   2.9677454  57.2515249  62.5766754   3.9250952  56.3070488  61.8821096
  -0.1931476  47.5204086  51.3693237  -0.0130273  48.3557415  51.8006086
   0.6444763  47.0573950  51.3847113  22.9134130  56.5731668  13.4583497
  22.2571015  57.0882177  12.9890907  22.4488759  55.7803392  13.7264180
  44.8098135  38.6743426   9.8111212  45.2892065  38.8642979  10.6175518
  44.2689085  39.4505262   9.6655476  64.6222448  28.8686705  13.8937902
  65.3166246  29.2250752  14.4479084  64.8201847  29.2010260  13.0182385
  57.4471896   0.6721851  47.3448420  57.0103519   0.9242031  48.1584072
  57.4377244   1.4671204  46.8117142  52.8258610   1.1251314  51.2227488
  53.7647200   1.0911414  51.0393906  52.6566410   0.3451690  51.7511940
  33.5056090   6.4109010  64.1234922  33.3951974   7.3039514  63.7971449
  32.8949881   6.3470489  64.8578596  62.8669310  53.8906050   4.2652205
  62.1320915  53.4785461   3.8108563  63.5760260  53.2506084   4.2033914
  66.9410419  25.7806611   4.9102497  66.9480944  25.0120306   5.4806805
  67.8610373  25.9213567   4.6865505  66.0494423  61.0054350  34.1625667
  66.0808802  60.3159142  33.4993911  65.5154371  61.6942263  33.7667966
  43.3025694  13.0282211  22.5578737  44.1240072  13.2579780  22.9922533
  43.0587053  12.1841335  22.9377127  19.1312897  18.5008812  44.0120125
  19.4708705  17.6290417  43.8099909  19.2214739  18.9886653  43.1933737
  16.5242505  60.3065300   6.9784874  15.7403469  60.6244946   6.5305746
  16.7478108  61.0043049   7.5944096  58.1750822  22.1203208  62.1050167
  58.0298281  21.5492177  61.3507128  58.9304352  21.7388010  62.5523567
  59.5152092  53.8076925  22.9361534  59.5295858  53.2304001  22.1727681
  59.5054150  53.2129192  23.6860752   6.3433564   3.9158508  57.7290583
   6.1195397   3.0354205  57.4274302   6.9613463   4.2430782  57.0754194
   0.9254343  18.6229694  31.3819933   1.0920037  19.3452179  31.9876695
   0.7015904  19.0504229  30.5553079   2.0545964  73.0315495  61.2175655
   1.4317612  73.0449200  61.9442892   2.7510742  72.4435568  61.5098238
  30.4466867  62.3754501  41.5822220  31.4004374  62.4349594  41.6374397
  30.2835083  61.5345478  41.1550379  62.1659040  68.2623434  39.6615720
  62.2618818  67.3420334  39.4165277  62.2613335  68.7407017  38.8379836
  12.6426530  43.3024693   3.1121805  13.0622053  42.5431061   2.7077410
  12.0520186  43.6373949   2.4374893  35.1007771  23.8080716   0.3068797
  35.1825118  24.7475219   0.4711531  35.9936404  23.5193872   0.1179680
  29.0136862  40.6317329   5.8247334  28.3436728  40.5747128   6.5059555
  29.2521477  41.5584326   5.8002955  11.8828189  49.5287800   2.1504672
  12.0974743  48.6183071   2.3534447  11.3030279  49.4745255   1.3907763
  28.1086588  14.4728541   4.9722537  28.6952400  14.5859003   4.2243394
  28.6926413  14.4202173   5.7288420  33.4668875   3.7444758   6.0298222
  32.8093219   3.2128811   5.5812186  33.0908489   3.9115807   6.8940574
  66.5902090   1.2699662  52.3027277  67.2748470   0.9717976  51.7038965
  66.4877415   2.2008786  52.1049070   0.5532194  70.9716702  11.9262362
  -0.3105272  71.3706779  12.0309663   0.6880316  70.4767990  12.7344179
  35.8405757  73.0950975  62.6882982  36.7654634  72.9813766  62.4694777
  35.7076526  74.0429974  62.6815701  67.7558136  67.5541401  39.6104360
  67.7000952  68.1828403  38.8908052  67.0427704  67.8006124  40.1995516
  39.8514175   9.8600852  37.8168821  39.9765420   9.0298051  37.3573065
  38.9074850  10.0144994  37.7797699  47.7098227  39.5432949   9.1773939
  47.6679897  38.6195326   8.9301151  46.8685675  39.9043941   8.8978934
  34.2818623  -0.1438788  61.0738373  35.1634079   0.0186560  61.4095306
  33.9964926   0.7027695  60.7303524  78.3926916   4.1833258  60.8796597
  77.4646807   3.9827365  60.7580519  78.8511324   3.4259212  60.5157852
  44.0457869  15.1215267  48.2162046  43.7093878  14.2785227  47.9122114
  43.6822414  15.2212799  49.0960407  20.6743383  17.0052266  12.0620894
  20.1338339  17.7224219  11.7308581  20.0995827  16.5292561  12.6615393
  15.7955742  32.7157545  13.1555271  15.9882450  33.6043954  13.4545696
  14.9237883  32.5294709  13.5041261  18.9562511   8.9022219  24.4358373
  19.5334578   8.3581424  23.9000750  18.9290881   8.4595120  25.2840734
  12.8632712   2.7871108   7.2047269  13.4646881   3.1767499   7.8393221
  12.9880118   3.3032614   6.4083219  61.4904165  18.3941960  62.8551674
  61.5893841  17.6866424  62.2181368  61.8448830  19.1657162  62.4131918
  54.1851759   2.3459879  61.8747330  54.9375105   1.9761300  61.4127445
  54.5598602   3.0206180  62.4410486  27.2355843   9.1949433   5.4396504
  26.2784100   9.1905051   5.4447824  27.4704337   9.1314030   4.5138854
  20.1806736  41.4815140  19.9705648  20.2422738  41.2289047  19.0493560
  19.5413995  42.1938658  19.9813497  55.5826473  31.4698529  21.1176634
  56.1307430  31.3834929  20.3376842  54.7110844  31.6710186  20.7768679
  26.1708570  30.4845572  22.5707984  26.0416365  31.1576772  21.9026351
  25.4937029  30.6620049  23.2236457  61.2386560  20.9106088   6.3794684
  60.7775450  20.3449988   5.7600379  62.0742655  21.1013985   5.9533352
  19.0608096  58.6475658  14.2027152  19.5715022  58.7514734  15.0056028
  18.1897080  58.3900881  14.5045733  61.2312269  50.2627993  49.6611023
  61.2714815  51.1302280  49.2583942  61.9721174  49.7887850  49.2834473
  31.1317015  42.2533226  23.5431719  31.0276723  42.2316074  22.5918889
  31.9115853  42.7894449  23.6866498  56.7989683  56.8230963  59.3330765
  57.2383881  56.1735868  58.7841892  56.9452572  56.5182781  60.2285767
  10.5923975  17.9929626  30.3433180  10.6792951  18.5721815  29.5862269
  11.4283657  17.5287569  30.3869438  16.4713860  66.2059641   8.6679226
  16.0463953  65.5233622   8.1486237  16.4839089  66.9712925   8.0931604
  41.1767530   5.4334110  19.2623603  40.9793186   6.0194069  19.9930167
  40.3451538   4.9992907  19.0720475  16.7896378  38.1638193  18.2189739
  15.8477235  38.2590199  18.0776763  17.1344507  39.0534616  18.1423354
   2.2471187  35.5210185  25.9339428   1.3333499  35.6616688  26.1818862
   2.3174855  34.5751309  25.8051896  26.3468957   6.1336404   7.4052697
  26.9643474   6.0077232   8.1257766  25.5410099   6.4286351   7.8292483
   2.3074426  38.9668965  45.4293633   2.9478613  38.4223151  44.9716234
   2.1552794  38.5124707  46.2579632  11.3391089  73.6658478  18.1570518
  10.6883240  73.0154991  18.4211659  12.0791650  73.1486940  17.8390968
  65.1307726  70.6494188  59.9285507  64.3807554  70.0601292  60.0087738
  65.0433493  71.2504482  60.6683826  19.9560380   8.4497368  50.7762718
  20.7564521   7.9291648  50.7086325  19.2492878   7.8241801  50.6168509
  66.5533209  32.3486733  11.0778689  67.4858618  32.5252724  10.9537148
  66.4371729  32.3316598  12.0278430  78.1575277  12.5963553  64.4832430
  77.2196868  12.7355822  64.6147709  78.2461336  12.4337109  63.5441325
  39.9760437  50.7463932  17.0879447  40.6856394  50.2036095  17.4315822
  39.3539810  50.8141184  17.8122950   4.0332639  71.5940189  48.5669756
   4.1422319  71.9569778  47.6879883   4.4711950  70.7436371  48.5309458
  64.0968895   3.1104442   0.5797862  64.7563887   3.8007686   0.6486888
  63.8968325   2.8789330   1.4867657  35.9494853  17.3171127  19.7399747
  35.6753182  16.4338470  19.9867654  36.4317751  17.1983457  18.9217305
  66.9879627  29.2557764  10.9551275  66.1113691  29.6202564  11.0774863
  66.8763113  28.3142042  11.0863113  69.5762110  26.0020351  57.3067474
  68.8792086  26.5241218  57.7040482  69.3943310  26.0348105  56.3675594
  38.5676527  38.7683702   4.3169627  38.5364842  39.7157049   4.1834909
  39.4707489  38.5270596   4.1110063  22.0380306  40.9470892   0.9517308
  21.2433791  41.1960459   1.4237288  21.7968345  40.1495266   0.4806127
  52.6862431  36.0068393  51.9363546  52.1597528  35.6795597  52.6656914
  52.1072626  36.6151452  51.4770317   8.5174137  53.4544611  39.2113924
   9.3591088  53.0867147  39.4807339   8.0677015  52.7300215  38.7764454
  48.3250761  14.6226859   2.9612756  47.7787161  15.3323889   3.2989830
  49.1243696  14.6651936   3.4862062  48.1505203  69.6368742   4.0671498
  47.7657175  70.4908371   4.2643994  48.7042475  69.7945499   3.3024564
  69.9782991  46.0265446  34.5053053  70.6182575  46.7107201  34.3088746
  69.3544388  46.0668898  33.7804604  52.6148224  34.4830775  20.0258398
  52.4812412  33.9803386  19.2223215  53.1299639  33.9041662  20.5877304
  13.4892988  46.1355829  27.1568060  13.8310540  46.7101240  26.4717245
  13.4241462  46.6967106  27.9295421  32.4581885   7.8247750   8.0967361
  32.6125550   8.7179571   8.4043533  33.1324935   7.3020893   8.5307211
  23.7576866  72.1299982   2.7155474  22.9635668  72.4946785   2.3248829
  24.0365672  71.4507675   2.1014588  26.5539885  64.8677635  42.1778345
  25.6122851  64.8834038  42.0069981  26.9395208  64.5414257  41.3647509
   6.9822723  32.4445295  59.2351580   7.3893517  31.6924167  58.8052225
   6.7416054  33.0296803  58.5168886  57.5857878   1.4441465  15.9327054
  57.3741531   1.2996213  16.8549609  57.5018167   2.3901242  15.8130920
   8.5794657  54.8168421  49.3477631   8.8383573  54.6067381  50.2450132
   8.4454954  53.9653635  48.9315176  44.8425674  62.2187662  52.6031446
  44.2884970  62.0220089  51.8478155  45.5585718  62.7433205  52.2448063
  12.8525746  69.8028803  47.3209572  12.6148093  69.5926237  48.2240057
  13.6054289  69.2418575  47.1346855  50.4748917  35.6061769  53.6642122
  50.3629589  36.3818216  54.2138290  50.0171423  35.8205390  52.8513479
  12.9527378  41.9245720  57.4261141  12.3710728  42.3821974  56.8190908
  12.3986614  41.2579966  57.8322029  42.6009369  43.7268829   9.5840460
  43.2319021  44.2875767   9.1326743  41.7464066  44.0465307   9.2945075
  60.5007935  72.9874802  62.2143793  61.1193466  73.6515951  62.5186348
  59.7518682  73.0693007  62.8048468  72.7053499  44.9948692   6.4478189
  72.7185965  45.9007978   6.1390382  72.5452614  45.0649166   7.3889333
  21.9205689  50.9493303  19.3116438  21.9961953  50.3413534  20.0470901
  22.2507453  51.7804098  19.6529949  70.5343819  31.8153024  50.6366205
  71.1467409  31.1187530  50.8734035  70.8138514  32.5675201  51.1584377
  30.7468867  36.9939923  12.7438056  31.2044406  37.8344011  12.7681065
  30.1208210  37.0828319  12.0252097  56.7798233  36.6347456  13.2993960
  57.5772810  36.1779833  13.5670948  57.0666695  37.2332263  12.6096368
  15.4564762  12.5911713  24.2169976  14.7795057  12.6201999  24.8930883
  15.8727694  11.7368639  24.3314171  10.5628490  10.7135761  26.7486429
  10.4770792  10.1016963  26.0175633  10.0304222  11.4671671  26.4939761
  62.2268581  27.8206682   5.7280737  62.5390005  27.6972151   4.8316601
  62.3237991  26.9602251   6.1360836  76.7637968  39.7993445   9.2089093
  76.6582632  40.1969814  10.0731897  77.1426964  38.9383602   9.3860310
  45.1692772  40.7203865  63.2836056  45.8051443  41.4327765  63.2172346
  45.7027531  39.9276090  63.3395910  42.2355890  51.8333483   8.2637948
  41.5722752  51.5145636   8.8758600  42.5692606  51.0430193   7.8392053
  70.2074242  43.3178377  15.8893275  69.9224377  42.4122095  15.7674491
  71.0043621  43.2494450  16.4151013   5.6344932  56.4555073   1.4857309
   5.1764101  56.1073065   2.2506814   5.5861866  57.4058199   1.5896711
   4.6577358  69.0744686  47.9103756   4.9221027  68.3554792  48.4843016
   4.3184161  68.6427259  47.1263504  43.6589622  29.3491983   9.2232001
  43.5995483  29.2332220   8.2749110  43.2964945  30.2209377   9.3810594
  24.1577530  35.7221794  25.5511785  24.6090221  34.8877907  25.4231763
  24.6893930  36.3579488  25.0722337  13.3861816  36.0991454  13.2714760
  12.5649583  35.6427073  13.0884743  13.9937925  35.4053998  13.5279059
  46.7968941  24.3789482  15.4449654  45.9376097  24.1976929  15.0641644
  46.8523645  23.7937379  16.2004018  15.2461958  70.7550192  44.5656919
  15.1743543  71.5850019  45.0370789  15.4885066  70.1180363  45.2378273
  15.4646087  44.6365786  25.2369142  15.0960600  45.4963541  25.4398632
  15.8058846  44.7262526  24.3471265  29.3378162  43.5498142  10.9032464
  29.0430546  42.8260851  11.4560246  30.1306581  43.8714695  11.3324022
  52.9777718  27.8983164   5.0256205  53.8845634  28.2043862   5.0088960
  52.4593544  28.6923170   5.1561415  34.3857598  19.5490777  20.8248830
  33.5968947  19.0834391  20.5472040  35.1077294  19.0266442  20.4755187
  48.3511686  66.8414736  54.4236183  48.9130592  66.7408609  53.6552525
  47.6871872  66.1589813  54.3257999   5.5753183  48.5420322  12.7804363
   5.0967062  49.3109989  12.4708283   6.3989449  48.8929176  13.1191862
  24.6231294   1.6837496  17.5907373  23.7721300   2.1190935  17.5406635
  24.7729373   1.5577453  18.5277081  44.0051079   1.6305520  29.9413800
  44.9189425   1.7050926  30.2162981  44.0042782   0.9166069  29.3037963
  67.9357004  32.9317284   7.2196913  68.1664610  32.9222488   6.2907720
  68.6287880  32.4258065   7.6438355  41.9815760  53.3003144   0.5645557
  41.5772336  52.7130346  -0.0740675  42.8202837  53.5411112   0.1710888
  34.9649000  33.0234075   2.1528305  35.4057884  33.4741855   1.4326584
  34.0984678  32.8094220   1.8068022   8.4636635  28.3280778  21.1642075
   8.2410681  27.9576802  22.0183086   8.7683719  29.2142200  21.3594913
  73.3138514  58.2063150   6.7545706  72.9045725  57.6243639   6.1142159
  73.0014658  59.0797567   6.5184635  61.5683317  39.1024041  23.7915158
  61.5951586  38.2530260  23.3509827  60.6374359  39.3213344  23.8331318
  14.7647810  10.8243811  33.0914116  14.6422386  11.6182530  33.6119699
  13.8815498  10.5812192  32.8139114   5.6437463  13.5022235  59.2786694
   5.4860020  12.5599289  59.2201042   5.8792406  13.6491680  60.1947355
  11.6240358  15.0866079  27.7995515  10.9857059  14.8393798  28.4686136
  12.4630809  14.7813570  28.1445980  28.8480687  37.2736001  10.9407151
  28.7580347  37.3027110   9.9882036  27.9560065  37.1415567  11.2616909
  27.2528076  40.7297993   7.7311581  26.7992115  41.5726233   7.7198696
  27.1270347  40.4020214   8.6216503   0.9126756  27.3827696  13.8450134
   0.2009097  27.5763535  14.4550526   1.6414076  27.1143937  14.4046164
  29.1291809  40.5047035  11.3820350  28.2855129  40.3455925  10.9587836
  29.5361018  39.6400905  11.4376116  72.4746990  57.6485586  38.8990879
  72.1949244  57.4702930  38.0012131  73.0757713  56.9338131  39.1090393
  21.2659764  68.6631250  35.8157897  20.6973958  68.8112497  36.5714407
  20.8403850  69.1346788  35.0997281  68.6114168   5.1179421  45.7344580
  69.2294693   5.8486426  45.7523584  67.7517414   5.5330443  45.6646299
  32.5421834  16.3211048  60.5308533  33.1315899  17.0647955  60.4053307
  31.6972923  16.6267216  60.2007151   2.7646309  72.9044533  21.4334750
   2.6153669  73.1712198  20.5263996   3.2774547  72.0991230  21.3649917
   4.5705932   4.1725293  61.4452696   5.3073066   3.5759604  61.3126421
   4.9368280   4.8960292  61.9538498  34.6497321  10.5006719  54.5307016
  34.9432564   9.6278149  54.2695570  34.4267774  10.4111445  55.4572582
  34.5661354  43.5471964  20.0618219  34.9373889  42.9292059  20.6914949
  34.2594194  44.2791700  20.5969596  66.6873503  49.3691397  22.0413303
  67.6353073  49.2378044  22.0222712  66.5077925  49.9284315  21.2855625
  77.7678138  69.3922329  38.6312270  77.6849640  70.1117086  38.0053496
  77.7626674  68.6024952  38.0903745  65.8467531  74.0876961  31.1937284
  65.0128651  73.6179829  31.2087464  65.8065557  74.6713734  31.9513154
  46.0172176  63.4265089   9.9364609  45.8826256  63.2475376   9.0058237
  45.8130693  62.5987005  10.3715312  76.5461849  50.5595779  11.3979280
  76.9391434  49.6871853  11.3705385  76.6310718  50.8887005  10.5031073
   5.4162079  25.7395816  54.1358185   4.4957936  25.7251787  53.8734007
   5.3986251  25.5819964  55.0797892   1.4782065   4.8525026   4.1072929
   1.7504567   4.1602531   4.7097066   0.5250552   4.7741193   4.0674099
   6.7254728   7.5237846  51.7574501   6.7891973   6.5854388  51.5794659
   5.7857364   7.6903921  51.8307209  55.6364441  63.7790918   7.4613929
  55.7493210  64.5293188   8.0450404  56.0276461  63.0455446   7.9358429
  64.4592953  56.4048862  10.5415285  63.9625406  56.8082237   9.8296386
  63.9149427  56.5362406  11.3178408   4.1468394  62.1166754   8.3183807
   3.6669603  62.9096127   8.0792212   4.4444156  61.7557573   7.4832648
  63.3808613  45.6159592  21.2854123  63.9516163  46.2704754  21.6880083
  62.5104666  46.0138655  21.3030148  14.1179264  26.2344980  60.3475428
  14.1042924  27.1823645  60.2148962  14.5309711  26.1183119  61.2031889
  44.9474621  56.3858223  21.4192653  45.6080055  56.9901705  21.7579055
  44.6787977  55.8729887  22.1815348  52.5367785  63.7949800  59.1174698
  51.8800879  63.1129217  59.2581463  52.0617533  64.4966173  58.6721706
  76.1177111   7.3760337  17.5551438  76.8378782   7.7358329  18.0729592
  76.1383009   6.4364243  17.7366424  62.2411156  14.4336689  62.5144482
  62.6191807  14.4449747  61.6351509  62.6884365  15.1425612  62.9766273
  67.3820734  20.6160212  61.1785030  68.0281067  19.9735403  61.4719200
  66.9212103  20.1816535  60.4607582  64.8618269  36.1079717   5.2160805
  63.9437532  36.3463974   5.0875425  64.8293114  35.2703309   5.6781757
  33.7071967  66.5134954  42.6902580  33.2286263  66.4863825  41.8617201
  33.3101940  65.8213043  43.2189274  14.9993086  21.0454178   3.2678983
  14.1210532  20.9814405   2.8926572  15.2675796  21.9482327   3.0970487
  73.2522964   8.9245725   3.6110985  73.0928612   8.1636393   4.1694817
  73.1052113   8.6037606   2.7213362  42.3499966  34.0163445   5.5804437
  42.1556711  33.0837345   5.6737512  41.8580151  34.2871308   4.8052913
  43.6325788  47.5102425   5.6102210  43.8838434  46.9316721   4.8902524
  42.8337049  47.9399061   5.3045702  34.9124360  54.5632076  18.6252940
  35.5003119  53.8078070  18.6259580  34.9335742  54.8823643  17.7231157
  69.5847082  57.2383213  62.4636364  69.7525311  57.3184824  63.4025955
  70.1495695  57.8985977  62.0621443  61.7726994  37.0341158  12.6572740
  60.8884048  36.6859174  12.5431991  61.6697836  37.7475834  13.2870388
  25.1497340  62.4497461  33.7900472  25.7383466  61.8415308  34.2370820
  24.3798852  61.9232941  33.5746002  56.3956308  32.1187043  11.5999353
  57.1768284  31.8351316  12.0748508  56.7352057  32.6111412  10.8526552
   0.1240877  33.1731510  63.3410120   0.9674124  33.6240625  63.3823824
  -0.3933807  33.6892319  62.7228498  49.1719294  67.5718069  35.0038958
  48.8378286  67.9887486  34.2096877  49.6996546  68.2495070  35.4263425
  72.9103851   4.4490853  30.4979587  73.8565540   4.5390487  30.6115222
  72.8118753   3.9889890  29.6643901   2.2161360  31.4208984   3.1049713
   1.7269349  30.8462453   2.5161684   2.3984891  30.8784413   3.8722521
  71.6314793  56.7220545  31.6295099  72.1194172  56.0179520  32.0565867
  70.9169960  56.9198036  32.2350168  42.8767776  51.6654253  17.8838468
  43.1572151  51.3065958  18.7257659  43.6142349  52.2029734  17.5950027
   8.7143600  69.4695568  13.2565963   7.8668511  69.8885298  13.1068528
   8.6921948  68.6828136  12.7118218   3.1702021  20.4186130  22.9358196
   2.2343558  20.4328394  23.1363702   3.5244811  19.7271419  23.4949112
   4.4116431   8.0631077   4.7274700   4.3548554   7.8900790   3.7877530
   3.7724528   7.4682122   5.1196015  62.5840712   6.9916183  60.6758070
  62.9547787   6.9343328  59.7951651  61.8573236   7.6086468  60.5900812
  35.3503370  33.0715179  10.1483893  34.5165181  32.7070785   9.8514694
  35.1040983  33.7687254  10.7562566  57.3838472  37.1240211  21.3620448
  56.5638065  36.9264674  20.9095597  57.5000572  36.3980985  21.9750404
  65.9170675  26.6995907   8.1396252  65.6269741  25.9429598   8.6491215
  65.1280165  27.2298026   8.0277836  56.7382908  61.7891884  59.6363401
  56.7209673  62.3661661  58.8727760  56.1090708  62.1774530  60.2442598
  71.6978121  71.5396643  14.6458316  71.5432072  70.7149792  15.1065111
  71.5102386  71.3404322  13.7285769  78.0386972  72.8404903  50.4274035
  78.0253935  71.9230175  50.6999922  77.6167488  72.8412199  49.5682192
  17.3733854  69.9935436  61.4764261  16.7977917  70.1026058  62.2334099
  16.9241691  69.3536520  60.9241867  47.0227671  57.9192686  15.4063857
  46.3912392  58.3302689  14.8160601  47.2791195  58.6187077  16.0074687
  59.0024042  43.4925747   2.7794504  59.2765093  44.0736485   3.4889916
  59.7700214  42.9476690   2.6060399  61.8815470  46.9794559   9.6575826
  62.4754000  46.2367487   9.5482647  61.0417938  46.6661453   9.3215901
  16.2165296  49.0533257  13.1016088  15.3177297  48.7253904  13.0725074
  16.1458313  49.9698639  12.8347933  65.8325434  55.0216389   5.9795302
  65.5082464  54.4339848   5.2970880  66.7155075  54.7043610   6.1690992
   9.3333662  63.5396814  34.8176813   8.7107956  64.0359545  35.3490520
   9.6353793  64.1634941  34.1574717  39.3960094  72.6057529  29.4513226
  39.0043020  72.5311375  28.5811329  40.3288937  72.4458218  29.3085694
  13.9188516  10.6703556  17.6977777  13.9954805   9.7241378  17.5751734
  13.1992960  10.9289873  17.1219456  59.8065233  34.5590138   7.9831094
  59.1056776  35.1190472   8.3168858  59.4442368  34.1709614   7.1866202
   2.0900555   6.3247639  18.2617652   2.5063044   6.3407028  17.3999572
   2.4606347   5.5544746  18.6925292  30.4623914  59.3859291  13.2626259
  29.5605588  59.2754459  12.9614258  30.7119465  58.5229588  13.5931325
  49.6890068  52.1038198   2.3503163  49.9723625  51.3859177   2.9165000
  50.4793549  52.6256561   2.2115253  77.4013901  50.8207130  56.8384314
  77.9631186  51.0018301  56.0848475  76.6943884  50.2803278  56.4857864
  33.8842010  62.2973061  10.0283873  34.7695017  61.9384766   9.9674165
  33.3200359  61.5291834  10.1174581  48.9755249  56.2241173  15.7780671
  48.1437445  56.6863060  15.8817780  48.7447357  55.2976084  15.8455145
  16.5031755   7.9474431  52.9701424  17.3936903   7.6332909  53.1267405
  16.4524472   8.7733126  53.4513903   2.3497574  42.0545530  21.1744547
   1.4325529  42.2926378  21.3096762   2.7316603  42.8133917  20.7333803
  68.0165958  15.4726732  61.1764812  68.5589170  14.8974717  60.6367970
  68.4766483  15.5186141  62.0146179  78.3999991   9.9515331  62.8900719
  78.1427839   9.0352786  62.9927874  78.4850637  10.2782738  63.7857485
  66.6974211  72.2193050  10.2383637  66.5943670  71.8195200  11.1019516
  66.6066170  73.1588888  10.3970218  33.6601520  47.8866291  27.3959970
  32.8786707  48.3721972  27.6600838  33.7370348  47.1859884  28.0436277
  23.9091802   9.9720258  63.9425755  22.9791117  10.1741874  63.8409185
  24.2337298   9.8806137  63.0467272  10.9069180  54.6433067  44.2940092
  10.8071220  53.8821030  43.7223101  11.7897129  54.9654484  44.1120005
  19.5348501  25.7486725  57.3632860  20.1974154  25.0629282  57.4469376
  19.2643774  25.7097554  56.4459181  74.0337229   9.0087426  31.2615108
  73.7396193   9.6809584  31.8762136  74.9328136   8.8171321  31.5282536
  29.5989728   0.3699139  44.0725851  28.7884927   0.3657915  43.5633373
  29.4551611   1.0345083  44.7462797  64.3461466  56.1002016  59.2046547
  63.9772654  56.9361067  58.9193249  64.1019964  56.0332918  60.1277733
  44.0312672  17.1070182  40.7846355  44.2714787  16.7451906  41.6376400
  43.0781269  17.0260978  40.7499552  12.8804934  44.0526009  15.9243524
  12.5810754  44.3196297  16.7934203  13.5434341  44.7018814  15.6894577
  23.3998704  30.0590754  56.7086697  24.3042731  30.3725767  56.7098188
  23.2540870  29.7450733  57.6010704  72.9889774  12.0344496  55.2268600
  73.2470179  11.7274165  56.0959816  73.5225582  12.8155613  55.0805998
  32.8665376  41.0041237  10.6537497  33.4983158  41.4832211  11.1899924
  33.3141613  40.1889515  10.4271436  16.5343726  65.3996468  21.0967660
  17.4255288  65.7484055  21.0757971  16.1406267  65.7951498  21.8744373
  63.9727211  28.5510302   7.8060877  63.4333467  28.2356739   7.0809257
  63.3562565  28.6715174   8.5283661  24.9561167   6.4478809  18.0911684
  25.7820535   6.0523570  17.8125668  24.9338698   7.2948277  17.6457274
  74.6755219  62.4055243  59.7840834  74.2517471  62.0004559  60.5407667
  75.4902077  62.7684641  60.1316500  46.4290333   6.5998018  23.5385394
  46.5578747   7.3432279  24.1275644  47.2338820   6.0879976  23.6192346
  74.4799232  54.2347813  56.0853243  73.7872601  54.6981478  56.5562105
  74.8584461  53.6440945  56.7365122   2.6427570  68.0126476  52.2365618
   3.5680377  68.0750465  52.4736166   2.3800623  68.9154434  52.0571566
  20.1839972   5.9860450  43.6235332  20.3907895   6.4686632  42.8231907
  19.2295802   6.0236299  43.6860466  49.7200155  43.2902336   7.4304724
  48.9791441  42.8376532   7.0273429  49.7331905  42.9713917   8.3329129
  39.4303918  15.6068814   2.3796850  39.8789930  14.9880111   1.8035002
  39.9438334  16.4119375   2.3126340  12.8566945  63.7889528  61.6905594
  12.7761221  63.5937309  62.6241732  11.9608891  63.7383032  61.3570976
  33.4625435  53.0173779  12.1071231  33.3591533  53.7253094  11.4712191
  33.5516882  52.2275162  11.5738285  74.3871260   4.4147468  17.7214110
  73.8653278   5.2156264  17.6709414  74.1320705   3.9134979  16.9468606
   3.6859030  15.8627188  54.9308300   2.9918706  15.3371501  54.5329237
   4.3397570  15.2226591  55.2119541  34.3594956  66.6145563  17.7045393
  34.7783494  67.4168968  18.0160558  35.0875807  66.0252810  17.5073612
  63.3982944  68.3708858  60.8810139  63.8316488  67.5414991  60.6796408
  62.5210905  68.1189156  61.1695576  70.6351757  52.5785160   7.6048291
  71.5422916  52.8251743   7.7851945  70.6841564  51.6583395   7.3457766
  33.5046482  51.3405848  28.4662771  33.8651276  51.6345024  27.6296782
  34.2145061  51.4763594  29.0938878  31.9996572  15.3029537  54.2910480
  32.0852017  14.3735850  54.0784788  32.7101135  15.4735994  54.9094009
   8.8593972  33.6456513  27.1623731   9.1934216  34.5157623  26.9442701
   9.3999237  33.0458117  26.6483164  33.7530017  18.7487245  43.4837961
  33.0706167  19.4174623  43.4257317  34.4623780  19.0820384  42.9343271
  29.1455007  35.2007246  19.3437493  29.8395300  35.1761651  20.0025010
  29.3712139  34.5001459  18.7318075  63.9794207  72.7769899  55.0361347
  64.6367359  73.3576202  55.4195881  64.0058661  71.9914293  55.5824232
  19.0640700  52.2835016  63.8429642  18.4109747  52.8660393  63.4552193
  19.1858602  52.6179266  64.7315359  37.4815488  21.5700650  49.2335463
  38.1936002  22.2053099  49.1581917  36.6840887  22.0971799  49.1841221
  55.5580282  36.0231423  10.1277590  54.6599197  36.0228586   9.7966558
  55.5179930  35.5013347  10.9292233  22.1251369   3.3182099  60.0945854
  22.1962857   3.6184579  59.1884851  22.9279304   2.8191629  60.2452755
  37.7578092  73.8771677   4.4648647  37.9592156  74.3487597   3.6566150
  37.5369453  72.9914904   4.1767111   7.2668689  14.5350528  41.7509747
   6.3514310  14.6518409  41.4968777   7.5700921  15.4170752  41.9661999
  27.5348544  67.7888489  41.7366934  27.4764085  67.8626108  40.7841301
  27.0956302  66.9631195  41.9403744  56.3414001  20.9434700   3.3753523
  56.2320948  20.1094747   3.8322291  55.5385876  21.0433102   2.8637335
  37.5962758  49.8499393   5.0346667  37.0462394  49.7350264   5.8095753
  37.5371575  49.0136194   4.5728233   8.3341461  34.0536427  47.8661108
   7.5775188  33.4746408  47.9583311   8.0368274  34.8937678  48.2154274
   6.7079765  18.3162487  46.7600822   6.1662602  19.0982497  46.8661451
   7.6075494  18.6391258  46.8125200  53.0133820  38.0854297  15.1809621
  53.6296892  38.6703587  15.6217051  53.5025358  37.2721887  15.0560713
  52.8226089  27.3511934  14.0792096  53.1568813  26.7088819  13.4531653
  53.4445333  27.3231101  14.8062968  66.8440390  52.9870605  60.9040499
  67.7445841  53.2597876  61.0797501  66.3900948  53.1080866  61.7380238
  23.5471916  22.1487260  19.8530269  24.3186545  21.8326259  20.3233051
  22.8840065  21.4743614  20.0001621  46.1331129  60.3904152   9.8471892
  45.8364296  60.2547741  10.7470846  46.0514212  59.5300007   9.4357997
  31.3316607  20.9926677  13.3625329  30.9660482  20.1829004  13.0063903
  31.0071993  21.0264993  14.2624283  74.7476768  43.6627436  41.4330673
  74.0365887  44.0498829  40.9224749  74.5228624  42.7341318  41.4910841
   6.7295331  42.9618120  15.3104496   7.4389011  42.8944683  14.6713138
   6.3420069  43.8219309  15.1484168   8.4917128   1.7147540  35.8633780
   8.3108479   0.7765383  35.9205723   7.9216731   2.0261410  35.1602960
  65.7582092  49.9307537  48.1754971  65.6770325  50.2738047  47.2855759
  66.3551426  49.1871595  48.0920267  71.8938923  48.1461191  15.7048249
  72.2906828  48.7089586  16.3696587  72.5150919  48.1608963  14.9767280
  71.6545916  34.0804577  42.7169895  71.5536785  34.9518347  43.1000710
  72.5285339  34.0901685  42.3266506  67.2604609  18.0975795  11.6081977
  67.3517370  17.1787679  11.8605578  66.3835096  18.1558287  11.2289953
  52.9172850  60.6937647  60.5662346  53.3996487  61.4680815  60.8560467
  53.0412769  60.6756210  59.6172714  47.9231453  67.3981380   5.3148472
  47.9699087  68.2280636   4.8402199  47.3841143  67.5909853   6.0819775
  28.8898921  10.1378453  12.7046096  28.6267066   9.2939925  13.0718660
  28.4200001  10.1939678  11.8725741   3.9942828  71.3399982  53.4780121
   3.6826211  70.8185148  52.7383137   3.2971403  71.9775295  53.6322260
  41.9506788  21.4442158  45.9193420  42.5983906  20.7394457  45.9203196
  41.1069918  20.9941912  45.9628582  64.9208879  11.9629741  56.2739992
  64.7178650  11.9735551  55.3386354  65.3581572  12.7993572  56.4336538
  12.6305878  20.3949809  52.0719337  12.1486294  20.7535577  51.3267040
  11.9577074  19.9928176  52.6212311  68.3457375  62.1217918  26.3091040
  69.1033983  61.5403748  26.3734055  68.6743021  62.8932095  25.8473754
  14.9618447   5.7415324  42.9469347  14.9972224   4.9224266  43.4409428
  14.1056728   6.1128485  43.1598377   6.5635604   5.3783119  25.5110550
   6.2297225   4.9707898  26.3102484   6.0057747   5.0319082  24.8145556
   9.4853413  14.7970450  29.2996907   8.8138467  14.7594893  29.9808049
   9.2064178  15.5119324  28.7275290  40.4607201  40.7573891  27.3509789
  40.3420067  40.8733463  28.2936835  40.3894901  39.8125720  27.2150326
  41.6747904  64.5162439  16.7640948  42.1231556  63.7464285  17.1142137
  42.3057365  64.9064350  16.1592054  29.7651815  51.3926268   5.7038254
  29.1994190  51.1620474   6.4406967  30.1839399  52.2110748   5.9703213
  64.7810221  32.9265594  29.9636149  65.6066990  32.6293612  29.5812988
  64.2344236  33.1489229  29.2099476  66.5461779  27.1865606  17.5001466
  66.1263943  26.9817424  18.3356476  65.8679724  27.6348877  16.9948995
  52.3349667  21.0956836  50.1931763  51.8302155  20.5880833  49.5577240
  51.8160486  21.0575414  50.9966087  45.9974480  41.0037804   3.5978541
  45.8128929  40.0693846   3.5026124  46.3289356  41.2710476   2.7405804
  21.5068674   4.9974144  26.7102122  20.8998036   4.5020601  27.2600579
  22.1454310   5.3595245  27.3244953   8.0914009   0.8618642   2.3288845
   9.0107554   1.1243503   2.2828345   8.0691123   0.1852256   3.0055639
  56.3007641  46.0036945   0.6181808  55.7339048  45.2892065   0.3276482
  57.1576595  45.7963037   0.2454223  58.3761835  26.8933749  18.9634788
  59.2315340  26.5046811  19.1465688  57.9079723  26.2202406  18.4696162
  52.3964214   4.3177268  60.6223106  52.6879835   3.4602025  60.9319496
  53.1953716   4.7454733  60.3141928  20.8082938  56.7135906  19.5956683
  21.7351174  56.9456339  19.5374584  20.5583692  56.4984083  18.6970770
  16.4128447  14.0336776  54.4085264  17.1521604  14.6377826  54.3399525
  15.6674290  14.5916259  54.6305180  51.5585709  60.9902620  11.6540623
  52.0390844  61.5718317  11.0648966  50.6368637  61.1645699  11.4635217
  55.5428934   6.1855412   2.1905318  55.5722475   5.4888046   1.5348420
  54.7315502   6.0264862   2.6728719  57.6288557   9.0779847   6.0986221
  58.4929419   9.4218904   5.8720845  57.0716381   9.3252856   5.3606647
  38.7703633   4.6782109  41.2299013  38.2210851   4.0989417  40.7017231
  38.2129717   4.9316779  41.9656324  48.9814901   4.0453708  19.1508853
  48.1665754   4.2663023  18.6999631  48.7825441   4.1682854  20.0790787
  38.7000561  20.8869314   0.8535460  39.6010828  21.1788368   0.9920071
  38.7870741  20.0446653   0.4071726  38.1687641  69.2379618  11.3650227
  37.8148174  68.4730291  11.8187082  37.4046063  69.7869015  11.1890686
  70.9613419  73.2647467  24.8053551  70.9285450  72.3503494  25.0864911
  70.0999212  73.4283161  24.4213915  51.2056589  32.6965666   4.4015005
  51.0032177  31.7610931   4.4134039  51.3196230  32.9287052   5.3231055
   0.8558930  28.8401294  55.5107594   1.0616314  29.7660851  55.3822756
   0.2738969  28.8272810  56.2705946  13.3497953  47.7040529  56.5373850
  13.9060318  48.1706047  57.1612120  12.4789238  48.0802393  56.6650438
   9.8825866  72.2915840  56.9145823   9.5000511  72.0733595  56.0647154
  10.4300332  71.5369987  57.1316910   0.0039391  56.9845867  29.9655056
   0.5272965  56.2221766  29.7184014   0.0934033  57.0383167  30.9169984
  23.3530188  68.0651093  42.6592970  22.6561642  68.5369492  42.2032356
  23.0839348  68.0696917  43.5778856  75.0740194  48.0384493   4.9198627
  74.6260452  48.3493423   5.7065618  74.3792582  47.9514313   4.2672050
  56.1791134  12.9102981  17.0522523  56.1666059  12.3319459  17.8148699
  55.4954004  13.5561323  17.2302020  72.0258045  53.8496399  63.0956364
  72.3373747  52.9726934  62.8717661  71.9672775  53.8463783  64.0510416
   5.2207911  42.3372030   7.0237583   5.0045329  43.1361675   6.5430152
   5.3013444  41.6649389   6.3471454  53.3270073   7.2066730  37.3497152
  52.7499533   7.7773267  36.8421769  54.0909433   7.7498537  37.5435853
  26.3250923  47.4345732  63.4119797  25.4588795  47.0332432  63.4815454
  26.2528658  48.0328035  62.6682472   1.4233327  58.2089376  46.2552786
   2.2572717  58.0783415  45.8039236   1.5626040  57.8397465  47.1273613
  13.9775586  15.4221582  47.8942013  14.4791269  15.0024188  48.5931158
  13.9064384  14.7518134  47.2146320  45.4893494  24.5306230  61.0692739
  46.1224365  24.4652438  60.3543234  45.0755453  23.6681247  61.1023951
  26.6872597  64.2147493  11.0513270  26.5862083  65.0755119  10.6449902
  27.5004983  64.2801857  11.5519202   2.2950669  63.5380173  63.8859606
   2.0400818  64.3903589  64.2391348   1.8664110  63.4949875  63.0311871
  55.1709223  54.7859240  55.4124928  55.5024862  55.6783056  55.3127432
  55.8492327  54.2335510  55.0238895  44.0529680   2.3657173  19.2797506
  43.9815569   3.3150518  19.1802716  44.6766949   2.2461864  19.9959278
  28.0927157  59.7582865  34.1471267  28.4011388  58.9615536  33.7154722
  27.2450876  59.5159101  34.5199728  41.3223886   5.7801700  55.3966665
  41.4555120   6.2209266  56.2358570  40.4909658   5.3169584  55.4986525
  64.3819427  58.1489468  48.1119967  65.3244257  58.2085323  47.9557800
  64.1676617  57.2325516  47.9372406  73.0631106  73.1183950   0.4009100
  73.5518544  73.9210050   0.2187630  72.1440547  73.3817784   0.3540846
  40.2116299  50.7486391  10.5052114  41.0179281  50.6842613  11.0170400
  39.5451474  51.0109615  11.1402082  52.2517633  25.6772089   3.7460685
  52.7417850  26.3548708   4.2117810  51.3339376  25.8733845   3.9340645
  77.8871536  43.0754280  34.7253227  78.8112926  43.3243370  34.7410512
  77.4338818  43.8112593  35.1368117  73.0569124  39.5006299  10.5641389
  73.8516188  39.8310661  10.9830511  73.2566977  39.5129943   9.6281016
  24.0585566  49.0034485  54.4575453  23.1913185  49.1223145  54.8448467
  23.9460444  49.2473507  53.5388041  26.7023039  62.2782755  19.4655907
  26.5316415  62.5023842  18.5507786  26.6106844  61.3260937  19.5000303
   4.9974781  40.6282902  27.3819900   4.4897938  40.6430387  28.1933284
   5.7569480  41.1815500  27.5645900  53.9043474  59.4195127  49.5322561
  54.0170717  59.8939466  48.7085819  54.7506809  59.4991159  49.9722767
  62.5487900  62.6644611  39.2727113  63.3580399  62.9555130  39.6929884
  62.2216892  63.4412813  38.8190794   9.6147329  60.7990980  60.0015831
  10.3435659  61.3445044  59.7056627  10.0276148  59.9883127  60.2988768
  64.6837711  70.7142258   9.1079682  65.5115652  71.1018610   9.3920982
  64.1385460  71.4633369   8.8675642  18.9059186  53.6357498  55.2903128
  18.2286191  52.9791451  55.1279354  19.6041906  53.4172583  54.6731329
  28.7649750  -0.0477484  18.8110983  28.7367974   0.9050581  18.8982499
  29.6571552  -0.2353027  18.5194314  62.1598291  28.6927485   9.8474991
  61.8312168  27.8964520  10.2648163  61.3950396  29.2653179   9.7884393
   0.5634802  53.3924198   4.7738799   1.4638218  53.3232832   4.4563314
   0.4624879  54.3148613   5.0086796  63.9993191  64.1780472  22.4084568
  63.7300205  63.8697290  21.5432119  63.2210732  64.0681648  22.9548025
  77.9090786  63.1679392  48.3023453  77.3615694  63.2247543  49.0854406
  78.7796116  62.9481840  48.6341667   1.3533406  58.8800478  21.4783096
   0.8489327  59.3356323  22.1522927   1.2323574  57.9512167  21.6754627
  16.9124687  66.5166235  15.8764315  17.7287841  66.1980772  15.4912198
  16.9082749  66.1542416  16.7623723  34.3921709   7.5783283   1.5348619
  34.1865611   8.3265984   2.0952618  34.6559238   6.8884277   2.1437158
  66.3108826  43.8153934  46.4276409  65.9391308  42.9420185  46.5511274
  66.4224863  44.1558838  47.3152447  60.6949520  70.4095411   7.7137733
  61.0333872  69.6224689   8.1406301  60.9770203  70.3280163   6.8027169
  51.8272448   3.5437626  12.2106218  51.2279654   3.3955184  12.9421401
  51.3860846   3.1526440  11.4565444  14.9258459  42.7832747  63.5134029
  15.7953763  42.9688168  63.8679790  14.4151223  42.4952602  64.2700005
  61.1030483  67.9948950  42.1955204  60.5613852  68.5229635  41.6090250
  61.5745783  67.3985100  41.6139603  24.2634654   4.5908856  41.1280394
  24.2928338   5.2290297  40.4152012  23.3473253   4.3161443  41.1659622
  12.9705524   1.1661238  18.3190501  13.6183667   1.8166414  18.5899651
  13.4184515   0.6452604  17.6524758  77.8633848  36.7083311   3.8237414
  77.7587522  36.0571814   4.5174924  77.8072185  36.2044334   3.0118516
  36.1950755  61.4799929  26.0405731  36.9660258  61.6857052  26.5692973
  35.5988121  61.0410023  26.6471934   2.3439141  31.0266972  62.5206757
   1.5615523  31.3437819  62.9718971   2.0555618  30.8723402  61.6210890
  58.3783960  24.4623899  11.7133737  58.8964033  24.2181706  10.9463966
  57.8710556  25.2221489  11.4277148  22.7402210  60.6764364  13.6545908
  23.1019950  59.8111439  13.8459504  22.7923632  61.1471510  14.4864225
  17.7588356  66.2589025  32.9419136  18.1222439  65.3882980  33.1038022
  16.8434024  66.0976315  32.7134252   6.2899220   5.5209076   3.7436527
   6.7105985   6.1787665   3.1900421   6.7120421   4.6971792   3.4996891
   0.7276587  47.2301579  28.3381486   1.2495617  46.9410610  27.5896382
   1.1593346  48.0308199  28.6361909  33.2044125  22.9968929  14.6159124
  32.7580023  22.4994922  13.9306808  33.0005360  22.5268936  15.4244721
  40.6080348  74.0407677  41.3511038  41.2628085  73.3533738  41.4735365
  40.0597150  73.7241300  40.6332445  32.1144176  22.3315835  27.2825003
  31.6976452  22.0895362  26.4554906  32.0828724  21.5330338  27.8093338
  66.3153553  51.7224407  16.3325429  66.9130373  52.4633360  16.2321389
  66.8800592  50.9510231  16.2850833   3.7808537  47.1261024  41.1021662
   4.0133065  46.3016939  40.6749105   2.8389028  47.0578146  41.2580395
  20.9884548  10.3023148   9.2982465  21.2619185   9.8338962   8.5095549
  21.4102316   9.8297042  10.0158656   9.4852257  31.7105770   8.9982641
   9.4539344  31.4247274   8.0852783   9.0400624  32.5579596   8.9993244
   7.4429399   7.3510069  57.6971102   7.4743211   6.5664476  57.1496487
   6.8025821   7.1428764  58.3774424  18.3134568  46.7697620  26.3506770
  17.9004228  47.6166964  26.5189958  18.8056004  46.9001627  25.5401087
  55.3020000  50.2984858   8.3418435  56.0974550  50.6009436   8.7800318
  54.7185278  50.0409365   9.0556067  77.9295921  62.3455906  26.6580892
  78.3527899  62.9682398  26.0669565  77.9269743  62.7860069  27.5079489
  45.1613998  68.3360243  22.7436972  44.6051264  69.0656710  23.0164647
  45.1221466  67.7187824  23.4742498  27.3891926  57.6159763  29.5755935
  26.4734483  57.4557734  29.3476081  27.6215100  56.8918467  30.1568818
  44.6724558  53.1512356  21.3877988  45.4976940  52.8057480  21.7281604
  44.4549751  53.8745832  21.9757628  31.9853711  61.3687706  49.3523169
  32.8275061  61.0332632  49.0449476  31.7159772  60.7522011  50.0331259
   3.2240114  47.5441790   6.7645359   3.0165109  47.5593567   5.8302206
   2.4374333  47.8853273   7.1901470  14.8276997  49.7629118  47.0108175
  14.1677630  49.8835802  46.3280630  14.3265498  49.7335100  47.8258133
  72.9742861  69.5126390  29.7778106  73.1384373  69.5360327  30.7205415
  73.6676693  70.0539827  29.4004560  14.3562484  49.7716618   7.0846164
  13.6472893  50.0004053   7.6856846  14.4858718  50.5592871   6.5563416
  63.7710047  39.7501063   9.3312812  63.3256006  40.5749607   9.1377378
  64.1365242  39.4724512   8.4913194  22.8248072  50.1739979  31.3777995
  22.0012426  49.8316145  31.0303140  23.0893254  49.5353556  32.0399165
   7.8086960  42.4265051   0.3526220   8.3136046  42.7778244   1.0860194
   6.9020724  42.6594925   0.5525788  31.7905045  71.5709972  16.9212329
  31.3429189  72.0830107  16.2476301  31.7667937  72.1270466  17.6999998
  33.3892846  69.8554754  12.2186100  33.2528377  70.7952118  12.0981765
  33.8811445  69.5836258  11.4437521  24.1308570  53.1777763  41.3762712
  24.5913291  52.5597858  41.9439745  23.3588266  53.4360266  41.8797684
   0.3437425  36.5210819  42.2806883   0.4351387  35.9520721  43.0449533
   0.8823664  36.1058211  41.6071320  19.7243881  69.4624996  11.3867879
  20.5675101  69.8612738  11.1714888  19.6810675  68.6813879  10.8352232
  44.2895365  17.0293117  18.6366653  43.7877989  16.2141502  18.6392081
  44.6004438  17.1220005  19.5372069   1.6926961  53.1198692  26.3886380
   1.4619523  52.2070885  26.5613103   1.8419056  53.1545782  25.4437757
  19.5925713  24.3448472  15.3022897  18.8342309  23.9026070  15.6838346
  19.5539391  25.2338386  15.6550395   0.2639140  54.8014259  21.4707065
   0.8750493  55.0800896  20.7887292   0.3538579  55.4621267  22.1574473
  65.3139019  16.9103122  27.8302217  65.9895468  17.5764823  27.9565048
  64.7067785  17.3010588  27.2017670  32.4387693  31.9731045  20.0657320
  31.7880106  32.6749372  20.0790262  32.1084547  31.3283134  20.6913257
   2.2395386  39.3574762  55.2680588   2.1247068  40.3003979  55.3861332
   1.3528928  39.0233755  55.1321554  52.5556469   2.2043911  46.4920092
  52.2703171   2.1949805  47.4056435  51.7885876   2.5048900  46.0046148
  13.9742064  43.3567905   7.3646480  14.2509198  44.2430401   7.1317923
  14.6168482  42.7865696   6.9426364   6.3665092  55.4728985  21.8193245
   7.1919727  55.3501558  22.2881269   6.5864146  55.3137684  20.9014177
   2.1464115  25.0246429  40.1860523   2.0465566  25.9678316  40.0569963
   1.2920401  24.6596122  39.9557638   6.0451889  39.2255950  16.8822086
   5.1777422  38.8719869  16.6854143   6.4823109  39.2747569  16.0320687
  16.8102181  68.8583803  25.9054399  15.9914720  68.4099102  26.1170077
  17.3303092  68.7981081  26.7067528  56.5338659   6.5515286  32.3748374
  56.2284803   7.3343307  32.8333044  55.7328081   6.0801750  32.1459985
  76.5166855  43.7497568  56.8444014  76.1200428  44.6104765  56.7099857
  75.9871149  43.3468103  57.5324583  72.7090836  28.6881113  23.5202789
  71.8699551  28.3482194  23.8310361  72.6846504  28.5564089  22.5724983
  58.0788851  67.8853083   6.6899937  58.9171743  67.9273272   6.2298459
  57.7187300  68.7688017   6.6127783  24.0442729  39.5988560  19.4553614
  24.5146775  39.1755962  20.1735568  23.6183405  40.3543568  19.8603678
  25.2424622  60.9456396  22.4966860  25.7327104  61.7662191  22.5470233
  25.1345277  60.6748104  23.4084058  12.2456467  43.6644316  12.4487126
  12.9718626  43.9027119  13.0249631  12.0652890  42.7477837  12.6571929
  -0.1144330  37.3358083   9.5157874   0.0389273  36.4059496   9.3482345
   0.5570138  37.7855349   9.0028191   8.1938213  45.6904125   9.9162102
   7.4436355  45.8780861  10.4803312   8.4550667  44.8005819  10.1532459
  70.7206631  26.6329455  43.4303761  71.1090612  27.4949241  43.5799408
  69.9357939  26.8105650  42.9120445  65.1223135  42.1640253  22.4023128
  64.4602823  42.1938467  21.7116165  65.9517002  42.0643282  21.9349694
  30.9890461  73.3168268  14.8194718  31.1565423  73.3570576  13.8778996
  31.1998701  74.1945219  15.1379657  27.5650144  54.4517040  19.9942839
  27.2434688  53.5698938  20.1820350  28.2975197  54.3165874  19.3931079
   3.4617442   4.4711483  36.5671039   3.5992438   5.4061300  36.7192030
   2.5488707   4.4058076  36.2867022  14.0906358  54.6030426  10.3077090
  14.5040965  53.7878561  10.0235331  14.5319784  54.8220444  11.1283731
  21.0374022  64.1716099  23.1568956  20.2497005  64.3513918  22.6436353
  21.7061472  64.7412825  22.7767897  44.7227573   7.8526407  45.7560778
  44.2173004   8.6276174  46.0013437  44.7599363   7.3279619  46.5558052
   5.7115638  67.9119968  22.5129819   4.8530677  67.4916792  22.5634551
   6.0966116  67.7749252  23.3785343  67.6672173  48.3501196  47.2139168
  66.9886589  47.7366924  46.9319677  68.4260511  47.7979040  47.4022198
  35.8633614  28.3109522  63.7161207  35.3154755  27.8636980  64.3611145
  36.6693377  28.5182452  64.1890478  10.1334667  43.0890083  16.3538408
   9.5805907  43.8049459  16.0408020  11.0094130  43.3055353  16.0343623
  23.0308747  14.1183853  52.0159531  23.3707476  13.3957541  51.4882040
  23.7916780  14.4404078  52.4993896  31.8109202   3.4466341  30.5396390
  31.3330698   3.1901917  29.7508860  32.4771810   4.0589622  30.2275777
  -0.0114055  32.1679640   5.0128692   0.9342865  32.0339394   4.9501681
  -0.2839704  32.3736429   4.1186455  11.4526832  34.3953562  42.8601599
  11.7960954  35.2738094  43.0233145  11.3436151  34.3534613  41.9101191
  55.3398657  55.6359816  46.3810635  56.1771154  55.3511572  46.7472839
  54.9308443  56.1416149  47.0833921  65.2301311  29.4653320  51.7910814
  66.0511017  29.1165161  52.1383142  65.5011225  30.1016641  51.1293554
  45.1729488  71.7325163  31.8004394  46.1045027  71.5458584  31.6838074
  45.1098108  72.0929861  32.6849198   6.1090732   2.9672492  16.3993919
   5.7187623   2.2899891  15.8469355   6.9928628   3.0814654  16.0499609
  70.3950167  59.2875195  17.0403922  70.9287024  59.6417141  16.3290823
  70.8406162  58.4794092  17.2946298  13.0006909  27.8816366  23.9261079
  13.0025256  27.4926424  23.0515146  12.0738375  28.0016422  24.1329217
  39.8288727  69.1477537  37.2876525  39.0553021  69.2598724  36.7351604
  39.6184015  68.3987904  37.8453159   9.9293441  16.4291131  35.7529664
  10.7795024  16.2048590  35.3745842   9.3834335  15.6603670  35.5879092
  40.4075050  47.3360920  13.2018638  39.9135876  47.8693247  13.8247144
  41.0961771  46.9295931  13.7279046  64.4316483  26.4369297  56.0122061
  64.2095613  27.0159459  55.2830648  63.7056828  25.8144236  56.0534143
  66.9742537  33.1808424  59.4017458  67.0992947  33.4016275  58.4787893
  66.3301229  33.8159204  59.7147989   6.3189679  64.9491978  16.8829525
   5.7867795  65.2047968  17.6363957   7.0444864  64.4514942  17.2599721
  22.3805928  49.6904612  22.4762535  21.7529321  50.1389217  23.0429626
  23.0282664  49.3245268  23.0786157  11.4228284   2.4364017  30.9290719
  10.5121219   2.1491350  30.9948134  11.8762052   1.9556415  31.6215682
  55.3194332  59.7571993  37.2846413  54.4086313  59.7125721  37.5756288
  55.3194761  59.3249321  36.4306045  16.9583440  54.5109701  11.5351498
  17.3624253  55.3478193  11.3057208  17.3376298  53.8848019  10.9184766
  71.1565542  46.0001087  26.2072420  71.0804653  46.7433119  26.8056488
  71.4905834  45.2873278  26.7518473  17.9660651   0.3780672   7.3528910
  18.3117959  -0.4545000   7.0311266  17.2058580   0.5522272   6.7979294
  66.4066615   8.8578137  63.4610595  66.8090513   8.5344275  64.2671204
  65.8189824   8.1535395  63.1874565  47.3422534  24.7675713  63.9287586
  47.4703843  25.6887682  63.7024638  46.4337213  24.5859964  63.6882856
  18.2628405  47.4004221  20.4302621  18.3901846  47.0557356  21.3141227
  18.8046813  46.8403673  19.8744023   7.4521279  60.7296991  11.6771400
   8.3198839  60.4547501  11.9731712   7.6057726  61.5568256  11.2205338
  58.6615038  49.4962215  54.3112898  59.1754007  49.1177082  55.0246429
  57.8052759  49.0743446  54.3828773  16.1621511   3.8035521  52.6304674
  15.7646227   4.2963466  53.3483505  16.0513389   2.8860089  52.8796005
  25.1209021  55.6012154   2.7989864  24.8423195  54.6856403   2.8177646
  24.3078017  56.1005735   2.8747573  59.0709162  24.0827346  54.5986319
  58.6383390  23.5333800  55.2523279  58.5593224  24.8916936  54.5892143
  75.2990913  62.0200729   6.2469488  74.6245813  62.3196697   5.6374300
  74.9178553  62.1599770   7.1137345  59.4991302  12.9402316  26.2314653
  59.1453218  13.3665550  25.4508877  59.8579979  12.1128762  25.9106374
  20.9590125  26.7647982  26.8516541  20.7881260  27.5773096  27.3279476
  21.6844559  26.9790530  26.2650871   7.4833751  32.6897740   2.0534061
   6.7577839  32.8593779   2.6542258   8.2277822  33.1501770   2.4408580
  28.4085178  55.3898525  58.5922289  28.6037803  56.1888456  58.1026220
  29.1327572  54.7991610  58.3853626  28.2058263  53.8476896  62.7638721
  28.0551338  53.0445957  62.2653151  29.0687656  54.1482019  62.4788141
  44.6026897  27.2688532   0.3932238  44.9374580  28.1650662   0.3621502
  44.5665407  26.9947720  -0.5231846  30.4416394  22.8840685  23.8314509
  31.3112688  23.0023456  23.4493685  30.0920153  22.1070933  23.3952093
  33.0068159  68.5839605  27.5506759  33.3186412  67.7880287  27.1200013
  33.3973002  69.2977953  27.0464945  13.5553932   0.1234286  21.2469816
  13.0228364   0.8218403  21.6275549  13.1257069  -0.6848866  21.5266728
  32.5988412  33.1484580   7.1533567  32.0163798  33.5517287   7.7970529
  32.2466302  32.2668934   7.0307845   6.5707916  72.1287966  35.0551105
   6.1314797  72.5153351  35.8126211   6.5043086  71.1843348  35.1958394
  77.2510576  49.8113585  23.2029676  78.0489969  49.4889164  22.7839684
  77.1230221  50.6851912  22.8338385  34.6592379  19.7095430  51.1681175
  34.0916800  20.0713134  50.4875088  34.4264841  18.7818432  51.2059498
  53.1142712  14.2118883   7.8173423  52.4963045  13.4927809   7.6860535
  53.1958961  14.6180940   6.9544595  62.8569603  38.8874745  60.3637695
  62.8392124  38.3068562  61.1245584  63.6636448  39.3923736  60.4665709
  48.7206888  15.5951691  30.6873369  49.2914248  14.8419440  30.8394599
  47.8358507  15.2301097  30.6924438   0.7632746  72.2921133  40.2601433
  -0.1119552  72.4418306  40.6176186   0.9044600  71.3505411  40.3588343
  53.7349129  65.3209448   2.9204315  54.1231155  65.4306030   3.7884799
  54.4681597  65.0654840   2.3606779   7.2219992  63.0991411  22.7283931
   6.4603692  63.0139303  23.3018827   7.7787942  62.3550224  22.9575205
  53.4355974  22.7144027  29.2262077  54.1208315  22.6907134  28.5582852
  52.8809547  23.4527254  28.9742470  62.7753162  10.7611990  34.3686867
  63.6063290  11.2314212  34.4360709  62.2459984  11.1060405  35.0878096
  53.0428743  67.5301456  51.6101646  53.7340689  68.1816101  51.7288113
  52.2942781  67.8851748  52.0895338  51.6268492  61.4515829   4.6487534
  51.0988617  61.0079432   3.9849427  51.1601639  61.2953377   5.4697424
  26.5200901  34.9209952  17.6658607  27.0566988  34.5820546  16.9493401
  27.1180558  35.4685473  18.1746352  55.4360294  60.4051399  32.5369930
  56.1884832  60.0724173  32.0477629  54.7171879  60.3978205  31.9049811
  50.9732008  23.0552459   0.2273918  51.3429165  23.8765550   0.5514185
  51.6190338  22.7335334  -0.4016008  46.8321943  31.0226059   5.3014457
  45.9717703  31.3838720   5.5145061  47.3657703  31.2022781   6.0755551
  45.8355045   7.8695583  37.0818567  45.5723190   7.0193201  37.4340796
  45.3431416   8.5062438  37.5999689  71.8605185  65.7303810  19.9318302
  72.7090693  66.0116053  19.5896208  71.5200186  66.4991856  20.3892517
  15.0881469  52.4635315   6.1411649  15.9695482  52.7246761   5.8743876
  14.5061636  52.9927397   5.5957603  29.0972877   5.2778953  36.1222887
  28.4963298   6.0180944  36.2070751  28.5270166   4.5198199  35.9944296
   4.2667523  40.3492117  24.8044467   3.9165437  39.4584036  24.8109365
   4.5710805  40.4934597  25.7004428  48.8833284  61.3177347  12.3813963
  48.9132595  61.1798620  13.3281422  48.7483406  62.2600079  12.2807288
  73.5592985  63.0049801   4.2583522  73.2558870  62.2707605   3.7244117
  72.7653551  63.3456135   4.6704862  20.7830548  73.6597204  11.8787897
  21.5652943  73.5111761  11.3475001  20.8243513  72.9875660  12.5590372
  32.3592424  68.4023237  63.0583620  32.4117780  68.1108618  62.1481323
  33.0676270  69.0399599  63.1469440  39.6955943  64.2575788  26.6658592
  40.1026201  64.9826574  27.1400142  39.0797949  63.8773918  27.2923422
  60.7731628  55.0840759   8.3619899  60.9268522  55.0171661   9.3043989
  61.0509777  54.2370510   8.0132759  31.2624907   5.3027898  19.5016837
  31.2193918   5.0228107  18.5873616  31.1797643   4.4924766  20.0044560
  68.3793592  58.2674837  39.7424316  68.9003038  58.8510418  40.2940750
  68.7800980  57.4061394  39.8595738  28.1503463   5.6250161  28.0887914
  28.7576604   5.4264873  28.8015246  28.2002378   6.5757370  27.9894328
   7.4398124  55.6269693  30.0275540   6.6475213  56.0306692  29.6732521
   7.9718071  55.4271507  29.2573023  37.6337242   4.8640311  16.0475874
  37.5741363   3.9653224  16.3716292  37.1995044   4.8404616  15.1948678
  19.6445775  49.2611742  17.8649807  20.0809121  49.9936438  18.3001041
  19.2306161  48.7722683  18.5762060  46.9864655   4.7588873  63.1592321
  47.2339010   3.9393103  62.7310944  47.7905989   5.2780795  63.1655741
  74.4993973  28.7538314  14.6998429  75.3508377  28.3981538  14.9543524
  74.4447279  28.5934186  13.7577653   8.1295395  38.0296063  32.7742672
   7.6275563  37.3042965  32.4025583   8.9696229  37.6400614  33.0166459
  62.1587658  12.9358101   2.7555165  61.6499281  12.2253668   2.3648936
  62.7877760  13.1810820   2.0769723   5.0396973  19.5292640  34.0220356
   5.2798963  19.7804499  33.1301594   5.1199460  18.5754859  34.0320826
  57.0206594  54.8801661  15.8310723  56.3327551  55.3423738  16.3100111
  56.5485907  54.2844296  15.2492797  29.1450810  45.9050846  63.0092812
  28.4514403  46.5163422  63.2571936  28.7105632  45.2660179  62.4444628
  22.7981806  65.9995842  22.2614312  23.6926270  66.1481476  22.5682354
  22.8176355  66.2479067  21.3372087  22.6359797  44.6801281  18.4077621
  22.5562954  45.2283573  17.6271677  23.5288024  44.3371487  18.3694422
  15.8370316  45.4470015   9.7352362  15.9786475  46.3608503   9.4881386
  14.8885214  45.3712416   9.8392546  55.2906704  56.8813896  12.9130781
  55.8768463  57.4499226  13.4124780  54.5636988  57.4502134  12.6597309
  29.5941377  21.6363907  62.9933548  29.9160552  22.5141001  62.7878571
  29.9410057  21.0839558  62.2928333  73.0184269  31.0353541  34.6951222
  72.9535103  30.5925131  33.8490081  73.0619240  30.3245735  35.3347540
  35.0818753  67.1933317  22.0384908  35.4929280  66.5077972  22.5650978
  34.2772865  67.4079227  22.5105262  55.7736778  13.7946475  59.3992233
  56.5693665  14.2274892  59.0897751  55.1002359  14.4736385  59.3582058
  23.1131673   3.2081646  29.1022682  23.2261992   2.8681210  29.9898648
  22.8037333   4.1053283  29.2270899  13.6464369  28.3980846  10.4312158
  12.6896834  28.3688927  10.4301298  13.8675153  28.9787722  11.1593354
   6.1846972  57.6717806  36.6754961   6.2969649  57.0665932  37.4085546
   6.9383818  57.5048637  36.1095190  15.6934893  69.2452049  42.5293636
  15.4483509  69.8856020  43.1972218  14.8757911  68.7948179  42.3178148
  12.5526416  69.8904514  11.8067408  12.2909677  69.1713428  12.3817539
  11.7683578  70.4339266  11.7307913  32.9126072  17.5834179  17.1964383
  33.1985116  17.8993666  18.0535650  33.0034113  16.6320062  17.2493768
   9.8835444  27.9112649  42.4643183   8.9926875  27.8957891  42.1145105
  10.4454136  27.8935647  41.6895771  70.6238651  45.2660799  60.0810051
  70.3284883  44.6168756  59.4426298  70.2955103  46.0997534  59.7442484
  73.3365774  64.4230175  33.1558418  73.5198975  65.3135872  32.8566527
  73.6859322  64.3928957  34.0465045  51.2339401  61.8385124  17.2847021
  50.4272556  61.9683361  16.7860687  51.7413235  61.2175798  16.7619789
  22.0617080  73.3229589  40.6339788  21.2697721  73.8603401  40.6511259
  22.5532222  73.5959578  41.4086533  21.1268973  51.3082981  13.0223715
  20.1768804  51.2159061  12.9505193  21.3456941  52.0135784  12.4133241
  71.6946936  58.3720493   9.6853578  71.8982172  57.4754906   9.9517983
  71.9648123  58.4164953   8.7681377  18.3511531   3.6085507  37.2913456
  17.5408065   4.1115436  37.3723912  18.4503853   3.4642529  36.3503027
  71.8977880  38.6392021   2.8071323  72.7826738  38.9866447   2.9188833
  71.8667173  38.3519912   1.8945670  53.5391045  16.9464386  14.9126530
  52.6338100  17.0565903  14.6219015  53.9770985  16.5202355  14.1759408
  73.5835838  40.6716442  58.6949301  73.2461834  41.0125160  59.5233011
  74.4627237  41.0434151  58.6232615  14.9955595  54.2070818  51.9760847
  15.5681646  54.8324156  51.5318823  14.1522789  54.2973900  51.5322924
  33.4199119  69.7079182  21.5776587  33.3714318  69.4319725  20.6623793
  32.5431037  70.0370979  21.7753386   5.9425628  67.3760366   3.5302100
   6.2685943  67.3122787   4.4279128   6.1435556  66.5247774   3.1413680
  33.4254932   9.8230940  45.1906586  32.8562570  10.5710864  45.3715086
  33.0873013   9.1239440  45.7501650  27.8118348   5.4426044  42.0883989
  27.9784060   5.0637865  41.2252760  28.0721116   4.7580194  42.7047062
  38.5733390   4.7254294   1.5455107  39.2591882   4.9714485   2.1662521
  38.0616522   5.5252850   1.4245260  25.9818602   6.0566443  54.4133139
  25.1163888   6.1592239  54.0175009  26.3315988   5.2568728  54.0205336
  76.3489056  53.8656235  11.6039062  75.8851957  53.1343365  12.0118594
  77.0886230  53.4585285  11.1529982  26.2102532  60.2197123  48.0471611
  26.8814301  60.5421877  48.6486292  25.6502533  59.6637678  48.5889721
  73.6925268  47.5674105  51.3587761  73.1701469  48.3016729  51.6815948
  74.5991278  47.8619432  51.4457178  68.8911486  22.9222250   6.0288227
  69.3217039  23.6908722   6.4030391  69.0051126  22.2386599   6.6891116
  20.6560922  68.4436846  52.1034241  20.6872106  69.2653465  52.5934601
  21.2796307  67.8730965  52.5527143  19.7070789  67.7800703  18.6819208
  20.5597734  67.3555183  18.5875869  19.6871352  68.0779409  19.5913756
  50.9134293   0.4396624  16.5679765  50.1210356   0.6088721  16.0583580
  51.6315556   0.6282405  15.9638572  62.1208271  34.7910507  64.0360173
  61.3466605  34.9783619  64.5668770  62.5572970  35.6377323  63.9419146
   7.3779488   4.3444264  48.1031179   8.1905639   4.7995922  47.8824091
   7.6273155   3.7304780  48.7938547  35.3317308  64.2097330  33.7595487
  36.0541320  64.0345478  34.3626070  34.8387766  63.3897018  33.7316799
  57.5021172  44.9051857  50.8477354  57.8934240  44.1329241  50.4394245
  57.1846056  44.5931435  51.6951132  59.3393517  65.4178286  53.2362461
  58.4456825  65.0770092  53.2740355  59.2505836  66.3468599  53.4489679
  69.6718877  51.7108826   0.5590387  69.3105453  52.3348443   1.1885878
  69.0223735  51.6758303  -0.1431946  69.0475941  55.4877567  39.9314141
  68.5359907  55.1534986  40.6681395  69.9577665  55.3220224  40.1770782
  66.3052702  55.9114361  63.6619949  67.0630264  55.4511690  64.0228224
  65.7436037  55.2162075  63.3193302  38.4504557  54.9361801   2.8704354
  37.8679824  54.8913431   3.6286876  37.9305243  54.5843124   2.1478757
  28.0938649  68.0571842  58.2688046  28.2788324  68.5272455  59.0818596
  27.9367423  67.1541595  58.5446548  17.4463260  74.1268730  27.6985955
  17.7880454  73.2809782  27.4089050  17.8046191  74.7568035  27.0732570
  60.2899742   1.5046789  37.8393865  60.7178354   1.9757815  37.1243858
  59.9157715   2.1928351  38.3895206  32.3380661  53.1046343   3.2130727
  32.6030612  53.1154442   2.2933486  31.4761591  52.6883030   3.2091150
  74.8506451   0.3619627  20.5931306  74.6039104   0.0385321  19.7266746
  75.1733685   1.2490783  20.4346848  18.4423697  16.0135591  55.8249664
  18.7692344  15.5123425  56.5720797  18.2039118  16.8643165  56.1931801
  29.6609885  73.3013791  31.2087727  29.1716582  72.6120147  30.7598186
  29.1627175  73.4663278  32.0092392  15.0253558  32.2807360   9.4728708
  14.5598388  32.3308086   8.6379939  14.3443847  32.0808935  10.1151896
  12.9542732  49.6423864  24.2362642  13.3959603  50.1721382  23.5725570
  12.1401596  49.3633747  23.8172126  16.9687366  18.0355847  12.6945138
  16.6325486  17.2893858  13.1908977  17.6775467  17.6709414  12.1645558
  66.7359352  20.1835060  48.6595106  65.7851744  20.1230693  48.7524462
  66.8665409  20.7205677  47.8780127  27.3134208  38.9930439   0.1945575
  27.1371055  38.3848143   0.9123343  26.4837098  39.4507432   0.0591870
  69.4324589  50.1711178   6.9481403  68.6781836  50.6387758   7.3067468
  69.1093063  49.2850828   6.7846060  42.8727531  66.3027191   7.6124144
  43.4067345  65.9156799   8.3061737  42.8967905  67.2433281   7.7882028
  71.1582232  41.1947155  38.9860249  70.5425119  41.2472773  39.7170305
  70.9789085  40.3454876  38.5824299   3.5532099  13.4829688  33.5334682
   2.6576206  13.7306964  33.3037233   4.1040272  14.0868902  33.0353594
  25.7704210  67.3954153   2.0293535  25.3819561  66.8612289   2.7221572
  26.4856482  67.8633642   2.4602851   3.4494802  47.0627165  34.5567417
   4.3461901  46.7427778  34.6556497   2.9415980  46.2846851  34.3266249
  28.0382538  20.7432795  27.7580261  28.2165980  21.6636229  27.5646520
  27.0833945  20.6867146  27.7937484  51.8771029  35.8053803  63.6882734
  51.4511633  35.5305958  62.8763056  52.7778530  35.4927039  63.6039257
  10.7347381  71.6606188  37.0453835  10.6996298  72.6017904  36.8745160
  11.6034460  71.5176392  37.4210620  41.6684484  37.1155691   6.0796010
  41.1057901  36.8297815   6.7993039  42.4406624  36.5533566   6.1415136
  41.0545063  37.8919196   3.6188751  41.4400148  37.8121758   4.4913739
  41.6757488  37.4486685   3.0411059  20.0696540   5.9366298   4.1157854
  19.2707801   6.4533669   4.0108246  19.9896693   5.2375013   3.4668991
  55.4758644  54.7742987  41.6537237  55.2911186  54.0727949  41.0292244
  56.0720396  55.3597784  41.1867905  36.4143825   3.6502871  37.9844236
  35.7763839   4.3085575  38.2598662  35.8912277   2.9769555  37.5494933
  44.9306922  61.5831201   0.4273411  45.6514268  61.5959184   1.0571094
  45.0142520  62.4090974  -0.0491146   5.0539744   9.7871405   2.0136203
   5.6594455   9.8034722   1.2724255   4.5752457   8.9642954   1.9137362
   6.0159218  47.1313477   7.3816502   6.2866747  46.2335873   7.1894282
   5.0649279  47.1231461   7.2731364  11.2671447  57.6580524   0.8269331
  11.6837072  57.1684265   0.1177243  11.2731469  57.0548677   1.5701464
  19.3436754  37.0252609  10.2051580  19.4943714  37.5347042  11.0013926
  19.9664867  37.3813796   9.5715034   2.6163253   3.9249897  19.7415984
   1.8609560   3.8168111  20.3194785   3.1741697   3.1710398  19.9329126
  61.0526180  18.4431148  54.2914534  61.0341215  18.2355344  53.3572149
  60.7036638  19.3327653  54.3460894  14.6868718  56.1929131  56.1311150
  13.8208210  56.1402559  55.7268715  15.2806115  55.8308268  55.4733944
  20.3500247  30.5849743  20.5617976  20.7660604  30.9017396  19.7600460
  19.5449567  31.0978842  20.6326365  68.5408449   3.2362849  15.2179229
  67.5917768   3.2111073  15.3398526  68.8415289   3.9179692  15.8188617
  27.6566625  31.3925648  24.9241972  28.1024122  30.9133554  25.6226921
  27.4912310  30.7338881  24.2496538  58.9260864  34.0968418  45.2463484
  57.9778337  33.9726424  45.2061319  59.0578938  35.0140834  45.0065088
  48.0515337  43.7709332  11.3952339  47.5221872  44.0315628  10.6415117
  48.3987665  44.5936012  11.7400110  64.3010092  32.3030615   9.5241594
  64.2856550  33.1064963   9.0040755  65.1740265  32.2883034   9.9163997
  49.7621107  58.5275888   6.7369574  50.4709864  57.8909302   6.8285733
  49.0440083  58.0315638   6.3438642  47.9354000   3.7972638  21.9351840
  47.3700476   3.0332360  22.0486355  47.9749107   4.1971022  22.8039765
   6.0157084  32.2583365  19.2039585   6.3903266  31.3792396  19.1484368
   5.1156890  32.1170473  19.4976151  45.8847237  48.6479664  63.4399557
  45.5303240  49.2506361  62.7861786  45.1125145  48.2665110  63.8575840
  34.9547195  24.4899940  13.0355930  34.4889021  24.0367246  13.7382972
  34.2716861  24.7227287  12.4066806  37.3637176  17.9241335  29.1496825
  38.2513022  18.1606972  28.8804984  37.0564723  17.3293233  28.4655523
  22.0469379  59.0885305   2.3378079  22.5802469  58.8706350   1.5733890
  22.6239610  58.9311743   3.0851462  20.9843588  46.1390257   8.9613432
  21.5171504  45.7025003   8.2966560  21.5440583  46.8406010   9.2941445
  73.0661917  47.4692011   2.7157012  73.0920506  46.5197611   2.5968483
  73.2873678  47.8244591   1.8548280  69.9825144  40.7188749   9.7241479
  70.7071829  40.6269550   9.1055709  69.2321491  40.3317499   9.2732435
  45.8196735  62.1243811   7.3455054  46.7001915  61.9146395   7.0341724
  45.5489826  61.3496733   7.8382367  27.8191066  69.6102333  23.0344987
  27.7151895  69.9917746  22.1627998  27.3483372  70.2079964  23.6152625
  15.4891884   2.9033566   8.0624616  16.1904085   2.5895497   8.6334682
  15.8911157   2.9540059   7.1952116   2.8247985  37.3884583  18.2418108
   3.2724288  38.0897641  18.7151277   3.3848155  36.6218114  18.3637428
  26.3504696  67.8555012  12.9831076  25.5137300  67.5598955  13.3418763
  26.4604902  68.7407827  13.3301067   7.2233742  28.8715720   2.3248881
   7.7314091  28.0808973   2.1433258   7.6377046  29.5501447   1.7918754
  75.2034521  20.1371503  64.2816925  75.3571129  20.9998560  63.8965178
  75.7504654  19.5440376  63.7666941  69.1140223  29.5579028  49.8701668
  69.1531515  30.5068517  49.9893141  69.6914577  29.3858838  49.1263866
  27.6133847  53.1569481  27.5798202  27.1226215  52.8831863  28.3546996
  27.5266337  52.4241638  26.9701219  16.9203019  20.8174443  12.9563665
  16.7754507  21.0988522  12.0530069  16.9098377  19.8612416  12.9139626
  51.0162067   3.3153546  44.6257448  51.3598204   2.8340998  43.8730431
  50.4293776   3.9685971  44.2447758  50.1725245  73.8146639  16.8247509
  49.9869823  74.5172024  16.2016594  49.3100691  73.5200500  17.1173322
  25.3526497  45.0899458  11.6354311  26.0635853  44.7069502  12.1493542
  25.6279373  45.9937906  11.4820921  15.7792282  50.4034615  16.2644875
  14.9799597  49.8805189  16.3272059  15.5102813  51.1975336  15.8025908
  20.4736066  47.8491879  15.7067025  19.9932504  48.1975842  16.4577770
  19.8507106  47.8959036  14.9814105  42.4845600   3.7267339  11.1833692
  42.4436140   4.5628175  10.7191277  42.2805309   3.0718356  10.5157518
   8.0195314  46.6389465   1.6533644   8.5942972  46.3164663   0.9591859
   8.4447539  46.3612270   2.4647151  26.3550758  33.1828308  31.5740800
  26.3548756  33.0725455  32.5249052  25.4647303  33.4657621  31.3655925
  16.0349023  12.7576649   5.4567522  15.2612305  13.0598176   5.9325337
  16.2219942  13.4595478   4.8333830  74.9994993  38.8287711  26.2852550
  75.0245762  39.6038938  25.7241964  74.2317057  38.3415198  25.9864092
  60.8745527  68.1859732  64.4007015  60.8680725  67.3649216  63.9087057
  61.1402035  68.8465023  63.7608862  73.0923176  13.1360161  17.1970844
  72.9748344  13.8161147  17.8603315  72.7082062  13.5071886  16.4027786
  34.4323015  69.1476536  56.1324596  33.6981964  68.5454845  56.0111713
  35.1347613  68.7800312  55.5961418  28.8624406  22.3053384   5.5061859
  29.7130203  22.0977926   5.1193142  29.0188980  23.0998898   6.0165215
  71.1667728  30.0855231   6.2726927  71.6985178  29.3472147   5.9754115
  70.3126955  29.9455667   5.8637893   5.4020482  26.4518142  22.0168710
   6.2077284  26.0470295  21.6955304   4.7310993  25.7802773  21.8940115
  56.0769892  34.2245626   3.3999419  56.4463282  33.3432698   3.3438858
  56.6437674  34.7576928   2.8424773  37.5537658  28.5003161  14.7785020
  38.2182312  28.5411429  14.0907145  37.1905947  27.6174521  14.7085702
   7.7742594  47.0897150  42.2048616   8.1355613  46.8133783  41.3626432
   6.9927979  47.5931692  41.9766474  47.7281094  72.1288347   5.6801248
  47.1605110  71.5772581   6.2184823  48.5903168  72.0568705   6.0895783
  35.4634118  67.9641199  46.4575243  34.7343802  68.3004141  45.9363222
  36.2370038  68.1196499  45.9156752  12.4734676  26.9456863  21.2922120
  12.7132189  27.4169827  20.4943228  11.6165042  26.5661240  21.0978436
  19.3175733  17.5380576  22.9937935  19.5959055  16.6789186  22.6765490
  20.1273537  17.9626942  23.2769394  35.1525426  33.8115001   6.4971334
  35.6344342  33.1442547   6.0084671  34.4001627  33.3450484   6.8612492
  50.7362413  21.3430572  54.4684267  50.6689119  22.0614433  53.8394451
  51.2449932  20.6725121  54.0126038  68.7162352  66.8943882   0.4307709
  68.4686327  67.6634598   0.9440473  69.5150328  67.1582365  -0.0258922
   6.5790009   5.8261520   7.3292232   5.9601909   6.4803398   7.6537919
   7.1197474   6.3005203   6.6977167  23.2120419  60.0315952  62.8819227
  23.0362082  60.5671406  63.6555529  22.4009204  60.0693607  62.3750830
  75.1715040   1.1031844  55.2076483  75.0759554   2.0438427  55.3568602
  74.4073629   0.8651269  54.6826220  28.7941861  39.9465656  18.4098005
  28.7659431  39.0809083  18.0022836  28.8786650  39.7677588  19.3463492
  18.4590364  24.9906087   3.7705669  18.5906494  24.4371152   3.0007902
  19.3416166  25.1485205   4.1057506  46.3568258  16.5139103   8.1910366
  45.8988094  15.9642923   7.5551343  45.7101870  16.6748822   8.8781869
   9.3276507  69.1612577  20.9764647   8.5472131  69.3807459  20.4675698
   9.9920708  68.9549398  20.3190374  77.7593660  36.4220238  61.3122559
  77.0863867  36.1273575  61.9258499  77.9640722  35.6460738  60.7905006
  71.2701607   4.5425507  54.1123152  72.1002054   4.1084170  53.9153814
  70.7695007   4.4824746  53.2987070  35.5645943  23.2812595  52.1809530
  36.5045214  23.3761740  52.3350954  35.3456998  22.4274206  52.5541544
  14.4626522  56.8024111  23.1521654  14.7561979  56.9790697  24.0459514
  14.7825873  55.9198856  22.9650187  50.2944279  22.5696707  19.4504142
  49.7479200  23.3477902  19.3404496  51.1871767  22.9101634  19.5077908
  35.9529209   9.2282236  11.2285078  36.6712284   8.8170433  11.7093360
  35.2808309   9.3868190  11.8913603  33.1801343  61.9152594  52.3823309
  32.5203300  61.2896395  52.0831919  32.7632403  62.3720503  53.1129313
  44.8508787  10.2184904  48.5552788  44.0500689  10.0398827  48.0622864
  44.5447254  10.4685545  49.4270372  64.2266989  63.8773298  62.3014832
  63.2843590  63.7645435  62.1769619  64.3639374  63.7302303  63.2373047
  11.1167634  62.8257608  52.5612354  10.7527673  61.9880009  52.2750616
  11.9053733  62.5898886  53.0497980  71.9758368  22.3272991  27.4364948
  71.0812712  22.2508526  27.1046257  72.5247669  22.3056483  26.6526341
  56.6949320   6.3517845  46.8105793  56.8347549   7.1932960  46.3763666
  57.5721025   5.9787846  46.8981552  77.2977924  36.4562917  14.2063677
  76.4343739  36.3353395  14.6014762  77.1252584  36.5134025  13.2665789
  76.3321447  20.7323527  30.6259847  75.7316542  19.9870837  30.6112576
  76.0988665  21.2122345  31.4206696  68.8078880  69.9593163  22.6869607
  68.2307673  70.5018330  22.1495247  69.6773100  70.3406763  22.5648904
  46.9961166  73.5132837  35.1154876  46.2153435  73.7260628  34.6042657
  46.8898106  74.0038729  35.9305024   9.9739236  22.7530718  42.4011612
   9.5088589  22.0666099  41.9229174   9.7052664  22.6343656  43.3121824
  45.9737730   1.8501776  37.0351338  46.6493225   2.5183788  37.1507764
  45.1850986   2.2389646  37.4133754  66.5112257  38.7884688  60.0187635
  66.9702864  39.1136694  59.2443371  65.8515310  39.4567370  60.2043772
  17.9444575  22.6007009  33.8222694  18.4359717  23.1308961  33.1949425
  17.7498901  23.2006240  34.5423150  39.0181255   8.4357750  51.6415310
  39.3773031   8.0870706  50.8256721  39.6927118   8.2559496  52.2963810
  32.7322078  64.4303608  22.0723343  32.4394369  64.8017454  21.2401152
  33.2232308  63.6466932  21.8253565  23.9014888  62.7426195   8.0575442
  23.8668847  63.4618902   8.6881620  23.0027318  62.4157143   8.0175394
  24.1099977  16.3056993   8.9497238  24.9689889  15.8865142   9.0012074
  23.8947868  16.5230083   9.8567480  49.5580387   5.3821379  62.4171543
  49.7631884   4.4544631  62.5336170  50.1393414   5.8345652  63.0284071
   8.2144487  32.6070809  12.1298599   8.6771864  33.1295967  12.7849054
   7.3647338  32.4203753  12.5290561  44.5524025   9.6915555  38.8233662
  45.3464174   9.3178219  39.2055917  43.8387108   9.1844457  39.2103004
  74.0512896  24.4910407  41.2753248  73.2242441  24.3973827  41.7480326
  74.5328808  23.6879826  41.4738131  26.1293697  50.0066423  62.1344805
  26.6003633  50.7483578  61.7546701  25.7739353  49.5369053  61.3800001
  69.2646408  23.2528782  57.8999567  68.3189726  23.1047535  57.9018736
  69.3584538  24.2026663  57.9730177  63.3069897   1.8375212  11.1112630
  62.7839231   2.2342691  10.4146826  63.1577921   0.8967712  11.0166025
   5.9547019  15.7493711  35.0018477   6.0308933  16.1418867  34.1321588
   5.3382707  16.3151169  35.4667926  25.1759887  17.3358107  18.7507677
  24.9490190  17.5909448  19.6449840  24.8558259  16.4374149  18.6694491
  18.3381927  34.3236232  30.5682302  19.1397321  33.9896297  30.1654696
  18.4765565  35.2688193  30.6289983  41.6335678  60.7302427  14.4344521
  41.3508987  60.4731989  13.5568082  41.4136028  59.9797249  14.9863315
  13.2448602  61.1627007  53.0914593  12.5491607  60.5175734  52.9647875
  13.6339390  60.9328127  53.9352655  16.5430832  26.0489416   7.1689850
  16.3048077  25.2734184   6.6610289  17.4959457  26.0010886   7.2464073
  13.0177438  45.3525877  10.3318441  12.2809541  45.6825447   9.8175484
  12.6723564  44.5778513  10.7753801  61.7072868   0.7086368  23.6548090
  60.7608795   0.7837383  23.7768865  62.0341825   1.6019368  23.7615180
  26.0575530   1.4914009  25.8138728  26.7472026   1.7503426  26.4250731
  26.5115020   1.3628504  24.9810243  36.2492514  55.7358170  20.9986281
  36.6800475  56.5446186  20.7220674  35.7768083  55.4381609  20.2211785
  33.1096721  69.0029097   8.4285367  33.9120555  68.7848043   7.9543650
  32.9963422  68.2844162   9.0507525   2.2031130  41.6846561  40.1121712
   2.6055747  41.1244202  39.4485474   2.3502076  41.2222099  40.9372425
  16.6165888  72.0355606   8.9298385  16.8271697  72.5085783   9.7349125
  16.1448455  72.6730919   8.3938849  49.8495483  66.4655066  37.7846909
  50.3630018  67.1507168  38.2125759  49.7768545  66.7536020  36.8747735
  18.7693095  66.1498737   2.8787324  18.2862210  66.6826630   2.2470710
  18.9410114  65.3287411   2.4177654  51.5114975  24.1848373  47.4894094
  50.9450245  24.8170924  47.0471478  51.3687038  23.3642983  47.0176506
  17.7649152  56.6416073  26.1800861  18.0322278  56.2038660  26.9882703
  18.4756255  56.4626074  25.5643892  72.5228310  37.4408007  17.9990196
  72.8677225  36.6665387  17.5542760  71.8019056  37.1085310  18.5338962
  61.5457535  29.9471974   2.8910497  61.8953800  29.9826789   2.0006934
  61.1683416  29.0706897   2.9654092  68.3156770   0.7467911  34.5206881
  68.7793391   1.5718576  34.6639276  67.4081605   0.9377739  34.7576833
   5.4237270   6.5128547  59.1748905   4.5438117   6.7991251  58.9298773
   5.5400288   5.6792790  58.7189770  64.9364948  21.9817829  16.8338752
  64.7551823  21.0427833  16.7934179  64.3144655  22.3182535  17.4789310
  68.6300898  38.4634852  57.6032162  68.1018353  37.6652503  57.6039600
  68.2302666  39.0146613  56.9304752  71.3913393  49.9880314  62.6461172
  72.2517967  49.8157883  63.0284500  71.5815258  50.3306675  61.7728090
  66.6281748   2.9442677  25.6791306  66.9199038   3.1635344  26.5640306
  66.8030357   2.0069736  25.5946517  65.2700329   6.2253547  21.4889979
  64.9645233   6.5806323  22.3236704  65.7974339   6.9276673  21.1084270
  14.0758109  35.9677219   2.3998420  14.9093854  36.0184431   2.8676170
  13.4490538  36.4003539   2.9797015  44.4209528  60.0404644  16.6424549
  44.8026180  59.8382235  15.7882500  44.7836304  60.8965158  16.8702126
   0.4845998   1.6609928  60.2880192   0.1707456   1.0821125  59.5933056
   1.4092920   1.8006679  60.0838900  57.0758629   2.6016140  44.1098642
  56.5560150   2.8723243  44.8666382  56.6453075   3.0169010  43.3626080
   9.6154225   8.8755769  62.7529907   9.0153682   9.5287549  62.3930931
  10.4509795   9.3358040  62.8321552  36.3664722  71.3348293  13.3236647
  35.6666422  70.7216549  13.0989838  36.1341763  71.6543722  14.1955388
  47.4086714   1.4905329  28.4151578  47.6948500   1.1184831  29.2493725
  47.2193670   2.4074686  28.6142182  37.9094560  73.7458196  54.2236710
  37.5239379  73.6300801  55.0921249  38.8364846  73.5398369  54.3437529
   3.5884702  50.1380634  61.9941235   2.8039619  49.7602224  61.5966129
   3.5054877  51.0791445  61.8401241  24.4981551  70.7571650  15.9890354
  25.2525640  70.5182695  16.5275776  24.8128128  70.6800318  15.0883293
  38.6043096  54.8618412  27.2572064  38.1441188  55.2228546  26.4994955
  38.0111623  55.0145769  27.9927897  32.8268337  56.8759251  22.3798418
  32.3045611  56.4131546  21.7246270  33.4845614  57.3497534  21.8708086
   5.0266004  44.0585995  56.3870621   4.8111069  44.6350718  57.1201897
   4.4206691  43.3228159  56.4748049  24.1299129  27.8095198  17.6629186
  24.0746975  28.6110735  17.1426332  24.6634960  27.2167206  17.1336663
  42.9154539  11.1219251  62.5690365  42.6851845  10.2999854  62.1358824
  42.0742798  11.5070999  62.8145981  51.6386747  67.4942446   3.4875962
  52.4046087  67.0639753   3.1075391  51.0393143  67.6112223   2.7504951
  33.4678006  72.7488756  21.1605620  33.7252283  72.9666948  20.2647281
  33.4523392  71.7919827  21.1793685  66.0041618  43.7167597  61.8387318
  66.4051199  44.0394020  62.6458025  66.4368820  44.2106247  61.1422539
   0.7840677  30.8902144   9.9629813   0.5786940  31.5414310   9.2921829
   1.0500979  30.1141310   9.4698769  46.7653847  71.2620068   1.4654551
  46.2917614  71.4906359   0.6656802  46.2205935  71.6063452   2.1731721
  77.2563827  41.3644266  63.4354019  77.1673721  40.6061697  62.8580379
  77.5952286  41.0032797  64.2545414  44.7336054   7.2323287  26.3136315
  43.9211416   7.7354968  26.2592173  45.4163122   7.8509808  26.0540009
  12.4712658  22.7986598  22.3229408  12.1132612  22.7356434  21.4374495
  13.3253205  23.2150269  22.2069216  14.9840903  44.8525620  60.2999830
  15.6120169  44.6380043  60.9898424  15.4965365  45.3350782  59.6512842
  68.9842224  53.6961937  51.3191175  69.2077494  54.6223116  51.4116859
  69.1521597  53.5002375  50.3973627  24.7933292  54.3921375  28.4642482
  25.4028225  54.0925980  27.7896953  24.4643140  53.5871840  28.8642859
  42.9505679  49.0925418  64.1743186  42.4929199  49.3666779  63.3795610
  42.9278776  49.8631536  64.7416581  48.8297510  31.5862274   2.0408906
  48.3121204  30.9567618   1.5388311  48.7254000  31.3100219   2.9514143
  12.6272869  45.8678865  60.8760214  13.5206771  45.5262947  60.8385897
  12.2390914  45.6155729  60.0382471  25.9617543  38.7949347  17.2404408
  25.3174019  38.8324213  17.9472899  26.5977836  38.1410813  17.5305688
  39.0556479  62.4718237  15.1449895  38.8137794  61.5596199  14.9849236
  40.0112009  62.4601603  15.1998365  16.8403077  57.3473406  61.9738531
  16.2268186  57.7550077  62.5851393  16.4779806  57.5373077  61.1084843
   0.0103206  46.2464285  13.5480917   0.8192041  46.2527323  14.0598524
   0.2663743  46.5875864  12.6911902   8.6387759  49.8251915   2.0629711
   8.3108306  50.5403233   2.6081997   9.0642846  49.2295265   2.6797026
  24.0958667  32.7509117  59.8836040  24.4717288  33.5483384  60.2565289
  24.7028494  32.5035453  59.1860294  62.7531433   6.5977055  41.0956860
  62.1552706   7.3421884  41.0284424  62.2845840   5.9623623  41.6370010
   9.6120542  21.2419248  21.4778733   9.1827476  21.1342549  22.3265982
  10.3903055  20.6871891  21.5310359  46.6468000  57.2511816  12.2672582
  46.5095663  56.7029238  13.0397964  47.5476980  57.5633192  12.3520470
  26.5703750   0.7924828  57.6996422  27.2865415   0.8616349  58.3309555
  26.2788129   1.6947040  57.5684166  63.9994383  20.3014970  48.6345005
  63.8595438  19.6553707  47.9422712  63.1764889  20.7884693  48.6774635
  30.5223966  68.4224939  18.0086613  30.2834225  68.5983181  18.9187217
  29.9159765  68.9555407  17.4945176  71.0178757  64.2923069  53.6307907
  70.4065418  63.6513805  53.9937210  71.8838787  63.9307785  53.8193893
   6.1064839  32.6851416  13.9394832   5.2978110  32.8278899  13.4476459
   6.3867289  33.5626793  14.1995299  46.2862015  44.0586233   1.5478188
  45.4621077  43.6707449   1.8421771  46.3763523  44.8551416   2.0709427
  70.4567814   1.7675757   4.3362173  69.6844625   2.2675851   4.6003047
  71.1966658   2.2786054   4.6643203  19.2576754  40.8474016  63.1987238
  19.2896748  41.1673498  64.1003036  18.3960950  40.4378033  63.1203699
  26.7746496  56.1398935  17.3251379  27.2380662  56.5377378  16.5881193
  26.7969251  55.2004337  17.1430838  44.4715261   8.6580002  12.6846707
  43.6443377   8.5714668  13.1584847  44.5686483   9.5995605  12.5423229
   8.3296257  14.3715203  19.8220754   7.4614477  14.0149903  19.6339679
   8.8664842  14.1000831  19.0775371  67.4498606  24.3719101  53.6196613
  68.2925415  24.7482300  53.3656836  66.8495655  24.6364713  52.9226112
  31.2860656   0.1536658  36.8952227  30.6689763   0.1041641  37.6252794
  30.7606149   0.4648814  36.1581492   5.5536634  67.8673077   8.4159058
   4.7565144  68.0991840   7.9394406   5.2520108  67.6579905   9.2998880
  69.3486118   3.0518803  24.6990204  68.4576178   3.1775701  25.0254536
  69.2470074   2.4762985  23.9409876  33.2892704  71.4561987   2.4584666
  33.5127378  72.3078966   2.8338382  32.3365927  71.4769030   2.3678838
  22.1606636  50.0901127  15.1521099  21.6209960  49.3985653  15.5351996
  21.5885115  50.5136299  14.5121813  15.0709701  14.4112360  63.0221081
  14.9176466  13.6118722  63.5258341  15.5088615  14.1119325  62.2253036
  42.4771786  44.2173815  12.3472393  42.4433565  43.2664490  12.4512315
  42.2018719  44.3693972  11.4431775   7.5562477  60.4671240  46.3252926
   6.8611503  60.8002996  45.7577848   7.1337819  59.7835922  46.8454266
  56.0314131  12.9807329  36.7408776  55.5357742  13.4323788  36.0578036
  56.2826347  12.1471488  36.3430619   5.5364591  21.7200875   7.3324651
   5.9717339  20.9624696   6.9415915   4.6034670  21.5596676   7.1909606
  26.8672323  45.6944561  58.2227468  27.1020579  44.7877455  58.0253553
  26.4777803  46.0228586  57.4123669   4.3431407  73.3725023   8.8437372
   5.1974368  73.1031513   9.1811669   3.7294275  72.7355576   9.2096454
   4.6786857  58.6450243  54.4180870   5.5456996  58.8879728  54.0932894
   4.6475324  59.0001535  55.3064251  23.6361003  68.7706280  45.5205011
  24.3507051  69.2354727  45.0851917  23.1698179  69.4501734  46.0073566
  13.6194193  25.5896330  46.1082411  13.8936818  24.6733499  46.0703278
  12.6819623  25.5513954  46.2978315  35.6385064  20.6745219  35.9202790
  36.2808228  21.2944555  36.2657428  36.1577821  20.0465631  35.4180312
  16.9628751  60.8718586  27.6352787  17.2957277  60.0268126  27.3330569
  17.5452483  61.1151791  28.3549094  14.9459028  12.3785424  14.8315132
  15.0805700  13.1864870  14.3362141  14.9411368  11.6887522  14.1678882
  47.4732542   8.6033183  12.8216088  47.4353504   8.7974113  11.8850601
  46.6428518   8.1657952  13.0093360  29.4882727  39.3522906  21.1201191
  29.7314906  40.2492189  21.3494658  30.3118944  38.9399576  20.8596158
  58.0097335  62.4682872  -0.2030377  58.3196919  63.3673589  -0.0942806
  57.1967357  62.4326102   0.3009411  64.8970556  53.3059692  25.5165815
  64.8945427  52.8484440  26.3573527  64.1178226  53.8612080  25.5437160
  25.8478451  66.4165163  18.4166944  25.6232214  67.0554781  19.0930843
  26.8025541  66.3567591  18.4512496  54.6433735  64.3580055  51.4191961
  54.0112019  65.0212193  51.6962147  54.7076654  64.4697809  50.4707193
  23.1348896  71.7376709  49.7786760  23.0048871  70.7943821  49.8763084
  23.9001226  71.8162966  49.2090511  45.5189753  14.2545223  35.7396460
  44.6344709  14.6069372  35.6412172  45.3927755  13.4056306  36.1635423
   6.2323719  65.7483053  62.9842186   6.3545817  65.1357937  63.7095642
   6.6096652  66.5699816  63.2984352  71.8554497  32.7248454  38.7894511
  71.1463690  33.3182454  38.5418248  71.4144707  31.9880843  39.2124820
  19.5179987  21.6044831  58.4112263  19.6327484  20.8106613  58.9336348
  18.6706245  21.9530463  58.6881590  60.2463150  24.4713807  16.2854457
  60.5607510  23.6560655  15.8947706  59.4517517  24.6812940  15.7946968
  62.8592491  14.1479063  29.3905234  63.3887672  13.8129866  28.6668682
  62.1169901  14.5774877  28.9653850  51.6144674  -0.0938585   7.1896172
  52.5230806   0.1981947   7.1164185  51.1914008   0.5729362   7.7305746
  45.4610205  27.7503037  64.4281578  45.7354259  28.4048009  63.7858438
  45.0975657  27.0371938  63.9031744  32.3786426  62.7807140   7.2690827
  31.6647792  62.8010464   7.9064333  32.3558021  61.8928576   6.9121146
  36.4246297  41.9893837   5.6070280  36.1517215  42.5241470   4.8615193
  35.6095934  41.6229630   5.9500730  62.1322203   9.5743835  15.6155312
  61.5651846  10.1435983  16.1358190  62.0592880   8.7165511  16.0339057
  11.0811698  25.8470416   8.0643988  10.4514730  25.1417756   8.2137764
  10.5495834  26.6428494   8.0460387  14.4435883  17.0101058  32.3437476
  14.3659437  16.0580766  32.2817397  14.9021745  17.2656488  31.5433550
  65.4335403  69.8606634  50.6132603  66.1910868  69.5521784  51.1104393
  65.1048040  70.6061888  51.1156082  53.3186388  41.5385008  11.7496574
  53.5497713  40.6127262  11.8254948  53.0199814  41.6375256  10.8456492
  24.4735599   6.4312792   2.5250977  25.4072165   6.2972444   2.6880431
  24.4442010   7.0300269   1.7788598  67.2085047  25.6799030  63.0588531
  67.8019238  25.1840234  63.6229324  66.6021013  26.1057949  63.6647606
  64.5392132  39.2857313   6.4946789  65.3650093  38.8048792   6.4392614
  64.0379429  38.9891982   5.7350534  39.8964906  60.5341911   1.9255312
  39.1474175  61.1298275   1.9071102  39.5733118  59.7569561   2.3812625
   0.3124386   3.6420146  30.4958320  -0.5869702   3.9043531  30.2996826
   0.7718431   3.7178287  29.6595120  43.3183432  33.5953712   2.1574335
  42.6347637  32.9279065   2.0987721  44.1125774  33.1515837   1.8599932
  26.1974573  56.9980621  26.5622830  26.7245221  57.6874638  26.1583495
  25.8505392  57.3979855  27.3597407  40.4201126  40.4512310   1.5188152
  40.2333403  39.6460509   2.0015453  40.0669575  41.1488771   2.0709085
  33.7371516  17.8243160   8.8753569  33.8836741  18.7621367   8.9988637
  34.5516181  17.4142683   9.1664475  60.3990936  19.6070242  49.6545315
  60.8617496  19.2339563  50.4048634  59.4835663  19.6432900  49.9315310
  55.1025200   9.2706203   7.2647560  55.9514618   9.0334916   6.8915194
  55.3176737   9.8098820   8.0257678  36.0010004  60.2032137  23.7408066
  36.1066771  60.7312155  24.5321822  35.5578804  59.4092655  24.0400004
  37.0962286  44.6607018   0.6439599  37.4180889  43.8934612   0.1706992
  36.3980126  45.0087214   0.0893347
  78.7504764  78.7504764  78.7504764 109.4712190 109.4712190 109.4712190
