
45137  0.0000000e+00
  43.6189461  66.2453747  58.9085531  42.7398205  66.6646194  58.6411953
  43.9666080  65.5177593  58.3004332  44.2112255  67.0558119  58.7967634
  43.5423470  65.7977295  60.3152323  43.7293148  66.6258287  60.9988928
  42.1350431  65.3909111  60.6977034  42.1790743  64.8244333  61.6279078
  41.0657787  66.4198637  60.8215094  40.2526331  65.8460903  61.2661266
  41.2602139  67.3723316  61.3145542  40.7162189  66.6295481  59.8106003
  41.6757774  64.3619871  59.7542000  40.7505226  64.2244196  59.9700499
  44.5179319  64.6410894  60.5365801  44.8867130  63.9322567  59.5874310
  44.9681187  64.3785477  61.7575073  44.7149658  64.9561882  62.5463963
  45.7630730  63.2155180  62.1641493  46.7493725  63.2860613  61.7055178
  46.1101961  63.2214069  63.7172031  45.2630568  62.8715467  64.3071651
  46.8523645  62.4602175  63.9577579  46.6130829  64.5465088  64.2572498
  45.9981871  65.2578831  64.9917412  47.8500891  64.9152899  64.0071583
  48.1261539  65.8144140  64.3752193  48.5297775  64.3381834  63.5327387
  45.2534819  61.8404245  61.7712831  46.0628414  60.9977198  61.4116526
  43.8583136  61.6651773  61.8558407  43.2723856  62.3908281  62.2434187
  43.0950165  60.4172039  61.4928675  43.5354662  59.6117306  62.0805025
  41.5878201  60.6987858  61.7621183  41.3010550  61.5752172  61.1809731
  41.0427094  59.8383999  61.3739300  41.2811995  60.8980513  63.2692099
  40.2108908  60.6929064  63.2904816  41.8811512  60.1781702  63.8259172
  41.3941288  62.3885918  63.5757017  40.4868460  63.1131983  63.2469940
  42.3893309  62.8940916  64.2328501  42.2438097  63.8887358  64.3308687
  43.0851793  62.4616051  64.8234844  43.4065294  60.1394939  60.0130987
  43.9878273  59.1144228  59.6919203  43.2133389  61.1552095  59.1515779
  42.9309225  62.0891666  59.4124746  43.5808802  60.9730530  57.7536726
  43.1430244  60.0640678  57.3411989  43.0677795  62.1113634  56.9105530
  43.6312485  62.9764938  57.2600508  43.3992815  61.8902969  55.8959913
  41.6197538  62.3633909  56.6590595  41.0500908  62.2685623  57.5834990
  41.3908625  63.6532593  55.9383440  42.1332455  63.7654161  55.1481581
  40.4001331  63.8266659  55.5182362  41.4984703  64.4406509  56.6843605
  41.0550213  61.2861061  55.7523870  41.2605715  60.2893686  56.1427307
  39.9778175  61.4042282  55.6350088  41.4916229  61.3907528  54.7591448
  45.1074457  60.6768847  57.6178026  45.4723692  59.8783112  56.7780495
  45.9688234  61.4393616  58.3015108  45.6387091  62.2455406  58.8125849
  47.4377441  61.3570738  58.0995321  47.7476215  61.2466002  57.0603657
  48.1364965  62.6328611  58.6911964  47.9147005  62.6159668  59.7582579
  49.1916943  62.3841810  58.5779905  47.7809525  63.9455175  58.1217003
  48.0299950  63.8286352  57.0669889  46.7216110  64.2015696  58.1035137
  48.6053228  65.1317692  58.6225414  49.4355917  65.0834799  59.5682955
  48.4158421  66.3587761  58.0694532  49.1031408  67.0865250  58.2040071
  47.6538992  66.4682865  57.4155712  47.9534101  60.0175381  58.5334253
  48.5790396  59.2893648  57.7242231  47.5496006  59.5049858  59.6822453
  46.9818974  60.1104593  60.2577543  47.7701616  58.1193018  60.1373148
  48.8151217  57.8269720  60.2407598  47.1834755  57.9904413  61.5407038
  47.7045345  58.6995602  62.1839380  46.1137342  58.1991148  61.5264082
  47.4507427  56.6578865  62.2457933  48.5963249  56.4432192  63.0299187
  49.2722559  57.2449541  63.2882452  48.7719822  55.2421331  63.7011242
  49.7163343  55.1322746  64.2135000  47.8320217  54.1745758  63.6100960
  48.1343746  53.0329657  64.2372274  49.0581226  53.0029964  64.4968557
  46.6520166  54.3812990  62.8941250  45.9589291  53.5595942  62.7900171
  46.5017986  55.6251764  62.2153568  45.5393219  55.8129406  61.7628336
  47.1612835  57.0903111  59.1284847  47.7906418  56.1264515  58.7077379
  45.8994913  57.2696638  58.7342691  45.4393244  58.1260920  59.0079212
  45.2847767  56.3208342  57.7282286  45.1754570  55.3426075  58.1964445
  43.7955666  56.8386984  57.4358749  43.1909895  56.6666269  58.3263731
  43.8161278  57.9160833  57.2718191  43.1041670  56.0171032  56.3899279
  42.4069071  56.5671873  55.7579994  43.8306713  55.7095146  55.6378126
  42.2719860  54.6037722  57.1101427  40.7181978  55.3878975  57.8184700
  39.9814272  55.5964327  57.0427275  40.2878571  54.7147274  58.5599279
  40.8155918  56.3425732  58.3354044  46.1264133  56.1195993  56.4328480
  46.3132620  54.9700642  55.9218550  46.6790676  57.1753120  55.8556461
  46.5411854  58.1326818  56.1463928  47.5797272  57.0609045  54.6838188
  47.1667910  56.2128448  54.1375780  47.5390291  58.3808231  53.8399553
  46.5653086  58.4448719  53.3542919  47.7137661  59.1968536  54.5411396
  48.5190153  58.3444977  52.6143932  48.6602068  59.3793058  52.3024082
  49.4941568  57.9271698  52.8654671  47.9875612  57.5882292  51.4188814
  47.4166775  56.4876699  51.5518379  48.1362009  58.2578325  50.2537584
  47.7796412  57.9432058  49.3627071  48.4513474  59.2160606  50.3046560
  49.0531063  56.6815329  55.0667095  49.6055412  55.8442926  54.3519831
  49.6164322  57.3180151  56.1076403  49.1089010  57.9238081  56.7365503
  51.0615253  57.2819996  56.3627291  51.7085981  57.3152971  55.4862118
  51.5315866  58.4494925  57.2525787  50.9772158  58.4624577  58.1909800
  52.5671816  58.3450127  57.5762033  51.4316988  59.8300743  56.5502405
  51.1497021  59.8495913  55.3838778  51.7238903  60.9467983  57.1759129
  51.6292429  61.7561436  56.5791655  51.9634008  60.8789349  58.1547546
  51.4079952  55.8778143  57.0539665  52.5453568  55.4630232  56.9907761
  50.4818630  55.2518368  57.7529764  49.5791149  55.6958199  57.8425694
  50.5561352  54.0264988  58.5971880  51.5470839  53.6134243  58.4088039
  50.2761364  54.3939590  60.0970793  49.2955494  54.8632812  60.1763821
  50.3648901  53.1525183  60.9685993  50.0859118  53.4997463  61.9634390
  49.6486807  52.3688889  60.7214832  51.3913774  52.7858925  60.9718609
  51.2499905  55.4169607  60.5307150  51.1280632  55.6855536  61.5800476
  52.2685862  55.0554800  60.3896475  51.1909914  56.3435650  59.9597263
  49.6223497  52.8966188  58.0557871  50.0711203  51.8660307  57.6387930
  48.2914925  53.0338049  58.0149698  47.9627895  53.9288235  58.3481359
  47.3302698  51.9439602  57.8498316  47.7392197  51.1648083  58.4930944
  45.9037590  52.2216129  58.3656454  45.3907633  52.9030657  57.6869965
  44.9699545  51.0731316  58.4735346  43.9281511  51.2464857  58.7431574
  44.9516964  50.6353045  57.4754953  45.3056240  50.4278374  59.2853355
  46.0317945  53.0017662  59.7487354  46.7059851  52.5805521  60.4944944
  46.4334774  53.9843130  59.5010376  45.0673771  53.2810926  60.1729631
  47.3151302  51.4878321  56.3561440  47.4723291  50.2786493  56.1141729
  47.1813679  52.3864603  55.3909445  47.0871019  53.3704472  55.5982780
  46.9688272  51.9257164  54.0175962  46.3402224  51.0361099  53.9780855
  46.3890457  53.0036688  53.0819273  47.0899963  53.8376713  53.0471039
  46.4162254  52.4464655  51.6274929  45.8945608  53.1448984  50.9731531
  47.4196291  52.3497343  51.2128544  45.9249353  51.4752197  51.5690041
  44.9551964  53.4036732  53.4595394  44.2137766  52.6181507  53.3134222
  44.8692036  53.6145353  54.5254850  44.6614361  54.3737984  53.0587149
  48.3186197  51.4212132  53.4706783  48.3429575  50.4043341  52.7125025
  49.4063854  51.8892717  54.0283251  49.2410755  52.6660633  54.6523190
  50.7275915  51.3150072  53.8652992  50.8955812  51.1604595  52.7994680
  51.7093229  52.3377466  54.3428278  51.3437223  53.3587599  54.4522381
  51.9515419  52.1696615  55.3921986  53.0191278  52.4055004  53.4727192
  53.4971714  51.4290953  53.3939266  52.8369379  52.7451992  52.4531555
  54.0204382  53.3726406  53.9834833  53.5165501  54.3376446  54.0379763
  54.2531252  52.9774332  54.9723005  55.2495337  53.4967327  53.1146622
  55.9552956  54.1021585  53.6833906  55.6737757  52.5165749  52.8969240
  55.0228930  54.1917086  51.7891455  54.9946356  55.2008629  51.8194866
  55.6223297  53.8631439  51.0456276  54.0809679  54.1427565  51.4279318
  50.8591604  49.9484968  54.4697475  51.2370586  48.9691353  53.7929964
  50.4030752  49.8371410  55.7414722  50.1899910  50.6987429  56.2234879
  50.3729057  48.5570097  56.4404011  51.3921833  48.1725693  56.4775372
  49.9423361  48.8338327  57.8759146  48.9649963  49.3158579  57.8523970
  49.6812963  47.5015831  58.6668110  49.9059868  47.5113583  59.7333574
  48.6041117  47.3465872  58.6056280  50.2286482  46.6715860  58.2200289
  50.8361483  49.5050430  58.7065268  50.9845686  50.3452301  58.2664633
  49.6201181  47.4510527  55.7392740  50.0821352  46.3529158  55.4803848
  48.3549166  47.7924681  55.3252220  48.0027103  48.7159729  55.5330324
  47.5033712  46.8984032  54.4578981  47.5468206  45.9206915  54.9377918
  46.1434269  47.4644899  54.2484236  46.2485933  48.4418011  53.7773561
  45.6375360  46.8799782  53.4799719  45.2993727  47.6436853  55.5261993
  46.0150671  48.0010939  56.2665653  44.1971684  48.6712980  55.3495455
  44.5175219  49.6703196  55.0538492  43.5267878  48.4317255  54.5241404
  43.6628723  48.7099266  56.2988281  44.6490383  46.3008070  55.7892323
  43.9463615  46.4614248  56.6068792  44.1317558  45.9334230  54.9029207
  45.3861237  45.5173922  55.9654760  48.1855249  46.5795088  53.0894852
  48.2059574  45.4381990  52.7098846  48.7025261  47.5098133  52.3052835
  48.5592794  48.4801340  52.5462389  49.4438791  47.1127748  50.9842110
  48.8006496  46.5559244  50.3028250  49.8709154  48.4599972  50.2236176
  49.1342688  49.2021704  50.5312443  50.7340956  48.7686300  50.8133268
  50.0001049  48.4592104  48.7386560  50.9953356  47.8823090  47.9888535
  51.7850924  47.2408581  48.3511114  50.8137035  48.1910896  46.6515112
  51.3371134  47.7060366  45.9367609  49.7325563  49.0266132  46.3957930
  49.1809320  49.5887184  45.3053856  49.6931267  49.5504284  44.3553352
  48.0677891  50.4124832  45.4756069  47.6547003  50.9889698  44.6611023
  47.4709940  50.5543375  46.7539072  46.6333437  51.2221336  46.8909931
  47.9647970  49.8934174  47.8786135  47.5615406  50.0902319  48.8609838
  49.1587114  49.1772795  47.7372646  50.7102966  46.1908722  51.0402155
  50.9641981  45.4009151  50.1174212  51.4471388  46.1892843  52.1294117
  51.1172152  46.8927145  52.7747345  52.6082325  45.3045797  52.5495768
  53.2555008  45.3728247  51.6752243  53.3501959  45.8667469  53.7311220
  53.2595301  46.9418955  53.5764217  52.7986240  45.5810595  54.6268082
  54.8294401  45.3987169  53.8716507  54.7560787  44.3230534  54.0318775
  55.3759241  45.5547714  52.9415417  55.6140709  45.8561468  55.0523806
  56.6538048  45.5822849  54.8733377  55.5820179  46.9441605  55.1098013
  55.1917267  45.3966093  56.4652014  55.4334354  46.2496662  57.0992088
  54.1181612  45.2455044  56.5780020  55.8249187  44.1801119  56.8487740
  55.8648777  43.4496689  56.1523867  56.7870522  44.4066286  57.0563602
  55.4541969  43.7778997  57.6978254  52.2052479  43.8242626  52.8717613
  53.0582762  42.9075480  52.8407621  50.9658384  43.5609388  53.2813358
  50.3311968  44.3393230  53.1743288  50.3911114  42.2061110  53.4961748
  50.9491301  41.7323303  54.3037939  49.0019608  42.4490166  54.0935946
  49.0264177  43.3213139  54.7467375  48.3075237  42.7408791  53.3057594
  48.4766054  41.2034607  54.7070646  47.9860449  40.0732565  54.0891981
  47.9470158  39.1564012  55.0868225  47.7338505  38.1021810  54.9889565
  48.2400036  39.6757817  56.2450886  48.2716227  39.2390609  57.1552372
  48.6555576  40.9620905  56.0625696  49.0408087  41.6283131  56.8202829
  50.4554081  41.1695242  52.3320675  50.3158903  41.5001917  51.1344004
  50.7336712  39.9333024  52.7130270  51.2015057  39.7646856  53.5921192
  50.6235313  38.7383962  51.8539047  51.5112686  38.7135267  51.2219238
  50.6278801  37.4959707  52.7734327  50.0400019  37.6567507  53.6771202
  50.1618147  36.6585755  52.2541428  52.0244360  37.0923591  53.2596827
  52.1208096  36.1189604  53.7406254  52.7281523  37.0356870  52.4292135
  52.6180649  38.0187607  54.3519735  51.8553829  38.6746192  55.0666857
  53.9493704  38.0936313  54.4583559  54.4056559  38.6855316  55.1377344
  54.5125151  37.6585197  53.7416649  49.4321680  38.5949779  50.9232283
  49.5001793  38.1361628  49.7987175  48.2671928  38.9689660  51.4834213
  48.2580328  39.3857694  52.4033642  46.9728184  38.8520837  50.7283831
  47.1130848  38.0195904  50.0389051  45.8364105  38.5149860  51.7425489
  45.7977057  39.3268800  52.4687958  44.8723793  38.5090852  51.2339211
  46.0737371  37.2605681  52.5455379  45.5404091  37.2607946  53.9144516
  44.8625374  38.0543113  54.1923428  45.7908630  36.2083244  54.8262787
  45.3400850  36.1611891  55.8065748  46.6498756  35.1835465  54.3455219
  46.7925262  34.3909955  55.0651836  47.2094440  35.1722121  53.0558825
  47.9134655  34.4019914  52.7774668  46.9650793  36.2410855  52.1548700
  47.3101568  36.2114310  51.1319113  46.5884352  40.0811577  49.9257326
  45.5438471  39.9691296  49.2899370  47.3965836  41.1344910  49.9888039
  48.0670309  41.2576866  50.7340717  47.0637465  42.3990631  49.2828512
  46.0663652  42.6853561  49.6165657  47.8830433  43.5901022  49.7669363
  47.9261446  43.5753012  50.8559847  48.9136314  43.6316252  49.4144154
  47.3668766  44.5437431  49.6563005  46.7936420  42.3232460  47.7484703
  46.3765860  43.3333921  47.1573544  47.2047997  41.2268162  47.1080971
  47.6342010  40.4576254  47.6021242  47.2773600  41.1003017  45.6119442
  47.8969193  41.9131947  45.2331781  48.0972624  39.8178911  45.1885509
  48.3738995  39.9241257  44.1396046  48.9707947  39.6819782  45.8261728
  47.2650194  38.5542679  45.2568007  47.2754383  37.7759671  46.3357306
  47.8931475  37.9437423  47.2056103  46.4310217  36.7525387  46.2303543
  46.4114666  36.0493326  46.9550753  45.8239794  36.7566609  44.9584436
  45.1152039  35.7924700  44.2255545  44.8442841  34.8719192  44.7211266
  44.7746372  36.0970879  42.9331446  44.1755199  35.3627896  42.4151993
  45.2385426  37.2441363  42.3387861  45.0288296  37.4312878  41.2960052
  46.0739708  38.1764150  42.9899788  46.4086056  39.0500283  42.4503326
  46.4476442  37.8935528  44.3197203  45.9449816  41.3308382  44.8426342
  46.0758400  41.6945267  43.6647701  44.7264338  41.1156702  45.3165245
  44.4058561  40.2469873  46.4636469  44.0734720  40.8282328  47.3237514
  45.2111006  39.5487309  46.6919470  43.2593393  39.3729091  45.8826685
  42.7209949  38.9975739  46.7529678  43.7083769  38.6226463  45.2318478
  42.3945332  40.4317331  45.0810814  41.6371918  40.8534908  45.7418871
  41.9241190  39.9357700  44.2320633  43.4997845  41.3943005  44.5440102
  43.7414408  41.2190914  43.4956741  43.0316973  42.8752470  44.5938158
  42.2242546  43.2157040  43.6945534  43.4610987  43.6215782  45.5786800
  44.2613411  43.3154440  46.1134672  42.9648066  44.9151134  45.9373951
  41.9156742  44.9839640  45.6498575  42.8724718  44.9557829  47.4344921
  43.8451099  44.9154663  47.9248476  42.3849058  45.8629179  47.7915478
  42.0366192  43.7795115  48.0012989  40.6332588  43.6576843  47.7864170
  40.2118492  44.5231295  47.2966957  39.9276781  42.5262547  48.2818174
  38.8600779  42.4011326  48.1770277  40.6240845  41.4961290  48.9559269
  40.0815058  40.6628227  49.3773699  42.0721149  41.4906693  48.9904737
  42.6693296  40.7569742  49.5114565  42.7791834  42.6621580  48.4848499
  43.8482904  42.8151369  48.4883690  43.6245918  46.1766481  45.3491306
  43.1143951  47.2816753  45.5481958  44.8263359  46.0575485  44.7465658
  45.2996778  45.1757669  44.8826122  45.6059122  47.0580339  43.9806461
  45.9417343  47.9292679  44.5430279  46.9648314  46.4694595  43.4843588
  46.7611742  45.6456947  42.8002310  47.4343586  47.2992229  42.9560184
  47.8230238  45.8159018  44.5343161  47.7508402  46.2906408  45.8426905
  47.1880388  47.1466446  46.1846304  48.5149240  45.6765270  46.8825531
  48.5264540  46.1903763  47.8324080  49.4742632  44.6070242  46.5524149
  50.4828453  44.2371845  47.3790598  50.5181265  44.8360348  48.1285524
  49.5353556  44.1702938  45.2065182  50.1970768  43.3513260  44.9660492
  48.7770844  44.8277617  44.2006683  49.0316725  44.6140289  43.1730986
  44.8637056  47.7060270  42.7747726  45.0178480  48.8894892  42.5093412
  43.9288712  46.9063997  42.1579838  43.7279320  45.9805727  42.5080776
  43.1796598  47.1762323  40.9108829  43.3226204  48.2293272  40.6686974
  43.8363552  46.3331556  39.8209453  44.0236187  45.3494596  40.2514982
  43.1282377  46.2405968  38.9974761  45.1975489  46.7489004  39.2293429
  45.8968687  46.4481974  40.0094891  45.4298210  46.1891460  38.3233523
  45.4074049  48.2225704  38.8351941  44.5685863  49.0626431  38.8633180
  46.6299677  48.6056376  38.4889197  46.9149733  49.5623350  38.6425710
  47.4151993  47.9711246  38.4588861  41.6810894  46.7574835  41.0668802
  41.3158512  45.9576464  41.8783617  40.8241129  47.3275423  40.1464415
  41.2006235  48.3482838  39.0938759  41.8442535  47.9126835  38.3296132
  41.7179585  49.1723728  39.5851398  39.8742914  48.7951279  38.4198952
  39.8802495  48.2686377  37.4655008  39.7135854  49.8648071  38.2854962
  38.8071799  48.2785892  39.3757463  37.8586197  48.0332804  38.8980865
  38.6204886  49.0778875  40.0929451  39.4364071  47.0161676  40.0018215
  38.9650488  46.9383717  40.9815550  39.2942858  45.7232809  39.1321468
  40.1557016  45.3645515  38.2817149  38.2469273  44.9034548  39.4722724
  37.6945448  45.2150917  40.2583122  38.0647063  43.5585117  39.0723348
  38.9106488  43.0028248  39.4769287  36.7474341  43.1859636  39.7133851
  35.9156442  43.8348436  39.4391656  36.3794112  41.7566490  39.2817760
  36.1567450  41.7068911  38.2159233  37.2508812  41.1370230  39.4932103
  35.4410458  41.3882685  39.6963358  36.9166183  43.0649281  41.2317276
  37.0474100  44.0399981  41.7010069  36.0376787  42.6601744  41.7334747
  37.8389573  42.5250864  41.4461231  38.0263329  43.3819294  37.5391388
  37.4048328  44.2190027  36.8656301  38.6192179  42.3446989  36.9894361
  39.0403771  41.6568756  37.5974035  38.6622691  42.0783997  35.5200458
  38.6433911  43.0646133  35.0562358  40.0565958  41.5619230  35.0767016
  40.2041149  40.5439377  35.4373193  40.1232958  41.5668058  33.9887547
  41.1530733  42.3883104  35.6270099  41.4412594  43.4365606  35.0785661
  41.8034983  42.0164013  36.6196012  37.4051666  41.2245417  35.1022172
  37.5080371  40.0906944  34.6501780  36.2258744  41.8133068  35.2029181
  36.2019300  42.8148603  35.3310800  34.9463129  41.1721325  34.9803615
  34.9255228  40.3763247  35.7249117  33.7828660  42.1640730  35.1559854
  33.8235569  42.4921846  36.1946344  33.8586950  43.0464077  34.5205092
  32.8813839  41.5661478  35.0221372  34.6924591  40.6156778  33.5585046
  34.1977715  39.4870925  33.3660841  35.2164793  41.3839054  32.5380349
  35.7457423  42.2310638  32.6873875  35.3406525  40.7544947  31.2070465
  34.3405437  40.4830694  30.8690929  35.8174777  41.8111086  30.1505065
  36.8005157  42.0755243  30.5401444  36.2347174  41.3289881  28.7175655
  36.9607663  40.5173111  28.7637830  35.3702712  40.9740925  28.1564212
  36.7292094  42.1773386  28.2444048  34.8479414  43.0900764  30.0466013
  34.0366864  42.7326202  29.4124150  34.4068980  43.3747292  31.0018778
  35.4739141  44.3588829  29.4745350  35.3884244  44.2789125  28.3908391
  34.8316145  45.2105236  29.6987414  36.4980388  44.6315241  29.7293639
  36.3185692  39.5038652  31.3120317  35.8842349  38.4546018  30.9771657
  37.5729394  39.6924305  31.7542267  37.6671457  40.4544878  32.4103498
  38.6342168  38.6129832  31.6104674  38.5085011  38.1161642  30.6484556
  40.0245810  39.1660523  31.9273448  40.0433111  39.5398474  32.9510760
  40.7133865  38.3303642  31.8037200  40.4163504  40.1997232  30.8719087
  40.2282572  39.7531462  29.8955441  39.7887349  41.0697508  31.0649085
  41.8528080  40.6345081  30.8007693  42.0779848  40.9414244  31.8221402
  42.3845625  39.7165942  30.5502343  42.2541857  41.8234634  29.8645616
  43.3249331  41.9898605  29.9825001  42.0510292  41.5315056  28.8342285
  41.4520121  43.0837631  30.1938033  40.4521608  42.9509354  30.2464175
  41.5907288  43.4508801  31.1244392  41.5928078  43.6783934  29.3896317
  38.2771349  37.2934175  32.4500299  38.3887434  36.1838341  31.9071412
  37.7969241  37.5092578  33.6974812  37.7316213  38.4585333  34.0361714
  37.2579861  36.4679599  34.5717072  38.0013299  35.6721854  34.5238209
  37.1296072  37.0484853  36.0306787  36.4572096  37.9050875  35.9836316
  36.7983460  36.2403083  36.6827679  38.4182358  37.6610088  36.6964054
  39.0019155  38.2042122  35.9532046  38.0837703  38.5089612  37.8935671
  37.4628377  37.9183292  38.5671377  38.9975381  38.8536859  38.3776069
  37.5967765  39.4335485  37.5836015  39.4367075  36.6060877  37.0742750
  40.2335548  37.0725822  37.6535106  39.0358305  35.8404708  37.7385283
  39.7956920  36.0924935  36.1823940  35.9328580  35.9255838  34.0925026
  35.4529905  34.8459506  34.5259404  35.2916551  36.5813923  33.1716609
  35.6798363  37.4678898  32.8826308  33.9310789  36.2957525  32.6674175
  33.6259675  37.1437597  32.0543170  34.0266418  35.1204181  31.7352128
  34.7795868  35.2657723  30.9605861  34.2452240  34.2645478  32.3738146
  32.8341413  34.9263287  30.8569837  32.0426106  35.8650827  30.6850052
  32.7342200  33.7305069  30.4202700  31.8404579  33.4500718  30.0425816
  33.4191632  33.0568361  30.7319117  32.9336119  36.1043382  33.7626982
  32.2593069  35.0833511  33.8150787  32.7621460  37.1088910  34.6075130
  33.1440973  38.0187511  34.3921876  31.8606567  37.0474243  35.7326365
  31.9206834  36.0301208  36.1194110  32.1532726  38.0368662  36.8703151
  32.0385695  39.0589619  36.5093970  31.4851713  37.9435301  37.7264929
  33.5916376  37.9188514  37.3948193  34.2962027  38.1151104  36.5866280
  33.8132191  39.1041064  38.2851291  33.1015325  39.1146564  39.1106510
  34.8387456  39.1096354  38.6544061  33.8215947  40.0991106  37.8401613
  33.9541650  36.6522431  38.1734538  34.9592042  36.6824675  38.5942626
  33.2318377  36.3882041  38.9458728  33.9402628  35.9033799  37.3815513
  30.4269385  37.2670984  35.1831198  30.2961278  38.1651020  34.3326092
  29.3371820  36.5900135  35.5551267  29.1898394  35.4728794  36.4691234
  29.2288804  35.8236718  37.5003934  30.0650620  34.8667264  36.2352920
  27.9904318  34.7040629  36.0652018  27.3928928  34.2042565  36.8275928
  28.2203412  33.9238143  35.3396320  27.0899463  35.7106471  35.2833891
  26.2389803  36.0303593  35.8848405  26.6807342  35.3367805  34.3448424
  28.0525160  36.7915225  34.8537517  28.3226180  36.5699005  33.8212633
  27.2735429  38.1481552  34.8057365  26.6439724  38.4182668  33.7829518
  27.2441173  38.8766980  35.9083390  27.7174473  38.4964681  36.7154837
  26.2826061  39.9611330  36.1794972  26.2097764  40.4788589  35.2230668
  24.9368620  39.3193507  36.5014625  24.2101407  40.1308632  36.4637566
  24.5871329  38.6980295  35.6769896  24.8828793  38.5140824  37.8574848
  25.8353472  38.3319116  38.6197567  23.7513137  37.9488802  38.1227756
  26.7992568  40.9325361  37.2589445  26.0683107  41.6027546  37.9522586
  28.1674790  40.9457636  37.4470258  28.7565088  40.6522512  36.6808653
  28.8539290  41.6107559  38.5834169  28.7329006  41.1438465  39.5608854
  30.3818893  41.5914869  38.2462525  30.6801891  40.5487061  38.1379819
  30.4563856  41.9898748  37.2344041  31.3989854  42.2375679  39.2051864
  31.4455414  41.8392420  40.4980373  30.9364247  40.9388351  40.8086252
  32.3042941  42.4825048  41.4050817  32.3808360  42.1160936  42.4181414
  33.0939269  43.5601950  41.0179186  33.8740635  44.1473675  42.0130539
  34.5688677  44.7227859  41.6848087  33.0741239  43.9355755  39.6596718
  33.6402535  44.7655630  39.2634082  32.2447371  43.2627296  38.6989594
  32.1043062  43.5559654  37.6690578  28.4312367  43.0562067  38.8976765
  28.0256915  43.3347321  40.0327730  28.5391378  44.0664196  37.9705667
  29.0168023  44.0012932  37.0830441  27.9912972  45.4007006  38.2717371
  28.5026693  45.7870340  39.1534066  28.2709217  46.3556862  37.0849156
  29.3028760  46.2879515  36.7405558  27.6593924  46.1840773  36.1990929
  28.0718827  47.8450632  37.3593926  27.8519917  48.7855959  36.3303590
  27.5464535  49.9024391  37.0022273  27.3682475  50.8815289  36.5826631
  27.5350976  49.7036982  38.3316278  27.3700881  50.3975153  39.0468097
  27.9389381  48.3969021  38.5438561  27.9709506  47.9067516  39.5056915
  26.4486980  45.4253817  38.6216092  26.0156870  46.2827778  39.4262028
  25.6474829  44.4682074  38.0494857  26.0339355  43.8774395  37.3271632
  24.2011952  44.3628740  38.4499741  23.7631273  45.3566933  38.3576512
  23.4253812  43.4810543  37.4564266  23.5995579  42.4385643  37.7228451
  22.3480940  43.6260462  37.5372314  23.6715484  43.8202477  36.0064268
  23.4012413  44.8706436  35.8982182  24.7239804  43.7608719  35.7290173
  22.9591417  42.8581333  35.0159335  23.3174181  41.8645048  35.2850819
  21.8724251  42.9161406  35.0774431  23.4194708  43.2468843  33.6535120
  23.4671497  44.3328094  33.5722995  24.4682455  42.9501867  33.6417842
  22.6361632  42.6141739  32.5608134  21.7077184  42.9940128  32.4432850
  23.0543160  42.7058935  31.6460228  22.5621319  41.6191435  32.7174473
  23.9155626  43.9662790  39.8771787  22.7793574  44.1576529  40.3282213
  24.8742843  43.4719133  40.6588650  25.7944441  43.3572006  40.2585459
  24.7683549  43.1894064  42.1196795  23.8208818  43.5006428  42.5596046
  24.9872422  41.6802359  42.4511051  26.0627747  41.5521526  42.5732756
  24.2983675  41.4418030  43.8817263  24.7616863  42.2401190  44.4614935
  23.2527137  41.7018604  43.7171364  24.4960356  40.4649305  44.3230295
  24.5446324  40.6909704  41.4089680  25.1210213  40.8117676  40.4917526
  24.8893332  39.7443295  41.8250799  23.0385661  40.5934811  41.0745239
  22.6488376  41.5419769  40.7049704  22.9182005  39.7182727  40.4360628
  22.5318575  40.1998043  41.9556379  25.7792854  44.0524578  42.8436327
  25.3318906  44.7119522  43.8033104  27.0369172  44.1104555  42.4475622
  27.3338914  43.5533810  41.6591597  28.0710840  44.9966860  42.8956366
  27.8709531  45.1476002  43.9564323  29.4719720  44.3079042  42.7036858
  29.7291350  44.2771387  41.6449022  30.5482149  45.2708244  43.2804632
  31.4120626  44.6902990  43.6042929  30.8538723  46.0913181  42.6312637
  30.1702738  45.6256676  44.2392921  29.3814540  42.9164219  43.3172369
  28.8427258  42.2271013  42.6670742  30.3954005  42.5269794  43.4085894
  28.6975527  42.8066683  44.7315121  29.1030931  41.9290352  45.2348995
  28.8893700  43.6303473  45.4191637  27.6137614  42.7760601  44.6194649
  27.9353952  46.3516045  42.2120047  28.6798501  46.7369795  41.3258982
  26.9621706  47.0981312  42.7109289  26.5496039  46.8108702  43.5869265
  26.5913510  48.3667707  42.0604801  26.6763711  48.2628870  40.9787750
  25.2227402  48.7101269  42.5453997  25.1524782  48.8092375  43.6286116
  25.1121521  49.7386456  42.2018528  24.1730762  47.8535652  41.9624233
  24.3525767  47.9625225  40.8928394  24.3202162  46.8040419  42.2172976
  22.7540803  48.4754515  42.3114491  22.5421786  48.5709763  43.3763742
  22.7056050  49.4637871  41.8543339  21.6779757  47.6437378  41.6229677
  22.0151949  47.3727465  40.6224966  21.6506362  46.6284323  42.0185757
  20.3564668  48.3183432  41.5675449  19.8093414  48.1375599  42.3970461
  20.2868843  49.3152142  41.4209032  19.7980344  47.9734802  40.7998705
  27.6115608  49.5066833  42.3918724  27.6855063  50.5915213  41.8344164
  28.2217932  49.3846416  43.5897636  28.0342197  48.4848118  44.0083790
  29.1263866  50.3112221  44.2409563  29.1532779  51.2020016  43.6133480
  28.6039138  50.9607315  45.5550146  28.2065678  50.1815319  46.2054539
  29.2995906  51.5358877  46.1660147  27.3201370  51.7377234  45.2250671
  26.2172294  51.3228941  45.2675867  27.5409031  53.0235815  45.0268841
  26.8025398  53.6961842  44.8767900  28.4963489  53.3503342  45.0482607
  30.6000137  49.8085546  44.3344450  31.1080575  49.4098425  45.3901911
  31.3384151  49.7147226  43.1996822  30.8262300  50.0020456  41.8904018
  30.4958391  51.0348749  41.7799330  30.0089216  49.3238115  41.6452217
  31.9604707  49.7734070  40.8828259  32.2052765  50.8050346  40.6300068
  31.7528510  49.3121767  39.9172902  33.1457138  49.1606379  41.7231798
  34.1225386  49.5301914  41.4111805  33.0762553  48.0976343  41.4923143
  32.7769661  49.3256521  43.1773520  32.7962899  48.3301640  43.6208868
  33.6210489  50.3097916  44.0127134  33.2612753  51.4686871  44.2743969
  34.7448850  49.8136520  44.5324087  34.8967338  48.8301277  44.3599939
  35.7900071  50.5013466  45.2677917  35.9286833  51.3841438  44.6436596
  35.1536036  50.8754253  46.6212654  34.2327642  51.4491224  46.5162659
  34.8773098  50.0357103  47.2589540  35.9885955  51.6987705  47.4868584
  35.2380919  52.2325039  48.0699301  36.6090488  51.1677504  48.2087708
  36.9834352  53.0843592  46.6633844  35.6945610  54.1185188  45.9717035
  35.1259398  54.5119905  46.8142843  36.0725856  54.8785257  45.2878952
  34.9997211  53.4361982  45.4820681  36.9887304  49.5578241  45.3976870
  36.7705226  48.3492613  45.4837942  38.2443881  50.0510883  45.4222298
  38.4409428  51.0342455  45.3002977  39.4609571  49.2366171  45.5034065
  39.2735720  48.3322096  46.0822248  39.7286463  48.7917471  44.0400982
  40.5288601  48.0620337  44.1637039  38.8788271  48.2894278  43.5779428
  40.2760363  49.9962711  43.2497454  39.6111250  50.7874870  42.5766945
  41.5113640  50.1694727  43.2423067  40.6245995  49.9999428  46.1714792
  40.5975294  51.2356234  46.1988449  41.4930773  49.3095970  46.8411398
  41.4446688  48.3139563  46.6784954  42.5997400  49.9023628  47.6476860
  42.1581459  50.5901337  48.3688450  43.3229208  48.7538052  48.4025574
  42.5349808  48.1805849  48.8910961  43.9540005  48.1289768  47.7705479
  44.2180777  49.2926788  49.4890976  44.9963760  49.9581099  49.1155386
  43.6925697  50.0386381  50.0853300  44.7442198  48.1096363  50.7319164
  45.7569218  46.9260025  49.8498917  46.3258219  46.4624977  50.6558847
  45.1601410  46.1063623  49.4497108  46.2184238  47.4062920  48.9870834
  43.5570002  50.7628489  46.8566227  43.9789200  51.7699909  47.4327326
  43.7225437  50.5415058  45.5680275  43.2705832  49.7317934  45.1677799
  44.2289782  51.5104818  44.5648336  45.2351618  51.7818785  44.8842859
  44.3701887  51.1978483  43.5302210  43.4451199  52.7971506  44.4697809
  44.0096140  53.8184214  44.5757389  42.1275282  52.7433395  44.3880081
  41.7241192  51.8210459  44.4701338  41.2983465  53.9883518  44.4443083
  41.6406870  54.6989107  43.6919689  39.7915769  53.7065077  44.1754580
  39.5222235  52.9501390  44.9126530  38.8926888  54.9526691  44.3536377
  38.9108372  55.2067566  45.4134560  39.2612767  55.7782745  43.7448549
  37.8712916  54.7716045  44.0188789  39.6266627  53.3801603  42.8486013
  40.0055027  52.5088024  42.7114058  41.4073372  54.6491003  45.8455229
  41.4316893  55.8529854  45.9291601  41.3800192  53.8235044  46.9199800
  41.2512589  52.8255129  46.8332148  41.4918089  54.4415045  48.2833290
  40.7596588  55.2446890  48.1999731  41.0388994  53.4990025  49.3899822
  41.8416023  52.7628374  49.4327641  41.1359501  54.2388725  50.7376909
  42.1531248  54.5082474  51.0221100  40.3613853  54.9994755  50.8358622
  40.7965231  53.4774733  51.4399481  39.6386671  52.9457426  49.0938425
  38.9307213  53.7257957  49.3739033  39.4857335  52.6645565  48.0518961
  39.3407559  51.6579866  49.7890711  38.2909441  51.3833094  49.6863747
  40.0038624  50.8625841  49.4488764  39.4057822  51.8181372  50.8652782
  42.8039885  55.1411963  48.6142778  42.7912235  56.3002110  49.0227222
  43.9643669  54.5331287  48.3423090  43.8337517  53.5615110  48.0994129
  45.2740860  55.2728415  48.2384920  45.5179548  55.5356026  49.2678547
  46.3869810  54.2400312  47.9773235  46.2443352  53.4028816  48.6606455
  46.2679148  53.9136982  46.9441557  47.8472471  54.7325659  48.1620646
  48.0001068  55.6463242  47.5877953  47.9611015  54.9552298  49.2229891
  48.9081478  53.6732435  47.7540398  48.7019396  52.7515268  48.2981157
  48.9791298  53.6381721  46.6669178  50.2669525  54.1198444  48.2046652
  50.4956770  55.0335121  47.6560307  50.2209473  54.3924809  49.2590189
  51.2786579  53.1350803  47.8123426  52.2205782  53.4995079  47.8034115
  51.2127590  52.2720909  48.3329248  51.1676168  53.0235624  46.8146753
  45.3255129  56.4404917  47.2126055  45.7278633  57.5281000  47.6445627
  44.7103071  56.3005114  46.0406923  44.1634512  55.4705715  45.8611107
  44.5831680  57.4600792  45.1060438  45.5697680  57.9182529  45.0367641
  44.2714119  57.0251989  43.6545420  44.9107122  56.1529684  43.5181379
  43.2354355  56.6891146  43.6108494  44.5106363  58.0860710  42.6122236
  44.1191339  59.0381336  42.9705715  45.5854607  58.2082367  42.4783182
  43.8146973  57.7624083  41.3067293  44.0613794  56.7385006  41.0259104
  42.7802801  57.7972555  41.6485786  43.9851189  58.7157869  40.1614666
  43.8073444  59.7375774  40.4967880  45.0516510  58.6807299  39.9392366
  43.2295465  58.2947159  38.9991832  42.4669170  57.6996422  39.2896676
  42.6470709  59.0425205  38.6504602  43.7987614  57.8713799  38.2802463
  43.7474203  58.6542797  45.7404089  44.2793322  59.7687340  45.6472826
  42.7093172  58.3157396  46.5122795  42.4705267  57.3354530  46.5583229
  41.7954826  59.3378687  47.1341228  41.4309359  60.0667906  46.4103270
  40.4798269  58.7195396  47.5710726  40.6314564  57.7431154  48.0311966
  39.8632741  59.2518282  48.2953882  39.4511533  58.4929562  46.3732004
  39.2646027  59.4517994  45.8895493  39.9393845  57.8841734  45.6122065
  38.0656004  57.9636478  46.9336939  38.0305839  56.9337654  47.2889709
  37.7883315  58.7152195  47.6728582  37.0760894  57.9849434  45.8761215
  37.3972845  58.2109165  44.9455976  35.7851315  57.7960491  46.0433435
  35.1455045  57.4980783  47.1788263  35.7507277  57.1074247  47.8867769
  34.1837931  57.1981525  47.1063662  35.0613165  57.8516483  44.9736118
  35.3507423  58.2284689  44.0823555  34.0991116  57.5501156  45.0313854
  42.4286509  60.0455093  48.3148241  42.2375393  61.2276363  48.5118580
  43.2777166  59.3795776  49.0729713  43.4057331  58.3862162  48.9427710
  44.1301346  60.0605440  50.0519180  43.5460186  60.7962513  50.6047726
  44.7585678  59.0851593  50.9920931  45.2358437  58.3869982  50.3044319
  45.4786015  59.5793724  51.6443205  43.7051010  58.3685017  51.8469715
  42.7703333  58.2628632  51.2963772  44.1115570  56.9623327  52.2962141
  45.0489330  56.9995642  52.8512239  43.3586407  56.4938641  52.9300547
  44.2418814  56.3233328  51.4228392  43.4246635  59.1385889  53.1475449
  44.2170811  58.9752483  53.8779593  43.3686066  60.2045679  52.9269886
  42.5071907  58.7515640  53.5908937  45.2559423  60.9293461  49.4811487
  45.6228638  61.9128990  50.0748301  45.8598089  60.5304527  48.3932161
  45.5284643  59.6738768  47.9729795  46.9449520  61.3301039  47.6696444
  47.7535391  61.5402412  48.3697367  47.4312258  60.3646755  46.5875721
  47.6027298  59.4110870  47.0869303  46.6414738  60.1870680  45.8576107
  48.8256407  60.8382034  45.9998417  48.8946581  60.2980900  45.0555897
  48.7954712  61.9046879  45.7766676  50.0320053  60.4717112  46.8563795
  51.0506201  59.9836683  46.3600206  50.0812817  60.8194780  48.0384302
  46.2612963  62.6093912  47.1225166  46.7467737  63.7522459  47.4007559
  45.0682020  62.4886560  46.5095329  44.6412134  61.5770006  46.4278889
  44.3897724  63.7066221  46.0020542  45.0810337  64.5140553  45.7605839
  43.6067104  63.1554747  44.7858191  43.0877638  62.2651720  45.1410055
  42.8418779  63.8569784  44.4526052  44.5701742  62.9161119  43.6212873
  45.1556730  63.8420630  43.1016588  44.8518896  61.6995621  43.2388735
  45.6283903  61.5539360  42.6096392  44.3702555  61.0206032  43.8108253
  43.4664583  64.4386435  47.0024443  42.6576138  65.2551985  46.5805721
  43.5793543  64.0969324  48.2694292  44.2110109  63.3479023  48.5145140
  42.8570938  64.7435856  49.3937445  42.9511309  64.0363216  50.2177763
  43.4700871  66.1231327  49.6726036  43.3134413  66.7726231  48.8113689
  42.9608059  66.5433455  50.5398703  44.9322414  65.9524488  49.9309921
  45.3765869  65.3003597  50.8637094  45.8053732  66.4408064  49.0780115
  46.7860699  66.2607288  49.2389631  45.6247711  67.0355797  48.2819414
  41.3427114  64.7875738  49.1424847  40.7217598  65.8430386  49.2318869
  40.7968044  63.6654711  48.7225437  41.4411402  62.9474974  48.4234715
  39.3823385  63.5018921  48.3917618  39.1188669  64.3140602  47.7142191
  39.2014956  62.0994711  47.8011942  39.7832656  62.0681667  46.8799639
  39.6418405  61.3941479  48.5059738  37.7759314  61.8837500  47.5046778
  37.0024204  60.9987545  48.3591604  37.4383283  60.5586624  49.2438650
  35.7551527  60.5904770  47.8565264  35.2029729  59.9336815  48.5123539
  35.3081965  61.0911417  46.5818930  34.1011715  60.7905006  46.0749006
  33.3884907  60.5102968  46.6538477  36.1742306  61.8707991  45.7764626
  35.8059096  62.1534777  44.8013544  37.3682451  62.2725916  46.2210655
  38.0553484  62.7482700  45.5369377  38.5568023  63.5157728  49.7146702
  37.6079893  64.3104649  49.8150253  38.9454556  62.7272224  50.7061481
  39.8271632  62.2376537  50.6512356  38.2183576  62.5348997  51.9648981
  37.1741772  62.3339796  51.7252874  38.7691474  61.3292074  52.6916695
  39.7620821  61.6460609  53.0107021  38.0885744  61.1647511  53.5270596
  38.7387419  60.1626921  51.9381237  37.5070477  59.5710182  51.5736866
  36.5722299  59.9860668  51.9204569  37.4908662  58.3813906  50.7653761
  36.5812683  57.8705168  50.4860115  38.7505198  57.7038908  50.5205822
  38.8243794  56.6137743  49.6518469  37.9448366  56.3971901  49.3338966
  39.9519730  58.2940960  50.9168720  40.9253836  57.8880548  50.6844902
  39.9643660  59.4862986  51.6734409  40.9022188  59.9009562  52.0124102
  38.2019520  63.8292313  52.7557230  39.2346215  64.4323397  52.9122686
  37.0630860  64.2302465  53.2854366  36.2382102  63.6563015  53.1840754
  37.0790744  65.3742886  54.2400169  37.8248572  66.1301184  53.9937830
  35.6523967  65.9935808  54.2417049  35.5523276  66.5061188  53.2849407
  34.8611879  65.2441740  54.2635632  35.4901791  66.9363499  55.4560804
  34.8022842  66.5627193  56.5598965  34.3494940  65.6059313  56.7742348
  34.6612501  67.5938177  57.3878241  34.1675854  67.4673557  58.2598352
  35.3029370  68.7121344  56.8703747  35.4311991  70.0064468  57.3183823
  35.1359749  70.2457047  58.3293200  36.0621047  70.9574175  56.4675617
  36.4157748  71.9232225  56.7970181  36.3215852  70.6717968  55.1691055
  36.8591094  71.3310289  54.5036125  36.1726213  69.3425655  54.6400499
  36.3361096  69.0232420  53.6213684  35.7025838  68.3102417  55.5564880
  37.5134611  64.9810696  55.6220818  38.3015037  65.7278442  56.2914276
  37.1719837  63.7209606  56.0281277  36.6132283  63.1548119  55.4057407
  37.5488186  63.1529093  57.3402500  38.4494472  63.6222506  57.7360964
  36.3911843  63.4176016  58.2623577  36.6755056  63.1788969  59.2871952
  36.0708308  64.4523716  58.1410122  35.2636766  62.6348257  58.0048895
  34.9773169  62.8411102  57.1121120  37.7811050  61.6427803  57.1509266
  37.2756219  61.0658312  56.1833143  38.3876777  60.9183455  58.0882168
  38.8565731  61.4714050  58.7913275  38.8029337  59.4467354  57.9521513
  39.3496799  59.2813969  57.0238018  39.7403550  59.2030048  59.1732359
  39.1667533  59.4374561  60.0699615  39.9606800  58.1358099  59.1987896
  40.6504345  59.7359657  58.8979149  37.6971984  58.4588671  57.8594732
  37.8251505  57.3171234  57.3145533  36.5250635  58.7784910  58.4573936
  36.5385103  59.5680761  59.0870619  35.4039574  57.9076958  58.5285139
  35.7603335  56.9445419  58.8937998  34.3311691  58.4943771  59.4052124
  34.8418522  59.0311003  60.2047348  33.7820244  59.1885424  58.7690735
  33.4430790  57.4946356  59.8598480  32.5878739  57.6097965  59.4391775
  34.8415971  57.5622082  57.1290350  34.4864225  56.4603090  56.8051863
  35.0514460  58.5079670  56.2641239  35.4357648  59.4178772  56.4749908
  34.6724629  58.2811499  54.8368692  33.6640882  57.8762007  54.9222898
  34.6466565  59.6185970  54.0513802  35.6924772  59.9226665  54.0950060
  34.2697287  59.5321083  53.0322886  33.8507366  60.7819366  54.6993876
  32.8141427  60.7356596  54.3655825  33.9029670  60.6218433  55.7763052
  34.5330644  62.1448088  54.5080328  34.8051882  62.5943661  53.3685970
  34.7533655  62.8542805  55.5303001  35.6022263  57.2340822  54.0806532
  35.0830007  56.5119267  53.2706547  36.9770455  57.2777081  54.3746758
  37.1954989  57.9615688  55.0851011  37.9805899  56.3014698  54.0374994
  38.1342244  56.2497616  52.9596233  39.3768883  56.7841434  54.5157146
  39.4795251  57.8268337  54.2151165  39.3617439  56.8206549  55.6049967
  40.6672049  55.6569433  53.8085127  40.7643032  56.3689661  52.6822376
  37.6346231  54.9789906  54.5829964  37.7163601  54.0246296  53.7901354
  37.0451427  54.7822523  55.8301878  37.2129416  55.6028080  56.3946676
  36.4884543  53.5017490  56.4063597  37.2886992  52.7684307  56.3066053
  36.1451077  53.7653065  57.8826761  35.2654219  54.4087744  57.8683376
  35.8744454  52.8155041  58.3438826  37.2477055  54.3775177  58.6849403
  38.1600189  53.7976551  58.5451412  37.5364113  55.3565454  58.3025122
  37.1724176  54.3284416  60.5089712  36.1482620  55.7808065  61.0284185
  36.1511469  55.6521034  62.1107912  36.5964818  56.7376375  60.7606936
  35.1685882  55.6558323  60.5672026  35.2655625  53.0115938  55.7073689
  35.2264380  51.8285465  55.4174376  34.4115901  53.9064455  55.2101421
  34.5784807  54.8994160  55.1310492  33.1898808  53.5502148  54.5158815
  32.7911568  52.6643705  55.0102472  32.2882438  54.7585011  54.3694496
  32.0709491  55.2585936  55.3132629  32.8835464  55.4869747  53.8189554
  30.9246612  54.5948172  53.7271023  30.3914404  55.5453825  53.7128019
  31.1220002  54.6561670  52.6568747  30.0051379  53.4774780  54.0751505
  29.9106503  53.0429792  55.2742338  29.3252611  52.8529263  53.1415987
  28.8179493  52.0038128  53.3459044  29.4942164  53.1211424  52.1826363
  33.6016798  52.9903078  53.1331587  33.0141544  52.0725489  52.5675488
  34.5941067  53.5849190  52.3985672  34.9647427  54.4214439  52.8263092
  35.2071452  53.0401468  51.1225891  34.4056416  52.9742861  50.3868198
  36.2006640  53.9677429  50.4408836  36.9804215  54.1982079  51.1668062
  36.7819333  53.4224796  49.6973038  35.6720042  55.1312971  49.6232128
  34.4672799  55.4685163  49.6586800  36.4265895  55.7935047  48.9538765
  35.7946491  51.6742373  51.2703562  35.4143190  50.7600737  50.5216646
  36.5566492  51.4216614  52.3443413  36.9018149  52.2236967  52.8519869
  36.9482040  50.0299883  52.7822590  37.4563813  49.6295404  51.9050503
  37.8336906  50.0754929  53.9898109  37.5503135  50.9252310  54.6108913
  37.7651405  49.1781235  54.6047401  39.2150187  50.3737116  53.5854578
  39.8957491  51.5622091  53.9748669  39.4380355  52.2760248  54.6437263
  41.2169409  51.8247652  53.5038471  41.6454744  52.7918386  53.7218571
  41.8595695  50.8887720  52.7405548  42.8694105  51.1054897  52.4248743
  41.2539816  49.6516132  52.3957062  41.7612219  48.8691759  51.8508244
  39.8873448  49.4198942  52.8303289  39.3842459  48.5309935  52.4794102
  35.8136892  49.0743589  53.0661535  35.7637048  47.9907942  52.3972845
  34.9114418  49.3677902  53.9972734  35.1051044  50.1922703  54.5475817
  33.7158179  48.5612488  54.2561722  34.0099359  47.5626612  54.5793152
  33.0357218  49.1572380  55.3939581  32.8362823  50.2171850  55.2363729
  32.0195889  48.8035679  55.5685902  33.7732315  48.9713526  56.6820860
  34.2867923  47.9341984  57.0048857  33.7395239  49.9485207  57.5588512
  34.0555000  49.7268391  58.4921885  33.1750870  50.7745409  57.4202633
  33.0017400  48.2475853  52.9133224  32.6251626  47.1232271  52.7142859
  32.9095745  49.1467285  51.9544077  33.3066630  50.0394106  52.2104168
  32.2884798  48.9282894  50.6204748  31.2901115  48.5043478  50.7283640
  32.1091986  50.2061033  49.7849369  33.0796146  50.5326700  49.4111061
  31.1077023  50.0810862  48.6265230  30.1409531  49.7014761  48.9572811
  31.0276532  51.0049391  48.0536461  31.4319348  49.3380165  47.8979492
  31.4104652  51.2744856  50.5269480  31.9758391  51.6395283  51.2115669
  32.9624128  47.8113985  49.8938417  32.3699069  46.7879677  49.6041250
  34.2141652  47.9958153  49.6118307  34.6403337  48.9042807  49.7266102
  35.1142669  46.9870281  49.0102243  34.8287058  46.7566204  47.9838324
  36.5006042  47.6060200  48.9681244  36.4873385  48.5412216  48.4083748
  36.7604733  47.8622580  49.9952173  37.6582098  46.7090654  48.4548473
  37.4002743  45.6975651  48.7685919  37.5532413  46.6344404  47.3724794
  39.3581080  47.1179438  48.8844872  39.7150230  46.1687899  50.4177999
  39.1929984  46.6604376  51.2386990  39.2004251  45.2131748  50.3173447
  40.7635403  46.0397196  50.6862211  35.0620198  45.6204748  49.6616554
  34.9241877  44.6351194  48.9369535  35.1988101  45.4513025  50.9922075
  35.3851557  46.3059330  51.4971685  35.2018094  44.0784168  51.6150188
  35.8368778  43.4172583  51.0253906  35.6303096  44.0346766  53.1060553
  34.9268150  44.6622896  53.6531401  35.6254101  42.9902935  53.4180403
  36.9515872  44.6733856  53.5034037  38.0851793  44.2192221  52.8702736
  38.0317283  43.4090710  52.1580887  39.3473840  44.7625065  53.1571245
  40.2270555  44.4427824  52.6182795  39.4746089  45.7993746  54.1420889
  40.4190731  46.3039017  54.2829418  38.2679510  46.2524700  54.7549009
  38.4033108  47.0358562  55.4859209  37.0175290  45.6979227  54.4268799
  36.1117411  46.0185051  54.9200106  33.7290502  43.5401297  51.5789843
  33.5569835  42.4394703  51.1581421  32.6907492  44.3737650  51.6951513
  32.9049492  45.3607655  51.7014027  31.2565947  44.0643072  51.4966774
  30.9958220  43.4109449  52.3292732  30.2435994  45.1864386  51.7859173
  30.4471302  46.0045624  51.0950136  28.7581873  44.7550583  51.5079832
  28.1131196  45.4914904  51.9872093  28.5641289  44.7985029  50.4362774
  28.5968184  43.7759256  51.9589376  30.2761388  45.4619217  53.1356478
  31.1175990  45.8996153  53.2838583  31.0319304  43.3759451  50.1603413
  30.3898716  42.3349142  50.0887108  31.5948319  43.8937140  49.1045809
  32.1444821  44.7343254  49.2111444  31.4810133  43.4093094  47.7348661
  30.4534554  43.1885862  47.4458933  32.0372939  44.3928480  46.7266941
  33.0650187  44.6717072  46.9593239  31.9792128  43.9669657  45.7250166
  31.3517189  45.7560110  46.6615534  30.1792097  45.9203434  46.7433214
  32.1148753  46.7562199  46.3370705  31.6851664  47.6512814  46.1518240
  33.1075287  46.6117477  46.2192869  32.1906304  42.0258284  47.6282167
  31.7401361  41.2362671  46.7582893  33.3268929  41.7626143  48.3056498
  33.5687351  42.3756790  49.0710020  33.8577557  40.3893185  48.3055449
  33.7826037  39.9600577  47.3064470  35.3448534  40.2876663  48.6339235
  35.5817580  40.5063963  49.6751404  35.7189465  39.3023348  48.3559322
  36.3480520  41.5438461  47.6712847  35.7959914  42.6082754  48.2604551
  33.0433297  39.4378734  49.1842699  33.0189157  38.2236052  48.9605665
  32.3314095  39.8844719  50.2099991  32.3701262  40.8638334  50.4538202
  31.3710332  39.1049075  51.0050106  31.8858528  38.1575394  51.1648750
  31.1588693  39.7420764  52.3808289  30.6401348  40.6911945  52.2459507
  30.4367495  39.1155171  52.9043436  32.4274111  39.8375106  53.2483625
  33.6407948  39.2505670  52.8775120  33.7744069  38.6003256  52.0256138
  34.7563648  39.3433046  53.7609577  35.7219577  38.9210391  53.5248947
  34.6754384  40.0993776  54.9201202  35.7990909  40.3420687  55.6950951
  35.8373094  41.0870314  56.2993908  33.4205985  40.5666780  55.2816677
  33.3330345  41.0898685  56.2224150  32.2875619  40.4788065  54.4258070
  31.3112068  40.8089113  54.7485399  30.1334214  38.7578249  50.2027321
  29.6949458  37.5478506  50.1914215  29.6447825  39.6461558  49.3339062
  30.0461149  40.5721426  49.3736649  28.4825706  39.4411302  48.4683466
  27.6454759  38.9694548  48.9830351  28.0025458  40.7832623  47.9257011
  28.8690352  41.3199186  47.5393105  26.8945861  40.5229282  46.9085741
  26.2131262  39.7736764  47.3114729  26.3957548  41.4195824  46.5407705
  27.3515773  40.0832462  46.0220480  27.2771549  41.6301155  49.0512276
  26.2680292  41.2553501  49.2224503  27.7743483  41.6127682  50.0210714
  27.2890115  43.0938530  48.7100506  27.0064640  43.3462381  47.6880121
  26.7067909  43.5663843  49.5011473  28.3239031  43.4288406  48.7799311
  28.7712765  38.4324956  47.3433828  27.9948521  37.4855995  47.2135782
  29.8291850  38.6107421  46.5022039  30.4840207  39.3390226  46.7489719
  29.9515939  37.9720187  45.1963997  28.9654899  37.6124787  44.9024153
  30.4453421  39.0725183  44.2811203  30.1720524  40.0831795  44.5844078
  31.5341234  39.0711856  44.2296600  29.8975325  38.8566327  42.8378582
  28.5779715  39.2893696  42.4425983  27.9585409  39.7967005  43.1673908
  28.0827451  39.1146517  41.1077976  27.0667553  39.3777990  40.8530092
  28.9875221  38.5524058  40.1614141  28.4730887  38.4090447  38.9392614
  27.5132656  38.4138107  38.9570308  30.2858377  38.1363940  40.5053139
  30.8792782  37.6396155  39.7520256  30.7079387  38.2694578  41.8484211
  31.6625500  37.8073716  42.0523787  30.9508061  36.7330289  45.1946068
  31.7238426  36.6343474  44.2469740  30.7911491  35.7365513  46.0739613
  29.9849558  35.7716084  46.6813517  31.8053389  34.6968365  46.2826538
  32.1108723  34.0702009  45.4447556  33.0836773  35.2728891  46.9912577
  32.8748298  35.8692837  47.8794003  33.7039065  34.4301724  47.2966337
  34.0231991  36.1453104  46.1263227  34.5978189  35.7719707  45.1117897
  34.3607521  37.3424721  46.6568851  35.0033712  37.8115535  46.0347033
  33.9293623  37.6497388  47.5168800  31.1998749  33.6855149  47.3618507
  30.4381800  34.1188431  48.2409477  31.4506483  32.3952174  47.2241735
  32.0021749  32.0562553  46.4489174  31.1642551  31.4400697  48.2804966
  30.0904822  31.4982939  48.4586000  31.3686013  30.0299859  47.6919031
  30.6442332  29.8834181  46.8907118  32.4102068  29.9791002  47.3747635
  31.2370563  28.8336778  48.7545204  32.1777177  28.6610603  49.2774582
  30.4137063  28.9839816  49.4528055  30.7226062  27.5748110  48.0254984
  29.6395516  27.6571608  47.9342985  31.1843204  27.4502707  47.0460033
  30.7623863  26.3132310  48.9416075  30.0512910  26.4427137  49.7574949
  30.3312969  25.5716562  48.2690525  32.1143723  25.9152722  49.3519211
  32.1270323  25.2540207  50.1152611  32.6616263  25.4286408  48.6563635
  32.6629210  26.7307568  49.5847082  31.9505787  31.7789865  49.6005869
  33.1525898  32.0729518  49.4909477  31.3752079  31.5783262  50.7990360
  29.9651623  31.2100673  51.0002136  29.7895837  30.1676369  51.2659407
  29.3844867  31.4491343  50.1092768  29.5814347  31.9865227  52.2666788
  28.6998415  31.7223787  52.8507376  29.4544792  33.0567551  52.1036243
  30.8943462  31.7255688  53.0593538  30.9187651  30.6710458  53.3340883
  31.0306883  32.3210788  53.9620590  32.0363855  31.9272065  52.0773363
  32.3090577  32.9813862  52.1269369  33.3067441  31.1595345  52.4429989
  33.7731624  31.3589072  53.5575056  33.7757087  30.2272606  51.5513325
  33.1989479  30.0914097  50.7334137  35.0833464  29.6140170  51.6974211
  35.7175350  30.1923871  52.3692751  34.7772789  28.1565809  52.1132088
  35.7642913  27.6970696  52.0606899  34.1388273  27.9855990  53.4556341
  34.6108437  27.1640658  53.9945173  34.4458604  28.8146877  54.0931654
  33.0546546  27.8750491  53.4344482  33.8818598  27.5131607  51.1360693
  34.4978285  26.9592214  50.6509542  35.9387946  29.5820212  50.4047298
  37.0340991  28.9959621  50.4388285  35.5736613  30.3492832  49.3319178
  34.7355366  30.9079623  49.4062614  36.5120554  30.9185815  48.2905769
  36.9562650  30.0598645  47.7871990  35.8395696  31.7930508  47.2049427
  35.2165294  32.5609350  47.6635027  36.6709137  32.1653748  46.6063261
  34.8265648  31.0469604  46.3150406  34.9733877  29.7979403  46.1729383
  33.9584637  31.6803741  45.7014942  37.6039004  31.7507553  48.9700985
  37.2620511  32.6449537  49.6920013  38.9643788  31.5042520  48.7573051
  39.1860104  30.6769919  48.2219362  40.0461626  32.1544480  49.4975853
  39.8751760  32.0056796  50.5637598  41.3353968  31.6165924  49.0076208
  41.4642096  31.9094563  47.9656315  42.1396112  32.0682883  49.5884037
  41.6716242  30.0844932  49.1385698  42.6382160  29.5548582  48.4635305
  41.1290598  29.3584609  49.9278021  39.9464297  33.7050843  49.3902016
  40.2180099  34.3237257  50.4210186  39.3863583  34.3753719  48.3408928
  39.1692615  33.8763905  47.4900198  39.0974641  35.8535099  48.4728098
  40.0325727  36.4068723  48.5592556  38.6068845  36.3174629  47.1270609
  39.3675923  35.9857917  46.4203644  37.3594713  35.6575823  46.6302299
  36.5179658  35.7318282  47.3190451  36.8740392  36.1029482  45.7618332
  37.5380564  34.5865774  46.5345240  38.3718848  37.8271246  47.0427465
  37.8225183  38.1153870  46.1465311  37.6778674  38.0854058  47.8425789
  39.6854949  38.6210608  47.1179438  39.4515872  39.6234941  46.7594528
  40.0745440  38.6982346  48.1332207  40.4101896  38.1536770  46.4512587
  38.2131243  36.2898564  49.7001076  38.3758044  37.3913074  50.1873922
  37.1843958  35.5431366  50.0738907  37.0521140  34.6250200  49.6743011
  36.5534234  35.8757639  51.3792562  35.9515095  36.7841363  51.3535786
  35.3912544  34.8958206  51.6209602  35.7614183  33.8724804  51.6831064
  34.5360565  35.2237344  52.8611279  34.3073130  36.2891674  52.8862286
  33.5737681  34.7169304  52.9336166  35.1304817  34.8922920  53.7125444
  34.4022226  34.9871159  50.4973936  34.1577435  36.0349464  50.3230953
  34.7734022  34.3336368  49.7079039  33.5192466  34.4319415  50.8139896
  37.4739337  35.7851672  52.6008940  37.4253178  36.6162825  53.5789394
  38.3199763  34.7871518  52.6567125  38.4513021  34.1829824  51.8580675
  39.3023443  34.5004153  53.7678528  38.7935901  34.6499944  54.7201633
  39.8304868  33.0334592  53.7271881  40.5522346  32.9528499  52.9143620
  40.4154444  32.8798676  54.6340132  38.7085867  32.0207405  53.5496521
  38.4076905  31.9345427  52.5055599  39.2173934  30.6637764  54.0462589
  40.1491785  30.4288507  53.5317802  39.3161631  30.6488824  55.1316690
  38.5301900  29.8606396  53.7801218  37.4962997  32.3128152  54.3964911
  36.9491482  33.1702042  54.0045595  36.8118429  31.4691782  54.4853497
  37.7851534  32.5004601  55.4306364  40.4787302  35.5452991  53.7786722
  40.8285952  36.1111712  54.8542023  41.0128784  35.8629394  52.5952578
  40.7768154  35.2304554  51.8440342  41.8142700  37.0544291  52.3624277
  42.6782751  37.0983481  53.0255032  42.0944309  37.0024705  50.8516884
  41.1650944  36.8659711  50.2986956  42.4725199  37.9949379  50.6064081
  43.1311846  35.8846021  50.5824614  43.8023663  35.8765507  51.4412689
  42.7176046  34.8899055  50.4162216  44.1594696  36.2446976  49.1725540
  42.9650927  35.9113455  47.8274870  42.4520636  34.9515653  47.8885603
  42.2049761  36.6849613  47.7186728  43.4753466  35.9064102  46.8643045
  41.0746670  38.3680320  52.7436113  41.7028093  39.0838623  53.5137606
  39.8332596  38.6726928  52.3043394  39.3773985  37.9515767  51.7637062
  39.1748405  39.9627090  52.7220678  39.7351193  40.8374882  52.3919916
  37.8573203  40.1643848  51.9689035  37.1553040  39.3776751  52.2452259
  37.3057556  41.0883617  52.1425247  38.0412459  40.0952911  50.8967590
  39.0190530  39.9848366  54.2383099  39.0033793  41.0505962  54.7951508
  39.0609932  38.8345981  54.9483252  38.9020848  37.9525375  54.4826889
  38.8178492  38.7998796  56.3731480  38.0073810  39.4926548  56.5996456
  38.4090376  37.3601961  56.7509699  38.6755824  36.5987182  56.0180235
  38.9910507  37.0870924  57.6311874  36.9665170  37.2065735  57.0606375
  36.9685245  37.2905517  58.1473970  36.3133550  38.0090284  56.7177916
  36.4389324  35.8800936  56.6492128  37.1459889  34.8897362  56.8271542
  35.1432562  35.7731318  56.4088774  34.9154711  34.8047471  56.2343884
  34.5508242  36.5236235  56.0834789  40.1303053  39.2339683  57.0983982
  40.0579500  40.1419020  57.9840899  41.2783909  38.6163735  56.7559528
  41.2157440  37.8835320  56.0637712  42.5336742  38.9909315  57.3802710
  42.5335932  38.8597059  58.4623432  43.6031961  37.9971814  56.9165134
  44.5750427  38.1388426  57.3893213  43.3451700  36.9805527  57.2131395
  43.6969614  38.1727195  55.8448315  42.8740978  40.4470968  57.2355080
  43.4955072  41.0353088  58.1115961  42.6259279  41.0924435  56.0715103
  42.4495888  40.5304241  55.2510595  42.8989267  42.5425720  55.7917547
  43.8883829  42.7688503  56.1890936  42.8681469  42.8582382  54.3097639
  41.8900585  42.6167583  53.8936758  43.0014610  43.9263105  54.1378689
  43.9224863  42.1097469  53.4565687  43.9447355  41.0895777  53.8397932
  43.5213518  41.9609594  52.0145416  42.5332594  41.5008402  52.0224142
  43.4364080  42.9504681  51.5653610  44.2596912  41.3767529  51.4653158
  45.3792286  42.5872469  53.6829615  46.0583115  42.1140194  52.9737282
  45.3494740  43.6455679  53.4237862  45.7372665  42.4413252  54.7020864
  41.9141865  43.4786081  56.4798880  42.2830677  44.3699074  57.2982550
  40.6239271  43.1558084  56.4173460  40.3101444  42.4003553  55.8249521
  39.5671678  43.7410641  57.2461081  39.3881392  44.7590208  56.8999720
  38.2381248  43.0486441  57.0410872  38.0740452  42.9547691  55.9676027
  38.2285237  42.0517921  57.4818754  37.0134783  43.8396454  57.5869513
  37.2016907  44.2722654  58.5695553  36.8961167  44.6728849  56.8941069
  35.7377028  43.0736446  57.6597500  34.6538806  43.7187529  57.6215601
  35.7589531  41.8394327  57.8876305  39.8278022  43.8405895  58.7691402
  39.6402264  44.9509430  59.3367958  40.4443169  42.7800989  59.2934370
  40.6348467  41.9685364  58.7232065  40.8786201  42.7142382  60.6966162
  40.0898075  43.1237411  61.3276291  41.0298920  41.2728500  61.1178637
  40.3045893  40.6098413  60.6462145  41.9639540  40.9193230  60.6812334
  40.9842253  41.0465193  62.6017618  41.7126179  41.6399384  63.1543922
  40.0034666  41.3893461  62.9314423  41.3142776  39.5820713  63.0068588
  40.4254198  39.0181255  62.7240133  42.1661806  39.1774964  62.4603415
  41.5061426  39.4964886  64.5165825  42.0401955  40.3607130  64.9115562
  40.5054331  39.5875740  64.9389362  42.3603344  38.3220625  64.8571301
  43.1809473  38.3335209  64.2684317  42.5882721  38.2612395  65.8391905
  41.9361782  37.4647880  64.5326757  42.0463753  43.6099911  61.0211277
  42.0233393  44.1936970  62.1254110  43.0893612  43.7355995  60.1454544
  42.9529572  43.1513405  59.3329668  44.2279387  44.5983887  60.3702927
  44.6304703  44.2808676  61.3321924  45.4105902  44.3672085  59.3421841
  44.8771143  44.3141556  58.3931398  46.3752222  45.5664349  59.3311548
  45.9494352  46.3730717  58.7343740  46.5922642  45.7906055  60.3755379
  47.3090029  45.3241873  58.8237286  46.1954308  43.0586147  59.4138670
  46.7815065  43.1661701  60.3265810  45.5013561  42.2271395  59.5363903
  47.0804548  42.6990891  58.1765556  47.5881004  41.8168592  58.5665178
  46.4009142  42.4415207  57.3641539  47.7680779  43.5252094  57.9954672
  43.7415171  46.0412312  60.3520441  43.8887882  46.7530680  61.3846493
  43.0422449  46.4410686  59.3154716  42.9842520  45.7442045  58.5866976
  42.2399712  47.6051569  59.2995930  42.8739452  48.4840918  59.1827488
  41.3600492  47.4151802  58.0829191  42.0223904  47.6165676  57.2409868
  40.9784698  46.4042234  57.9398537  40.1531124  48.2936811  57.8749180
  40.3575563  49.6404934  57.5338459  41.3209486  50.1100588  57.4004889
  39.2543364  50.5135918  57.5547314  39.3684816  51.5701246  57.3620844
  37.9365945  50.0076151  57.8337479  37.1815944  50.7792091  57.8656006
  37.7676773  48.6530447  58.1366014  36.7668509  48.3292484  58.3813572
  38.8445592  47.8119373  58.2045698  38.7215328  46.7650223  58.4395838
  41.4887619  47.9397106  60.5763817  41.7090654  49.0565348  61.1074257
  40.6657791  47.0585966  61.1301851  40.5243874  46.2006760  60.6162930
  39.9095559  47.3471975  62.2901058  39.3377972  48.2498550  62.0746946
  38.8114834  46.2433434  62.5721741  39.2107844  45.2370787  62.4453115
  38.5716701  46.3444614  63.6306477  37.4955773  46.3769722  61.8175888
  37.7156544  46.3024378  60.7526398  36.5304637  45.2036285  62.1470022
  36.3006759  45.1954985  63.2124805  35.5192184  45.2806282  61.7475605
  37.0190287  44.2637777  61.8899393  36.7745614  47.7179861  62.0038366
  35.7846904  47.7401257  61.5480137  36.4965749  48.0189610  63.0139065
  37.3627806  48.4822321  61.4958763  40.8442211  47.4675226  63.5066700
  40.5265331  48.3421993  64.2681646  41.9563866  46.7308760  63.6717653
  42.0756865  45.9175730  63.0849028  42.8941965  46.8708229  64.8226357
  42.2319317  46.8125677  65.6864166  43.9089727  45.7462502  64.8764515
  43.2686329  44.8762131  65.0217342  44.4004154  45.7611179  63.9036369
  44.9827909  45.7931757  65.9614134  44.5350361  45.9727240  66.9388485
  45.3405476  44.7729683  66.1002874  46.1795378  46.7394972  65.7296658
  47.0006180  46.5772343  64.8743963  46.1604643  47.8368711  66.4915562
  47.0361853  48.3400393  66.4975882  45.5150080  47.9422331  67.2612190
  43.4886503  48.3456707  64.7828341  43.3925247  49.0521049  65.7885313
  43.9264488  48.8015652  63.6341524  43.9394236  48.1669426  62.8485394
  44.5257950  50.0801754  63.3428621  45.2202129  50.2259731  64.1702843
  45.3439331  50.0454044  62.0143318  44.6981049  49.6762514  61.2176275
  45.6576538  51.0659170  61.7947149  46.5729046  49.1738844  62.0810366
  46.1901045  48.2164764  62.4344969  46.9207144  49.1232491  61.0492611
  47.7178621  49.7399473  62.9526949  48.0937576  50.7046127  62.6117849
  47.3257828  49.9262667  63.9525270  48.7974882  48.6649084  63.1419945
  48.3222580  47.7320957  63.4455013  49.2600918  48.4029531  62.1904230
  49.7277737  48.9738560  64.2524385  50.3124952  49.7263336  63.9177990
  49.1588068  49.2106533  65.0526285  50.3345203  48.2193232  64.5399094
  43.6097527  51.2757254  63.4327936  43.9056492  52.2961140  64.0636969
  42.3165321  51.0043716  63.0449200  42.1114588  50.1008701  62.6427507
  41.2083960  51.9896412  63.1512451  41.6601944  52.8945732  62.7449512
  39.9212050  51.5769625  62.3646736  39.8040271  50.4932785  62.3657942
  38.5733700  52.0884371  62.9887438  38.4346223  53.1654692  63.0827951
  37.7392435  51.7868090  62.3552132  38.5051203  51.5993834  63.9604855
  40.0280190  51.9443846  60.9188843  40.8963919  51.4733553  60.4582787
  39.1368508  51.7142439  60.3349686  40.2261591  53.0162191  60.9171677
  40.8862066  52.1971655  64.6088886  40.6183243  53.3299828  64.9290848
  40.9672880  51.2093544  65.4988861  41.0912848  50.2505350  65.2066660
  41.0385656  51.5230131  66.9535160  40.3402281  52.3273611  67.1847200
  40.6943941  50.2018929  67.6463413  41.0626554  49.3627548  67.0561457
  41.1609125  50.0510454  68.6198425  39.6213746  50.0616217  67.7769470
  42.3429585  52.0560694  67.4954367  42.3613119  52.7943897  68.5060120
  43.4930325  51.7076254  66.9866943  43.4687281  50.9248018  66.3489676
  44.7686100  52.2855282  67.4831057  44.6570492  52.1770763  68.5619497
  45.8750486  51.3235855  67.0009613  45.6408215  50.2710056  67.1600533
  45.8975840  51.3343000  65.9112453  47.2855806  51.6701794  67.5036526
  47.6603746  52.6119089  67.1026802  47.2503042  51.8659353  68.5753489
  48.2904482  50.5879688  67.2153473  48.1977367  49.7177839  66.4222574
  49.3473339  50.5418396  67.9436827  50.0223160  49.8298359  67.7037907
  49.5003176  51.2608957  68.6362553  44.9029207  53.8237858  67.0692301
  45.8604240  54.4127274  67.6211596  44.0839148  54.3732786  66.1339855
  43.1762743  53.9317703  66.0972118  44.2010832  55.6850719  65.3953362
  45.1089668  55.6069088  64.7972202  42.9362822  55.9062529  64.4997311
  42.8741360  55.0082397  63.8850737  42.0211411  55.8440495  65.0885820
  42.9148245  57.1483707  63.5533237  42.7240419  58.1281233  63.9912558
  43.9399767  57.1683073  63.1835079  42.0803547  57.0458937  61.9357824
  40.3600883  57.0279980  62.2575426  40.0767279  56.8752766  63.2989264
  39.9915791  58.0144596  61.9761276  39.8227453  56.2404442  61.7292213
  44.3098736  56.8009567  66.3902330  43.4434605  56.8375826  67.2350836
  45.1116467  57.9326487  66.2114763  46.1724281  57.9606581  65.1927805
  45.9798717  57.6475954  64.1666126  47.0077610  57.3275852  65.4920149
  46.6883469  59.4010305  65.1511908  45.9539938  59.9926233  64.6045256
  47.7204895  59.4890785  64.8120260  46.5580130  59.7163105  66.6736269
  46.7376852  60.7583237  66.9382477  47.3253536  59.2003441  67.2507429
  45.0750017  59.2290306  66.9329834  45.0555229  58.9923573  67.9967976
  43.8932753  60.1386547  66.5089560  44.0854883  61.1317348  65.7922840
  42.7592993  59.9312925  67.0777416  42.7027273  59.0639353  67.5921345
  41.4838028  60.7356358  66.9926453  41.4208794  61.0261059  65.9439468
  40.3221321  59.8283625  67.3318243  40.2886152  59.6160316  68.4004164
  39.4317079  60.3860855  67.0416594  40.3449678  58.5863495  66.4976740
  40.6710577  58.8686609  65.4966450  41.0291862  57.8869438  66.9780731
  38.9522195  57.8886700  66.4177418  38.0995417  58.3333397  65.6973934
  38.6677432  56.9052744  67.3174906  37.6786876  56.8133783  67.5003099
  39.3740726  56.5653944  67.9544210  41.4248610  62.0626450  67.7311993
  40.9646749  63.0826235  67.1304607  41.8232059  62.1076250  68.8959169
  74.9564362  47.5272226  23.7788343  75.5748463  47.9289246  24.4689870
  75.0634146  48.1708193  23.0078340  75.3279495  46.6863871  23.3604097
  73.5807991  47.2699785  24.2770076  73.6420107  46.5130186  25.0589085
  73.0640316  48.5401154  24.9813724  71.9927979  48.4758568  25.1722360
  73.5992861  48.4790659  25.9289360  73.2920265  49.8744488  24.3571353
  74.3721581  50.0199461  24.3413591  72.9412174  49.9403906  23.3272409
  72.6228666  50.9892035  25.2284861  71.5578032  50.8383799  25.0524282
  72.7342463  50.7554579  26.2872863  73.0958891  52.3908854  24.8107076
  74.1430187  52.5417376  25.0731277  72.9928160  52.4644756  23.7280893
  72.1707678  53.3060598  25.5292439  72.2889900  53.2592964  26.5312099
  72.2364092  54.2695665  25.2335286  71.2097788  53.0684948  25.3288341
  72.6723528  46.7439413  23.2081795  73.0382872  46.7293739  22.0410013
  71.4976597  46.1100626  23.4519148  71.2461329  45.9975576  24.4236016
  70.5088615  45.6602144  22.4783206  70.8276320  44.7167253  22.0352483
  69.2700624  45.3678989  23.3083725  69.0350008  46.2075663  23.9624310
  68.4471369  45.3077793  22.5961375  69.2748737  44.1651297  24.1477442
  70.2496719  44.0446329  24.6203446  68.2776499  44.2097092  25.2999067
  68.3716154  43.2741356  25.8512449  68.4965658  45.0033712  26.0142422
  67.2616386  44.3545389  24.9327040  69.0114021  42.9521084  23.2435346
  69.7729349  43.0091953  22.4657702  69.1865921  42.0538664  23.8356256
  67.9822206  42.8777695  22.8922963  70.2131414  46.6920900  21.4267039
  70.0957632  47.9417896  21.6620016  69.9341345  46.2012482  20.2622294
  69.8738098  45.1954889  20.1921701  69.2779589  46.9136953  19.1378129
  70.0030279  47.6787424  18.8601983  68.9631319  46.0150433  17.9850388
  69.9025774  45.4635096  17.9482496  68.1193399  45.4196072  18.3337367
  68.7666321  46.6649818  16.7977810  68.7435436  46.0502100  16.0608125
  68.0222940  47.6195908  19.5899069  67.3215723  47.1750927  20.4956627
  67.7116013  48.7617207  18.9222169  68.2103634  49.0776730  18.1027567
  66.6293478  49.6606302  19.4142592  66.9126368  50.0536013  20.3906918
  66.5289974  50.8793783  18.4642529  67.5445414  51.1402655  18.1664145
  66.0423851  50.6286335  17.5216806  65.7103634  52.0659351  18.9988625
  65.5584669  52.7571726  18.1698763  64.7395849  51.6579103  19.2803288
  66.3535929  52.7963161  20.1648593  67.6120043  52.8938580  20.2178764
  65.6800604  53.2183075  21.1392069  65.2482033  48.9570284  19.6360815
  64.6753645  49.1386366  20.7075405  64.6882153  48.1363821  18.6759150
  65.1040459  48.1103945  17.7558553  63.4121180  47.3731661  18.8899815
  62.6097584  48.0739832  19.1205764  63.1068563  46.6972876  17.5296092
  62.1493721  46.1915636  17.6543498  62.8821421  47.4121332  16.7380297
  64.2015314  45.8148909  16.9153535  65.1186228  44.9425936  17.5141668
  65.9033155  44.4200945  16.5204966  66.5720081  43.5864639  16.6764343
  65.4202557  44.7471571  15.3801084  65.6512785  44.2868423  14.5112920
  64.3873930  45.6922197  15.5702448  63.8496494  46.1994743  14.7828925
  63.4742308  46.3420582  19.9765253  62.4419117  46.2321997  20.6749320
  64.5921040  45.6203556  20.2312016  65.3316212  45.5688095  19.5452273
  64.7676754  44.7925425  21.4544845  63.8447332  44.3163586  21.7854285
  65.7360363  43.6674166  21.2278485  66.6319275  44.1192627  20.8020401
  65.8720779  43.1428051  22.1735644  65.1364279  42.7337599  20.0569367
  64.4188070  43.2034111  19.3842137  66.2181091  42.1662188  19.1942465
  66.8592405  41.4635658  19.7265363  65.7101488  41.7271137  18.3356071
  66.8119860  43.0204010  18.8690054  64.3328428  41.6827440  20.9107780
  65.0307465  41.2058878  21.5989947  63.5195827  42.1388197  21.4753175
  63.9974689  40.9345007  20.1926160  65.0952816  45.5143976  22.7378917
  64.7478056  45.1457405  23.8259578  65.6720257  46.7301273  22.6540136
  65.8924580  47.1429300  21.7589712  65.7811594  47.6822662  23.7767649
  66.1416912  47.2226763  24.6970367  66.6524458  48.8963747  23.3875966
  67.5491524  48.4671593  22.9406118  66.1715746  49.4173479  22.5596690
  67.1073771  49.7899103  24.5974040  66.2196159  50.2353287  25.0463867
  67.5210524  49.1693974  25.3923488  68.1283140  50.8850431  24.2269564
  68.5279274  51.1014891  25.2176952  68.8750887  50.5615330  23.5018516
  67.4550438  52.0027256  23.6717057  67.3202372  51.9439936  22.6724672
  66.8936586  53.0907965  24.2654252  66.0985947  53.9340401  23.6991763
  65.9351301  53.8200283  22.7090335  65.6609201  54.6904755  24.2054915
  67.2113705  53.4213352  25.4934549  67.8427410  52.8576088  26.0445356
  67.0276880  54.3644190  25.8048368  64.4148207  48.1602621  24.2103577
  64.2658424  48.3060074  25.3912520  63.4231424  48.1983709  23.3073950
  63.7583971  48.1182623  22.3580313  62.0879698  48.4806013  23.6912584
  62.1656322  49.2419004  24.4674659  61.2558985  49.0630436  22.5391293
  61.7865467  49.9014711  22.0879674  61.2088060  48.2398844  21.8261838
  59.8595858  49.4603682  22.8933311  59.5833588  50.2282476  24.0379977
  60.3960037  50.6843281  24.5838928  58.2770729  50.5904293  24.3821168
  58.0180502  51.1051321  25.2955675  57.2587490  50.2473640  23.4575057
  55.9761524  50.6238461  23.7354231  55.2346277  50.1290178  23.3792138
  57.5165558  49.3971825  22.3395705  56.7660999  49.1232872  21.6128016
  58.7753153  48.9547729  22.0606685  59.0546322  48.3627367  21.2016702
  61.3822031  47.2843695  24.3489790  60.8294392  47.4295759  25.4288316
  61.5881109  46.1142683  23.8333654  61.9650698  46.1904955  22.8994489
  61.1619520  44.8037672  24.3504834  60.0947857  44.8161221  24.5720887
  61.3904476  43.7347460  23.3106208  62.4665451  43.7670374  23.1401110
  61.0268164  42.7682686  23.6596131  60.5711174  43.9062643  21.7586064
  61.3664913  44.8146391  21.1866498  61.8200588  44.4668818  25.6987286
  61.0535574  43.9350462  26.5070653  63.0545473  44.8063898  26.0537648
  63.6750269  45.2638054  25.4011774  63.6108160  44.7904301  27.4627113
  63.6028147  43.7403393  27.7548456  64.9522972  45.4388618  27.3872662
  65.4970407  45.1343060  26.4936209  64.7775269  46.4963531  27.1891093
  65.7704878  45.1189232  28.6649704  66.7729378  45.7857847  29.0055966
  65.4596615  44.0916538  29.3130493  62.7713394  45.5474710  28.4716392
  62.4909973  45.0169230  29.5670772  62.4247646  46.8196106  28.1889057
  62.7132559  47.1274996  27.2712564  61.4446020  47.5180244  28.9975286
  61.7342806  47.5295782  30.0482655  61.5576172  48.9368868  28.6214662
  62.6295567  49.1261578  28.5647583  61.1520147  48.9841890  27.6108503
  60.8873129  49.9058867  29.4394875  61.6209030  50.4600334  29.7158289
  59.9342251  47.0592928  29.1235232  59.3592453  47.0031452  30.2340722
  59.4130611  46.4494514  28.0643749  59.9514627  46.4069033  27.2109056
  58.1705236  45.5949354  28.0051851  57.3917770  46.2780380  28.3443403
  57.7454996  45.2188301  26.5725899  58.5521889  44.6327162  26.1323309
  56.4485788  44.4224977  26.6912103  56.6678810  43.4488487  27.1294069
  55.8232117  44.8818874  27.4567056  55.8602571  44.3669462  25.7752991
  57.5584173  46.4562654  25.6014252  56.8117189  47.1342516  26.0147929
  58.4658623  47.0291424  25.7923532  57.4194813  46.1907530  24.1156507
  58.4143019  46.0038757  23.7112832  56.7895460  45.3209400  23.9293456
  57.0602417  47.0082664  23.4905791  58.2512331  44.4374514  28.9831209
  57.3397064  44.0888596  29.7497392  59.4135666  43.8007927  29.0326810
  60.1290607  44.1233587  28.3969808  59.6697712  42.6093912  29.8797822
  58.7405634  42.0410728  29.9208140  60.7761002  41.7341518  29.2961311
  60.4973888  41.3888597  28.3005452  61.6088343  42.4129581  29.1120601
  61.3188839  40.4672194  30.0746322  61.5888643  40.6650734  31.1119676
  60.3581905  39.3503881  30.1613879  59.6494293  39.6324563  30.9399724
  59.8674393  39.2119503  29.1980052  60.8563614  38.4476233  30.5148602
  62.6072693  39.9380898  29.3539262  63.2549191  39.5965648  30.1613975
  62.3125219  39.1016746  28.7201762  63.1845045  40.6838799  28.8073969
  59.9741793  42.9761982  31.3484311  59.5005941  42.3964643  32.2838593
  60.7280779  44.0984297  31.5510082  61.1039448  44.5431232  30.7257366
  60.9860659  44.7071218  32.8431320  61.3955116  43.9878893  33.5524774
  61.9473696  45.9277868  32.7900624  62.8761721  45.5165863  32.3946714
  61.5376186  46.6984749  32.1371794  62.2827053  46.6499996  34.1523218
  61.4013243  47.1645164  34.5351195  62.5916100  45.8631277  34.8404479
  63.3490753  47.7127600  33.9924622  62.8971910  48.3155107  33.2046819
  63.3569574  48.2656240  34.9318123  64.7008467  47.1859455  33.6406827
  64.8973465  46.2358093  33.9212728  65.6631327  47.8772068  32.9832602
  65.6046247  49.0763998  32.4453235  64.7327089  49.5861673  32.4443173
  66.3679171  49.5323753  31.9661880  66.7366171  47.2320127  32.7642632
  66.6844273  46.2447977  32.9711032  67.5300217  47.8050661  32.5148296
  59.7042561  45.1475430  33.5774517  59.6151781  45.1452303  34.8132658
  58.6515570  45.5111551  32.8855777  58.8654089  45.5665302  31.9000316
  57.2166824  45.7023764  33.2607937  57.3163414  46.3170481  34.1554213
  56.6254139  46.5545177  32.1622992  57.1583843  47.4782801  31.9371128
  56.5083218  45.9383774  31.2708020  55.2456808  47.0216656  32.4095774
  55.0166368  47.5042343  31.4594388  54.6096611  46.1480618  32.5524068
  55.0479984  47.9844046  33.5822725  56.0147285  48.5047388  34.0877056
  53.9199734  48.3746433  33.9181423  56.4981604  44.4401884  33.7418389
  56.1009312  44.3694592  34.8839021  56.4678574  43.4425735  32.8445554
  56.7398119  43.5725451  31.8805814  55.9926748  42.1162796  33.1543469
  54.9262905  42.1048784  33.3797574  56.1153364  41.1787271  31.9200349
  57.1564245  41.0976553  31.6075253  55.8779478  40.1604939  32.2281647
  55.0521660  41.6022205  30.8570218  54.0770292  41.8257570  31.2897301
  55.3259373  42.5403929  30.3743434  54.5812273  40.3659487  29.5540500
  56.0359812  40.5690718  28.6104035  56.9289732  40.2511978  29.1485763
  56.0201788  40.0577545  27.6479053  56.1864376  41.6198540  28.3627820
  56.6816235  41.3534641  34.3481517  56.0955477  40.3639507  34.9361992
  57.7893639  41.7914057  34.8252845  58.3770895  42.4238253  34.3011475
  58.3830547  41.2224960  36.0400796  57.8492212  40.3761864  36.4723825
  59.7790337  40.7348347  35.7241321  60.4087830  41.5216684  35.3089046
  60.2581787  40.3386116  36.6194129  59.8663807  39.6447968  34.6317887
  59.2148256  39.9186325  33.8019729  61.3387728  39.4683957  34.2050099
  61.9278336  39.3248892  35.1108313  61.4996719  38.6282134  33.5295057
  61.7921305  40.3591061  33.7700391  59.3879747  38.3466220  35.1896214
  59.4502020  38.1863046  36.2659717  58.3379126  38.4034610  34.9028420
  59.7722101  37.4435258  34.7154045  58.3481312  42.2459173  37.2141862
  58.8229799  41.8195105  38.2534075  57.8377295  43.4988403  37.0999336
  57.5399923  43.8511515  36.2014174  57.7911425  44.4679976  38.2220507
  58.7220335  44.4441414  38.7885952  57.6207447  45.8677578  37.6583815
  57.6492786  46.5175295  38.5330725  58.4735107  46.1643219  37.0476866
  56.4357424  46.0425282  37.0299315  56.4378262  45.6519747  36.1529684
  56.6832447  44.0631914  39.2478395  55.7084513  43.3479023  38.9492750
  56.9302368  44.5457983  40.4498100  57.6617289  45.2338982  40.5572081
  56.2693262  44.0169191  41.6361380  56.4715385  42.9458714  41.6276455
  56.9329119  44.5262432  42.9317665  57.9307079  44.0919685  42.9942513
  57.0993423  45.6000662  42.8462887  56.2036610  44.0414906  44.2067194
  55.3864288  44.7326183  44.4130278  55.8550167  43.0129719  44.1134882
  57.1185970  44.1401052  45.4455662  56.8521070  43.4089041  46.2087345
  58.1197596  43.8510942  45.1258135  57.1901131  45.5078888  46.0353088
  57.3515129  46.2388945  45.2430439  56.3464260  45.7881403  46.6659880
  58.3106661  45.5931330  47.0115852  59.2291927  45.3432035  46.6740322
  58.5152245  46.5577364  47.2302151  58.1070995  45.0162697  47.8152609
  54.7721434  44.3030310  41.6312504  54.0139294  43.4282351  42.0274115
  54.3599319  45.4133463  41.0567427  55.0034904  46.1485958  40.8011198
  52.9189396  45.7292080  40.7679701  52.3760939  45.8448935  41.7060757
  52.8945923  47.1469402  40.2026749  51.8792915  47.5423336  40.2332354
  53.4280825  47.8141499  40.8796692  53.3979988  47.3827934  38.8125277
  54.3158007  46.7999077  38.7351656  52.5987005  47.0520496  38.1493378
  53.6615419  48.8871861  38.5959482  52.8001308  49.4538212  38.9494848
  54.5840693  49.1861963  39.0935874  53.9395666  49.1080856  37.0860457
  53.2124090  48.5121965  36.5344453  53.6475849  50.1354790  36.8685222
  55.3023863  48.8253927  36.6640544  55.6266642  47.9377794  37.0205450
  55.2961016  48.9230967  35.6588101  55.9096098  49.5530319  37.0132279
  52.1774149  44.6991396  39.8872352  51.0948086  44.2978144  40.2212763
  52.9049683  44.2333603  38.8917279  53.8266850  44.5884228  38.6808348
  52.4848413  43.0032444  38.1084895  51.4015579  43.0790758  38.0144739
  53.0894470  43.0035782  36.7122436  54.1786242  43.0227900  36.7499614
  52.7697706  42.1135855  36.1701941  52.6185131  44.1418076  35.8330464
  51.3209724  44.3380499  35.3275514  51.2457037  45.6088972  34.8366380
  50.3472281  45.9118414  34.3195653  52.4391556  46.2187147  34.9728537
  52.6182032  47.0556593  34.4366050  53.2700491  45.3116322  35.6138730
  54.3039322  45.5592823  35.8040261  52.7181149  41.6654968  38.8634229
  52.0755625  40.6284714  38.6043692  53.7745476  41.5879393  39.7794652
  54.4031382  42.3745918  39.8579407  54.0615749  40.3047132  40.4159117
  54.2829657  39.6191549  39.5979285  55.4026175  40.4259586  41.1452103
  55.2603674  40.9521151  42.0891523  55.8243322  39.4318104  41.2933016
  56.0634136  40.8970213  40.4175091  52.9178095  39.8291516  41.3144875
  52.9849625  38.7597680  41.8662071  51.8969536  40.6411886  41.5075302
  52.0800924  41.5991974  41.2452698  50.5330515  40.3991222  42.0699263
  50.5859327  40.0918484  43.1143856  49.5920706  41.6339445  41.8619823
  49.6828222  42.3322344  42.6940060  49.9788713  42.1628666  40.9909344
  48.5713434  41.3043690  41.6680861  49.9637556  39.1645789  41.3460207
  49.7010612  38.1443501  42.0149422  49.8001957  39.1429448  39.9980831
  49.8883581  39.9878049  39.4516945  49.2519236  37.9721761  39.3103600
  48.9183331  37.1573043  39.9528623  47.9825449  38.5014844  38.5847521
  47.4216557  37.6998663  38.1042194  47.3714352  39.0139699  39.3277287
  48.3259630  39.5503378  37.4683380  48.7660837  40.7870722  37.7361035
  48.6492109  41.1242056  38.7554574  49.2944384  41.5768671  36.6678429
  49.6963549  42.5720310  36.7883158  49.2646027  41.1467266  35.3464603
  49.7143269  41.9543982  34.4117355  50.2033377  42.7468538  34.6451616
  48.8207293  39.8473191  35.0979018  48.8461924  39.4921327  34.0782952
  48.3790350  39.0678072  36.1873603  48.0717897  38.0506730  35.9938645
  50.1488686  37.4204850  38.2113242  49.7416401  36.4625502  37.5864816
  51.2799692  37.9831004  37.8613853  51.7149448  38.7476635  38.3577132
  52.0446348  37.6672649  36.6261840  51.3316107  37.6370645  35.8022928
  52.8943253  38.8616848  36.2983012  53.6840677  38.9811945  37.0400071
  53.4363604  38.5894680  35.3926516  52.2815561  39.7259545  36.0420752
  52.8639841  36.3979506  36.7152524  53.4206867  35.8923745  35.7408881
  52.9943180  35.9200025  38.0104566  52.3569298  36.2928152  38.6995506
  53.7562227  34.7102404  38.4873605  54.8006678  34.9823117  38.3350205
  53.6632538  34.4674706  40.0077200  54.2683077  33.5650730  40.0954533
  54.1520023  35.2828193  40.5410385  52.2840405  34.2062235  40.6357765
  51.3850784  35.1011753  41.2240458  51.5915632  36.1596608  41.2820959
  50.2673054  34.4727421  41.5712118  49.4934845  35.0252175  41.9119072
  50.3156662  33.0788922  41.3314009  49.4830608  31.9749570  41.5717506
  48.5470390  32.2092390  42.0568991  49.8563385  30.6775856  41.2306356
  49.2248583  29.8303342  41.4537954  51.1494493  30.4805803  40.6693411
  51.5038586  29.4755530  40.4940891  51.9792652  31.6047668  40.3492975
  52.9642153  31.5077424  39.9170303  51.5744066  32.9281688  40.7023239
  53.6387539  33.3675480  37.7005792  54.6638060  32.6400971  37.6385522
  52.5020695  32.9602146  37.1060371  51.1332798  33.5039854  37.2881365
  51.0577822  34.3611288  36.6190290  50.8924723  33.8771939  38.2835412
  50.1772738  32.3840165  36.9663978  49.2970848  32.8803992  36.5577722
  50.0735331  31.6649175  37.7789474  50.9652853  31.6120648  35.8707666
  50.8503389  32.0213079  34.8670697  50.5243683  30.6161380  35.8280706
  52.4055004  31.7169070  36.2613869  52.5165415  30.9479880  37.0259333
  53.4331751  31.6930223  35.0928187  53.8531494  30.6646180  34.5967007
  53.9579344  32.8441668  34.7064281  53.5676813  33.6711478  35.1352692
  54.7656298  32.9815745  33.5103846  54.7665024  32.0611930  32.9264355
  54.0811348  34.0941429  32.6493502  54.2750072  35.0653958  33.1045222
  54.6295166  34.0907145  31.7073512  52.5929928  33.7803793  32.5321126
  52.1886206  32.6729107  31.7907023  52.8148127  31.9516325  31.2866783
  50.8596992  32.3621821  31.6874480  50.5702305  31.6124630  30.9659719
  49.8488092  32.9738951  32.4074697  48.7870264  32.7957177  32.3222232
  50.2347755  34.1121507  33.1270266  49.4995880  34.6843886  33.6733317
  51.6002941  34.4824910  33.2508850  51.8135738  35.2122021  34.0179777
  56.2511539  33.1148624  33.8001156  57.1006966  33.2415819  32.9305673
  56.6868162  33.1201887  35.0816274  56.0026979  32.8404069  35.7699633
  57.9945469  33.4862971  35.5831003  58.4585714  34.2791176  34.9963951
  57.8062344  34.0932536  36.9969654  57.2017860  33.4096384  37.5931263
  58.7906075  34.1672850  37.4591804  57.3016167  35.5100632  37.1426439
  56.8081760  36.2853837  36.0887694  56.5281820  35.7500720  35.1935315
  56.3878059  37.5848937  36.3208580  55.9578037  38.1402707  35.5004573
  56.4470291  38.1149101  37.6433396  56.0056925  39.3835998  37.7555728
  55.8489084  39.7532105  36.8835568  56.9159365  37.3445606  38.7363195
  57.0407343  37.7634001  39.7239447  57.4584055  36.1048913  38.4195638
  58.0832481  35.5889130  39.1335201  58.9822149  32.2652936  35.5845380
  60.1137638  32.5004458  36.0538173  58.5808086  31.0724044  35.2296376
  57.6225901  31.0128927  34.9159932  59.3131638  29.7929645  35.1252365
  60.2645397  29.8851609  34.6013236  59.7486019  29.1947699  36.4656234
  60.2708578  28.2635880  36.2459683  60.4800701  29.8423481  36.9490409
  58.6161995  29.1188526  37.4948549  58.5439682  30.0936842  37.9771328
  57.7305269  28.8586283  36.9152308  58.9022303  27.8835821  38.4241128
  58.8843775  26.9176316  37.9194093  59.8671627  28.0421042  38.9056516
  57.8141165  27.9013371  39.5035529  57.9749584  28.7276864  40.1959229
  56.9032478  28.2124758  38.9920735  57.6911020  26.5558147  40.1360655
  57.3435163  25.9186506  39.4337082  58.5833120  26.1524558  40.3837872
  57.0758677  26.5667653  40.9369802  58.5930061  28.6773109  34.3175912
  57.3873997  28.7433815  34.2073059  59.2906046  27.7327919  33.6466646
  60.6796646  27.5371575  33.6520028  60.9492731  27.1703744  34.6423984
  61.2043333  28.4705472  33.4480333  60.8865404  26.6043019  32.4717402
  61.8211746  26.0585165  32.6008725  60.9853172  27.1252561  31.5193987
  59.7393370  25.7155275  32.5194478  60.0083590  24.8865676  33.1740880
  59.4365454  25.2709079  31.5714335  58.6433554  26.6163278  33.0277443
  58.0639839  27.0186043  32.1967173  57.7383041  25.8391929  33.9779449
  58.0756283  25.7380557  35.1257181  56.5534782  25.4835367  33.4757161
  56.5183449  25.6034517  32.4734759  55.5140734  24.6150970  34.0663004
  54.9324179  25.1107550  34.8435426  54.3749332  24.3669820  33.0063176
  54.7484159  24.2898774  31.9852042  53.4861851  23.1622195  33.2649326
  52.6823473  23.1831884  32.5290632  53.9687634  22.2014594  33.0855942
  53.0398464  23.2545447  34.2550635  53.4593630  25.6962681  32.8755307
  52.6958704  25.5887437  32.1050596  52.8975201  25.8810830  33.7911057
  54.0715790  26.5609264  32.6192856  56.0617304  23.3670878  34.6100974
  56.7282104  22.6615548  33.8625693  55.7230234  22.9321027  35.8070493
  54.9778938  23.4749651  36.2195849  56.1067104  21.6894245  36.4447880
  57.1188545  21.3958812  36.1664057  56.2592363  21.9227028  37.9574108
  55.2932119  22.2075272  38.3742833  56.5564251  20.9975243  38.4511948
  57.2867441  22.9898500  38.3867240  58.4751749  22.7972698  38.0913353
  56.8287373  23.9534426  39.0700221  55.1737642  20.5135179  36.1275053
  54.4281101  20.1701784  37.0444489  55.1000118  20.0219250  34.8614240
  55.7420683  20.3901172  34.1741824  54.0389729  19.0911937  34.4907737
  53.1264496  19.6808696  34.5784211  54.3752527  18.6036897  33.0868721
  55.3221416  18.0707121  33.1730986  53.6850071  17.8197193  32.7753448
  54.4202328  19.4980872  32.4654794  53.9161634  17.8754938  35.4558778
  52.8160572  17.4751687  35.8423591  55.0949287  17.2518575  35.8672309
  55.9701872  17.6064599  35.5090690  55.1345062  16.2299287  36.8584204
  54.5732069  15.3977323  36.4335728  56.6039515  15.8043218  37.1483541
  57.1970654  15.7378614  36.2362695  57.1529102  16.5976572  37.6556611
  56.7164087  14.4856644  37.9476261  57.7687454  14.3170118  38.1761789
  56.1824656  14.6501470  38.8835478  56.2334681  13.2996178  37.1974397
  55.9083128  12.3905134  37.9635620  56.0930347  13.2010424  35.9755850
  54.4214630  16.5985119  38.1439447  53.5694313  15.8516216  38.6072159
  54.7356129  17.7476692  38.6825705  55.2849960  18.3477283  38.0840683
  54.3729544  18.1785154  40.0337076  54.5104361  17.2906160  40.6508255
  55.4021883  19.2512631  40.5840111  56.4215565  18.8887906  40.4512978
  55.3089094  20.2096081  40.0731516  55.2321196  19.5139539  41.6281223
  52.9593325  18.6422217  40.0721931  52.3111725  18.7048781  41.1696911
  52.4353838  19.1288280  38.9637423  53.0478764  19.0540552  38.1641412
  51.0835505  19.5842063  38.7208986  50.5794477  19.8462927  39.6511078
  51.1503124  20.8429408  37.8495407  51.6844845  20.6254363  36.9246364
  50.1777220  21.2534356  37.5781298  51.9998407  22.0305157  38.4640646
  52.9790545  21.7077613  38.8177156  52.2971058  23.1566262  37.5081921
  51.4181376  23.5319614  36.9841313  52.8667259  23.9359426  38.0144596
  52.9477692  22.6234412  36.8150473  51.3685131  22.6554155  39.7252607
  51.9920540  23.3804607  40.2483273  50.4855156  23.2254672  39.4363594
  50.9499168  21.8810272  40.3680611  50.2488279  18.4287739  38.0423856
  49.0631390  18.6298466  37.7969027  50.8580256  17.2748494  37.7266073
  51.8627310  17.2153640  37.8110838  50.1609945  16.0110867  37.1708894
  50.9188080  15.2576971  36.9559002  48.9696503  15.4682863  38.0520511
  48.2688808  16.2970972  38.1525421  48.5153008  14.5970464  37.5802422
  49.2841911  15.0149357  39.5141840  49.7725201  15.8540511  40.0096846
  48.3289671  14.8050237  39.9954367  50.1602507  13.7781477  39.6024871
  50.2536869  13.0186892  38.6193109  50.7461882  13.5608888  40.7045269
  49.5808077  16.2646914  35.7325459  48.5795450  15.6454420  35.2528954
  50.1537323  17.1263242  34.9199677  50.8821487  17.6657736  35.3655005
  49.5543718  17.6662469  33.6718893  48.4717941  17.6060331  33.5600686
  49.8165464  19.1852009  33.5050869  50.9003782  19.1552234  33.3932590
  49.3862724  19.5574927  32.5753784  49.3396950  20.0800252  34.6843076
  49.8313379  19.6553898  35.5595636  49.8236990  21.5387297  34.5022869
  49.3156099  21.9851875  33.6475277  49.5376968  22.1451688  35.3616691
  50.9108353  21.4840055  34.4454098  47.7646828  20.0815630  34.7484803
  47.3116636  20.2726221  33.7756610  47.4830866  19.1011310  35.1326132
  47.5089407  20.8462214  35.4819655  50.2052641  16.7961049  32.5954771
  51.0515118  17.2136641  31.7862749  49.8550510  15.5455506  32.6087093
  49.4588327  15.3304553  33.5125089  50.5101490  14.4493198  31.9205260
  51.5514946  14.7573054  32.0145798  50.2852535  13.0195391  32.5173187
  49.2115021  12.8355074  32.5532413  50.8089495  12.2533417  31.9456673
  50.9304428  12.8677809  33.8636041  52.2852802  12.8565919  34.0757585
  52.3834419  12.9240453  35.3983140  53.2942724  12.8256524  35.9702563
  51.2051535  12.9538023  36.0171294  51.1640787  13.1439698  37.0082164
  50.2277422  12.9692900  35.0574613  49.1570234  13.0447388  35.1769376
  50.3851128  14.4596243  30.3655624  51.1649752  13.7999368  29.6670794
  49.5180988  15.3102827  29.8202181  48.9143753  15.8166754  30.4520273
  49.3405056  15.5984223  28.4242129  50.0477505  14.9748051  27.8774023
  47.9177094  15.2392828  27.9619455  47.7504015  15.3327799  26.8889284
  47.8202009  14.1730344  28.1661725  46.8429756  16.1000776  28.7198138
  45.6827402  15.8099902  28.3152103  47.1546888  16.9081008  29.5855665
  49.7490835  17.0271122  27.9942751  49.5471144  17.3730946  26.8697000
  50.3858471  17.8229249  28.8919997  50.6504536  17.5462401  29.8266292
  51.1311007  19.0307295  28.3821177  50.3571177  19.6673977  27.9535031
  51.6679049  19.6735060  29.7130871  50.8290958  19.8398221  30.3889799
  52.3010159  18.9645779  30.2466536  52.3024654  21.0570478  29.5173120
  53.6929226  21.1195850  29.5555615  54.2632532  20.2305841  29.7809553
  54.3539381  22.3474312  29.2710686  55.3902626  22.4363804  28.9803457
  53.6067247  23.5182953  29.1039419  54.2732382  24.6673155  28.8185382
  55.0700998  24.7977614  29.3377662  52.2021055  23.4849739  29.0796542
  51.6464663  24.4060206  28.9829898  51.5410042  22.2436142  29.3491483
  50.4756212  22.1835446  29.5157576  52.2465181  18.8091373  27.3651838
  52.4559832  19.5351791  26.4033914  52.9949236  17.6680779  27.5112629
  52.7820730  17.1523488  28.3531761  54.0845060  17.2680175  26.5286398
  54.6586180  18.1851840  26.3971090  55.0151825  16.3004839  27.1574187
  55.2260447  16.6253853  28.1762791  54.5159674  15.3380489  27.2696877
  56.3030481  16.2393832  26.4491081  57.1244669  17.3382461  26.0642815
  58.2215023  16.8195415  25.4397368  58.9339399  17.4380469  24.9141121
  58.2547283  15.4948568  25.5858827  58.9682961  14.9230242  25.1570129
  57.0339012  15.1110816  26.0902238  56.6381931  14.1125202  26.2028980
  53.5983229  16.7990887  25.2363586  54.3153906  16.7373097  24.2451644
  52.2693920  16.4326859  25.1194119  51.6123390  16.7322242  25.8255649
  51.7795467  15.9484804  23.7964869  52.6687193  15.6044507  23.2681656
  50.9687042  14.6228099  23.8538718  49.9166441  14.7867715  24.0871000
  51.0011721  14.2932105  22.8154063  51.5874243  13.5371315  24.7557735
  52.8595591  13.4285021  24.9152994  50.8058786  12.8020906  25.4211402
  50.9752989  17.0547450  22.9898381  51.0138416  17.0691609  21.7989850
  50.3363895  18.0037498  23.6867666  50.3082752  18.0532396  24.6951604
  49.6765709  19.1508937  23.0086970  49.1672754  18.7907875  22.1148086
  48.4635019  19.5613027  23.8840961  48.8773632  19.7669101  24.8712850
  47.7372169  20.8026028  23.4362197  48.3385038  21.7117167  23.4443927
  47.2816372  20.5804062  22.4712420  46.9566488  21.0713148  24.1479826
  47.3913860  18.4429824  23.9701772  46.7082071  18.4530556  23.1209016
  47.8793955  17.4740207  24.0753126  46.5645409  18.6006951  25.1604772
  45.9812784  17.6923048  25.3112698  47.0903873  18.7122428  26.1087084
  45.8895493  19.4505835  25.0595927  50.7423592  20.2370501  22.7081370
  50.8452511  20.8540154  21.6355014  51.5398645  20.6331515  23.7354779
  51.3615656  20.1664758  24.6132731  52.5581884  21.7518783  23.6382294
  52.2638607  22.4323583  22.8392196  52.6355743  22.5701118  25.0418687
  53.0740261  21.9500351  25.8237720  53.5882711  23.7469459  24.8122883
  53.5393572  24.4135714  25.6732869  54.6000576  23.3456087  24.7547245
  53.2327175  24.2278290  23.9010024  51.2280321  23.1623483  25.3727269
  50.6254435  22.2797298  25.5871439  51.3872814  23.7196827  26.2958312
  50.6157780  24.0559459  24.2736506  51.1346960  25.0122476  24.2080045
  50.6537962  23.6116385  23.2790422  49.5889997  24.2634845  24.5749044
  53.8794708  21.2800145  23.0929923  54.7340202  20.7849121  23.8015485
  54.0265560  21.4834285  21.7972779  53.2112074  21.7978644  21.2908816
  55.2493382  21.2925196  21.0054207  55.6014061  20.2648187  21.0947537
  54.9398088  21.3966346  19.5086622  54.7198486  22.4174809  19.1962504
  55.8047056  21.1408544  18.8965940  53.7431097  20.5489111  19.0604091
  52.8463602  20.8791804  19.5846832  53.6046171  20.8583570  18.0244732
  53.8647938  19.0877485  19.4144833  53.9661169  19.0266085  20.4980421
  52.9575491  18.5878122  19.0752649  55.1695919  18.5735857  18.9071238
  55.1440239  18.6793995  17.8225720  55.9161949  19.2856109  19.2588377
  55.5115175  17.2325790  19.4156373  54.7086191  16.6499221  19.2259848
  56.2610912  16.8438339  18.8614523  55.8657646  17.2933471  20.3595209
  56.4193439  22.2404289  21.3562775  57.5710249  21.8065882  21.3494158
  56.2379122  23.5606503  21.6846848  55.2774620  23.8651967  21.6147470
  57.3825169  24.4414973  22.1756530  58.2183123  23.8785076  22.5910997
  57.9468346  25.3105664  21.0912585  57.8959703  24.7562551  20.1541090
  57.3243666  26.1938763  20.9484339  59.4048500  25.6544399  21.3394213
  60.4596472  24.8547721  20.8385825  61.6088152  25.4530430  21.1779094
  62.5622416  24.9995732  20.9504318  61.2925100  26.6170478  21.8315864
  61.9258738  27.2927499  22.2345567  59.8974609  26.7205620  22.0387173
  59.3478489  27.5143075  22.5227666  56.9008064  25.2746105  23.4381819
  56.3998938  26.3710737  23.2890773  57.0725870  24.6900654  24.6540689
  57.9339790  23.5347295  24.9456143  58.9743376  23.5763812  24.6230888
  57.4388790  22.6321959  24.5872736  58.0618906  23.4845662  26.4462090
  59.0154457  23.9617395  26.6723394  57.9732752  22.4336767  26.7216587
  56.8663216  24.3088746  26.9689751  57.1347380  24.7606325  27.9239464
  56.0228539  23.6311746  27.1008515  56.6830540  25.3336287  25.8993626
  55.6387949  25.6171155  25.7679963  57.4995947  26.5915275  26.1575913
  58.7098503  26.6973734  25.8575773  56.9036388  27.5947809  26.7324829
  56.0484171  27.4054813  27.2353411  57.4832916  28.9369893  26.6026211
  58.5685730  28.8989830  26.6965437  57.1084976  29.5463467  25.2622509
  57.5338411  28.9171815  24.4803739  56.0412550  29.6079564  25.0494003
  57.6317596  30.9759140  25.0132227  57.5150633  31.1172009  23.9387369
  57.1250010  31.7170691  25.6312656  59.4264030  31.0226679  25.3160310
  59.9749517  30.0827742  23.8839936  59.5975637  30.3644848  22.9009795
  61.0639906  30.0959229  23.9278126  59.6987772  29.0424609  24.0559721
  56.9194794  29.8320723  27.7285624  55.7032824  29.8848081  27.9951549
  57.8439999  30.5318117  28.4236526  58.8182592  30.4018617  28.1912136
  57.5726891  31.4106798  29.5013380  56.5625048  31.8025517  29.3827319
  57.7187061  30.6033897  30.7392883  57.3376179  31.1530113  31.5999770
  57.1397638  29.6872330  30.6227136  59.1837978  30.1641846  30.9431386
  59.7411776  30.8713865  31.8337440  59.6841955  29.3028116  30.1911974
  58.5831594  32.6191401  29.5197773  59.5691490  32.7144980  28.7939215
  58.3258152  33.5588217  30.4363108  57.6163292  33.2997537  31.1068511
  59.1509962  34.7492838  30.6421089  59.2159128  35.0871158  29.6078205
  58.4761858  35.8419561  31.5156984  58.3781242  35.4826117  32.5400782
  59.2210484  36.6355276  31.5750504  57.2242212  36.4795184  30.9927678
  56.4203119  35.8217859  30.6622767  56.6988945  37.2481370  32.2937965
  56.5491104  36.5697813  33.1337404  57.3731613  38.0628490  32.5578260
  55.7656336  37.7468061  32.0321560  57.5012827  37.5795436  29.9920511
  56.6942596  37.6845026  29.2669272  57.6792049  38.5243607  30.5056357
  58.3742952  37.3120952  29.3967247  60.5774212  34.4646788  31.0874391
  61.5057755  35.1892209  30.6262898  60.8060598  33.4388185  31.9149804
  60.0483561  32.7977347  32.1020579  62.2137499  33.0531430  32.0929909
  62.6579285  33.9715433  32.4768496  62.3697233  32.0111895  33.1520653
  63.4348631  32.0742917  33.3747649  61.8191051  32.4438787  33.9873481
  62.0179844  30.7056379  32.7785683  61.1408091  30.6843138  32.3890710
  62.9923964  32.6715779  30.7915330  64.1227579  33.1636286  30.5813646
  62.3932600  31.8159819  29.9109316  61.4667749  31.4923811  30.1497149
  63.0276585  31.4048338  28.6556530  63.9982414  30.9297061  28.7982154
  62.0206261  30.3929901  28.0285048  61.0453796  30.8654451  28.1459212
  62.2322702  29.9520874  26.5605330  61.4221144  29.2846680  26.2667894
  62.1838999  30.7845473  25.8585548  63.2397127  29.5388746  26.5114665
  61.9534397  29.1499114  28.6678147  61.3002920  29.2415333  29.3653846
  63.2409954  32.5491118  27.7011800  64.3667507  32.8047395  27.2363567
  62.2461748  33.4132242  27.4857664  61.3504171  33.1671119  27.8821874
  62.2973537  34.7663856  26.8058681  62.5490856  34.6256876  25.7547045
  60.9758425  35.5456257  26.9881439  60.6154442  35.6900406  28.0066538
  60.9675741  36.9340110  26.3974977  61.4196110  37.0167994  25.4091048
  59.9665356  37.3327708  26.2331414  61.5291262  37.6189613  27.0327973
  60.0051022  34.6838689  26.1723065  59.9589062  33.6499691  26.5143871
  58.9949703  35.0476241  26.3604975  60.2865696  34.7452831  25.1210666
  63.4267187  35.5881357  27.4061298  64.2197132  36.0822392  26.5689111
  63.6124086  35.6772447  28.7418652  62.8677988  35.3538704  29.3427682
  64.6821260  36.3893652  29.4124722  64.8203564  37.3138952  28.8519049
  64.3081951  36.7376947  30.8156300  63.4223461  37.3727703  30.8087897
  64.0302277  35.8139658  31.3231301  65.3982544  37.4896669  31.6820192
  66.2915516  36.8651271  31.6736746  65.7312584  38.4131145  31.2082553
  64.9087811  37.7157593  33.0923080  63.8207674  37.7773523  33.1153750
  65.1416302  36.8863964  33.7601709  65.6850815  38.9834452  33.6059618
  65.5145454  39.8359585  32.9485130  65.1266003  39.3000245  34.4868612
  67.0727301  38.7928939  33.9296103  67.1745920  37.9847050  34.5267320
  67.5619459  38.6957359  33.0513573  67.4993086  39.6185493  34.3251157
  66.0574293  35.6892586  29.2834783  67.0460844  36.4432502  29.0733266
  66.1415195  34.4030380  29.3406773  65.3140879  33.8314128  29.4339466
  67.3977184  33.6817527  28.9721704  68.1935167  33.8373256  29.7005939
  67.2186565  32.1214390  28.9872646  66.7921591  31.9139528  29.9686718
  66.5076447  31.7788243  28.2354808  68.5449553  31.2814355  28.8955903
  69.0475178  31.3609123  27.9316306  69.3166351  31.7269444  29.5233870
  68.2880640  29.7899103  29.1388941  69.2504692  29.2801261  29.0942073
  67.8909540  29.5977688  30.1356316  67.3916340  29.2384887  28.1340027
  67.6196861  29.4857335  27.1816587  66.2907791  28.5321307  28.3176398
  65.6400824  28.0064988  27.3387814  66.0316133  28.0186987  26.4078379
  64.9592209  27.2821259  27.5171351  65.8482552  28.2472157  29.5129633
  66.2685108  28.7481093  30.2827668  65.0152159  27.6891589  29.6342850
  67.9082012  34.1038895  27.5464630  69.1659594  34.3556547  27.3605418
  66.9804764  34.1712046  26.6150022  65.9788799  34.0452862  26.6473913
  67.4566841  34.5424438  25.3137898  68.3663082  33.9596987  25.1685596
  66.4136553  34.1044378  24.2385364  65.4647636  34.5071602  24.5928216
  66.6632318  34.4122696  23.2231236  66.1639738  32.5692201  24.1069436
  67.0784426  32.1053505  23.7372541  65.8958960  32.1788144  25.0886846
  64.9585485  32.3266554  23.1303954  63.9901447  32.6925492  23.4715939
  65.1358604  32.7947259  22.1621132  64.7769070  30.8548474  22.8142595
  65.7040405  30.4039264  22.4604249  64.5594120  30.3638935  23.7628150
  63.6897612  30.6518936  21.8570256  63.9849329  30.7027984  20.8924651
  63.3785343  29.6921492  21.9031882  62.9477739  31.3234425  21.9933081
  67.7228975  36.0261989  25.1392102  68.6678028  36.3323021  24.4232011
  66.9516182  36.8657708  25.7911062  66.0970449  36.5458727  26.2240887
  67.2531843  38.3213782  25.8370924  67.3541307  38.5999537  24.7881365
  66.1391783  39.1099548  26.4651394  65.8059645  38.5146403  27.3152423
  66.4823246  40.1288509  26.6446066  64.9936104  39.3092203  25.4465365
  64.9173832  38.3983636  24.8527098  64.0668535  39.5713568  25.9569383
  65.1408577  40.8148050  24.4700003  64.3143368  42.0277023  25.4996419
  65.0218534  42.4732399  26.1989355  63.9707804  42.7533913  24.7624516
  63.5178089  41.5888453  26.1005211  68.6690807  38.5379171  26.4023781
  69.5375252  39.2121720  25.8420897  68.9722347  37.9660702  27.5975490
  68.1996202  37.4406457  27.9810786  70.2407598  38.1903982  28.3764338
  70.5549097  39.2336798  28.3452630  70.0470257  37.7660108  29.8164582
  69.5680332  36.7880797  29.8646593  71.0658693  37.6237893  30.1767802
  69.2688942  38.8140726  30.5937696  69.0207672  38.4933949  31.7657757
  68.8932753  39.8779130  30.0885248  71.4651394  37.5718498  27.6355958
  72.5881529  38.0012727  27.7340364  71.1430073  36.5213227  26.8057394
  70.2605486  36.0435319  26.9201159  72.1106625  36.0233498  25.8957911
  73.1359768  36.0720325  26.2624884  71.8161154  34.9839306  25.7510471
  72.1570158  36.7282963  24.5114493  73.1198072  36.5418363  23.7402630
  71.1773443  37.6599860  24.2898870  70.5131531  37.9183817  25.0055623
  71.1199999  38.5228944  23.0617356  70.3377438  39.2754626  23.1608272
  72.4177790  39.2484879  22.8835297  73.2647133  38.6223412  22.6029015
  72.3256397  39.9977040  22.0972180  72.8446102  40.0716162  24.1028643
  72.9264688  39.3934369  24.9522591  73.8438845  40.4165983  23.8372684
  71.8579054  41.2609339  24.3281102  71.7924643  41.7581177  23.3603144
  70.8972883  40.8227015  24.5987749  72.3595524  42.0995283  25.4651260
  73.0726051  42.7846575  25.2595615  71.9318438  42.1937513  26.6793299
  70.8557796  41.5074682  27.0920897  70.2695942  40.9968185  26.4473200
  70.4924583  41.7924690  27.9903507  72.3731852  42.9606867  27.5831676
  73.2520485  43.4441471  27.4650145  71.7819166  43.0684280  28.3948970
  70.7069826  37.7216744  21.8260098  71.0088539  38.1492758  20.7163525
  70.0312853  36.5717196  22.0208549  69.8582649  36.2809134  22.9724836
  69.7505951  35.5389190  21.0530090  70.7092428  35.3393149  20.5742002
  69.3240595  34.2852759  21.7877626  68.6625528  34.6132159  22.5896120
  68.7468004  33.6023188  21.1645103  70.6174850  33.7389898  22.4562168
  71.1897421  34.5020390  22.9838419  70.2820683  32.9951501  23.1789184
  71.4954329  33.0704618  21.4315414  71.4559603  31.8331742  21.3431239
  72.4286604  33.7722611  20.9727836  68.7889338  35.9400630  19.8885536
  68.9840317  35.5682325  18.7051892  67.8029585  36.7656398  20.2238774
  67.7063227  37.1395254  21.1571360  66.8985033  37.3538017  19.1946340
  66.5666389  36.5500808  18.5373676  65.5777121  37.9144311  19.8815095
  65.9049749  38.7245822  20.5331635  64.8946095  38.3778572  19.1696751
  64.7100163  37.0365930  20.7915878  64.3899775  35.6771827  20.4111290
  64.7120428  35.3595901  19.4304097  63.6329699  34.8922729  21.2847352
  63.4278154  33.8568926  21.0560203  63.1163073  35.4020715  22.5487351
  62.3127937  34.6150994  23.3778214  61.9250631  33.8802958  22.8968549
  63.4997606  36.7468953  22.9012299  63.2303238  37.2254515  23.8311768
  64.2618513  37.5030899  22.0143080  64.5314455  38.5019970  22.3239923
  67.5980377  38.4017730  18.3365405  68.2986403  39.3317294  18.8391483
  67.4214792  38.4670591  17.0124006  67.1878386  37.3062539  16.1642444
  66.1535931  37.0338464  16.3745940  67.7890968  36.4382410  16.4346862
  67.5722456  37.7494621  14.7207856  66.7183113  38.0477595  14.1125762
  67.9573727  36.8429923  14.2537892  68.5747433  38.8045740  14.9893117
  68.7618876  39.5060945  14.1763258  69.4608498  38.3030391  15.3783870
  67.9651928  39.5211458  16.1828649  68.7964058  40.0556707  16.6427243
  66.8918800  40.5739164  15.8095551  67.1446228  41.4956665  15.0291228
  65.6258297  40.3741693  16.3178086  65.4993629  39.5290399  16.8562078
  64.4514990  41.0756111  15.9673285  64.6836901  42.1217632  15.7679355
  63.9711857  40.5145502  14.5966291  64.7978449  40.5687428  13.8882470
  63.5967827  39.5021272  14.7480130  62.8499079  41.2654781  13.9224946
  62.3314524  42.2682858  14.4747877  62.4470568  40.6638718  12.8496885
  63.3926725  40.9884930  17.0077205  63.0844116  39.9581218  17.5712347
  62.8366089  42.1209860  17.3766088  63.2302094  43.0004263  17.0736933
  61.6737747  42.2528458  18.2624817  61.8861341  41.8896723  19.2680204
  61.3332844  43.7227154  18.3722985  61.3199949  44.2113543  17.3980534
  60.3521776  43.7857628  18.8429928  61.9980097  44.3390560  18.9775789
  60.4927206  41.5295601  17.6742530  59.7202253  41.0084248  18.4161484
  60.4110241  41.3066721  16.3644278  61.1155415  41.7188883  15.7695901
  59.5540047  40.2725935  15.7323802  58.5668373  40.6328678  16.0218680
  59.6328783  40.3730249  14.2381060  59.8693180  41.3809013  13.8969517
  60.5228138  39.7877264  14.0067375  58.3961582  39.7927499  13.4972584
  58.6480856  39.5627475  12.4620128  58.0999660  38.8505650  13.9584041
  57.2263670  40.7447624  13.4844780  57.3624134  41.9366312  13.5739791
  55.9915686  40.3094673  13.4750748  55.2633953  40.9988308  13.3540988
  55.7444286  39.3314719  13.4245205  59.6844864  38.8439918  16.2644625
  58.6969614  38.1066155  16.3742161  60.9133196  38.3880997  16.5413260
  61.6636562  39.0467429  16.3887274  61.2468338  37.1527267  17.1431315
  60.8089924  36.3101411  16.6079259  62.3174810  36.9727397  17.2402167
  60.8063984  37.0295501  18.5873222  60.2741861  36.0165405  18.9922655
  61.0748959  38.1332541  19.3413436  61.6780615  38.8736558  19.0125513
  60.5674458  38.3224368  20.6321049  60.9202337  37.4981046  21.2518764
  61.1994743  39.6100116  21.2414956  62.2796202  39.4656014  21.2645769
  60.9428310  40.4996443  20.6663537  60.6884718  40.0259209  22.6482415
  61.4473677  39.7230983  23.7881899  62.3597908  39.1452932  23.7930155
  60.9518194  40.1584625  25.0422192  61.5178013  39.9830627  25.9451580
  59.8107481  40.9419918  25.1250863  59.4719267  41.3721180  26.0559988
  59.0171480  41.2837029  23.9983511  58.1977558  41.9870853  24.0139508
  59.4322300  40.7599211  22.7680802  58.8277578  40.9393263  21.8912506
  59.0685749  38.3089352  20.7812834  58.5703850  37.6277733  21.6853738
  58.3740044  39.0224361  19.8501790  58.9109945  39.6096110  19.2281139
  56.9039392  38.9389563  19.6523881  56.3953161  39.3076730  20.5431461
  56.3552189  39.8423600  18.4520316  55.2702761  39.8662162  18.5541642
  56.6440725  40.8874846  18.5633183  56.5228748  39.4831705  17.4366629
  56.5495825  37.4922657  19.5116937  55.7236052  36.9701767  20.2035546
  57.1911144  36.6847873  18.6374974  57.8722382  37.1436048  18.0495691
  56.7933655  35.3811097  18.2639992  55.7573032  35.4836798  17.9412770
  57.6285505  34.9527764  17.0316494  57.5576305  35.7795978  16.3249397
  58.6368179  34.7990036  17.4161673  57.1973610  34.0229607  16.6606796
  56.8269110  34.3864250  19.4885695  55.7457685  33.9147687  19.7644067
  57.9386902  34.3405437  20.2726793  58.7308884  34.8209453  19.8705101
  58.0173397  33.6516857  21.5782452  57.7207327  32.6085019  21.4692068
  59.4476795  33.6252475  22.1502471  59.8682547  34.6185303  21.9933844
  59.4476604  33.4301639  23.2226467  60.4128408  32.6704144  21.4410114
  60.0439167  32.1661997  20.3957820  61.5178204  32.4923849  22.0151544
  57.0895720  34.2781115  22.6332331  56.3192749  33.5002184  23.1394029
  57.0387220  35.5792046  23.0149627  57.5596476  36.2671089  22.4900484
  55.9719467  36.1311936  23.9210415  56.2720203  35.6163931  24.8337507
  56.1224699  37.6751733  24.2033291  56.0542822  38.2173157  23.2601738
  54.9473190  38.3220911  25.0514483  54.8166084  37.7224827  25.9522772
  55.1722431  39.3500257  25.3358102  53.9941025  38.3910584  24.5273113
  57.5130749  37.9963326  24.7992158  57.9271603  37.2741699  25.5028605
  58.2363844  38.0212712  23.9841628  57.6405478  39.0087461  25.1824522
  54.4902372  35.7616925  23.5655093  53.6719799  35.4992986  24.4748449
  54.1327715  35.8539724  22.3141408  54.7766018  36.2701154  21.6565585
  52.8736925  35.3631997  21.8502522  52.1069527  35.7521749  22.5202560
  52.5741196  35.9027076  20.4522157  53.3699322  35.8424783  19.7098196
  51.7118740  35.4372263  19.9747694  52.2541618  37.4235773  20.6494331
  51.2926388  37.4087906  21.1626124  52.9727030  38.0306339  21.2001491
  52.2345591  38.0695176  19.2139554  53.2529259  37.9117513  18.8587880
  51.4933443  37.5221205  18.6316752  51.7839003  39.5625687  19.2155850
  51.2492371  39.8938394  20.0058365  51.7833233  40.3415060  18.1220138
  51.1583805  41.4767599  18.1225049  50.5707073  41.7078114  18.9107680
  51.1491823  42.0112133  17.2655499  52.4009228  40.0667810  17.0244920
  52.9072475  39.1945529  16.9700909  52.2116232  40.5576134  16.1623144
  52.6492834  33.8502717  21.7486072  51.5237045  33.3978605  22.1082306
  53.7256098  33.0451679  21.4978623  54.5601082  33.4072995  21.0590172
  53.6494637  31.6255093  21.7737103  52.8684235  31.2743783  21.0993314
  54.9724436  30.9423041  21.2798929  54.9455643  30.8339477  20.1956248
  55.6847572  31.7344522  21.5105677  55.4760695  29.6305680  21.8785048
  55.4431963  29.5687246  22.9662514  54.6508551  28.5557342  21.2238264
  54.8965693  28.4749603  20.1649594  54.8771667  27.5970817  21.6905999
  53.6130524  28.8309693  21.4117599  56.7970467  29.4468403  21.3098478
  57.1402359  28.4318519  21.5101290  56.7828751  29.5179820  20.2222633
  57.4652815  30.1915836  21.7421818  53.3827162  31.3756561  23.2364774
  52.6354456  30.4574394  23.5341907  53.9205313  32.1135664  24.2646074
  54.5806122  32.8026128  23.9335418  53.7402773  31.9299412  25.7166147
  54.0485477  30.9273267  26.0129809  54.6003675  32.9142284  26.4827180
  55.6594658  32.6573992  26.5037894  54.4036818  33.9148450  26.0977650
  54.1609287  32.8968048  27.8994846  53.0904961  33.0667996  28.0151486
  54.3717337  31.8942523  28.2717061  55.0310278  34.0831280  28.8760710
  54.3800974  35.6564403  28.3103681  53.2945299  35.6441593  28.4078145
  54.7060204  36.4774132  28.9490199  54.6199369  35.9201932  27.2803116
  52.3252964  31.9989371  26.0893130  51.7897987  31.0735703  26.7137074
  51.5766096  33.0105472  25.5973554  51.9284105  33.6659527  24.9141431
  50.1571941  33.1995487  25.9159112  49.8104906  32.9162121  26.9097042
  49.6505260  34.6153975  25.6104946  49.7778797  34.8317289  24.5497990
  48.5781050  34.7764039  25.7204247  50.3820324  35.7491708  26.3803291
  50.2737951  35.8058500  27.7930188  49.6414518  35.1345754  28.3550978
  50.8658266  36.8570924  28.5364413  50.9098768  36.8038964  29.6142316
  51.5985537  37.8605556  27.8358984  52.0556784  38.6495638  28.4146047
  51.7159891  37.8231478  26.4408898  52.0942354  38.6332750  25.8350635
  51.1267805  36.7845058  25.7325077  51.0308218  36.8576670  24.6592689
  49.3364429  32.1632886  25.0716519  48.4609509  31.5499735  25.6563687
  49.6557522  32.0567131  23.7986779  50.3336143  32.7150655  23.4420633
  49.0218639  30.9892750  22.9146361  47.9596567  31.2234044  22.8439021
  49.5004559  30.8533812  21.5110373  50.5290699  30.4990768  21.5783429
  48.8080454  30.2341318  20.9407783  49.4825077  32.1692967  21.0169268
  50.2322674  32.6623917  21.3579798  49.0985680  29.5117378  23.4713411
  48.1291246  28.7510562  23.3685899  50.2719545  29.1331983  24.0408087
  51.0680151  29.7371531  23.8937545  50.4292393  27.8901267  24.7471476
  50.1051712  27.0158410  24.1826057  51.8408203  27.6374102  25.2430749
  52.1357918  28.5849643  25.6938934  51.9838667  26.8236971  25.9540653
  52.7529240  27.3425174  24.0742064  52.4569702  26.9828200  22.9414225
  54.0153265  27.4500608  24.3768692  54.7879505  27.1571708  23.7960315
  54.1460896  27.6779294  25.3521013  49.4751406  27.7386570  25.9539628
  48.8271332  26.7162681  26.0737824  49.2781448  28.8085818  26.7232680
  49.8483229  29.6185970  26.5261102  48.3322287  28.8335562  27.8687024
  48.4019089  28.0170584  28.5874438  48.5684633  30.1197958  28.6124206
  49.5712948  30.2719402  29.0115190  48.3227205  30.9885693  28.0017281
  47.4431467  30.1094127  30.0518203  48.3526087  29.5154476  30.8296251
  46.8651247  28.7123418  27.4902081  46.1044121  27.8537679  28.0082726
  46.4406252  29.4331861  26.4055657  47.0057154  30.1873279  26.0421777
  45.0851440  29.3200016  25.9820819  44.3934298  29.5799088  26.7833829
  44.8124409  30.3454542  24.8543525  45.5449200  30.1613641  24.0684199
  43.7798405  30.2459979  24.5197654  45.0266409  31.7784762  25.1986027
  44.4468164  32.2683954  26.3908386  43.9953661  31.6164517  27.1240258
  44.7131681  33.5730243  26.7821908  44.3418360  33.8300323  27.7632403
  45.4870415  34.4384241  25.9736395  45.8978367  35.6033397  26.5161419
  46.3837290  36.1542606  25.8980846  46.0081625  33.9873481  24.7268414
  46.5703487  34.5462608  23.9933848  45.7912970  32.6386881  24.4376230
  46.2025976  32.2503614  23.5176039  44.6963644  27.8932142  25.3853846
  43.5379219  27.4505877  25.5890656  45.6762171  27.3585582  24.6015334
  46.5476036  27.8542352  24.4787049  45.5066490  26.0620451  23.9638233
  44.5992231  26.0088658  23.3622694  46.6472292  25.8147192  22.9816198
  46.7358589  26.5909910  22.2215891  47.5615931  25.8747387  23.5719061
  46.4709520  24.4756746  22.2720742  46.5170574  23.6194611  22.9450345
  45.4772568  24.5427060  21.8291473  47.6002836  24.1666865  21.2549949
  47.8351736  25.0964975  20.7369471  48.5546732  23.8761759  21.6941333
  47.1646214  22.9956150  20.3880954  47.9300022  22.5657392  19.7419524
  46.8207455  22.2079587  21.0585046  46.1615610  23.5351110  19.4825256
  45.9034109  22.8959703  18.7443137  45.2791214  23.6860776  19.9500930
  46.5010357  24.2242980  18.8268757  45.3503084  24.9510789  24.9506354
  44.4839525  24.1532826  24.7710419  46.1505604  24.9836326  26.0411859
  46.8105507  25.7394648  26.1562443  46.1903381  23.9311099  27.0544076
  46.1041594  23.0128837  26.4734340  47.5151730  23.8551044  27.7339101
  48.3489513  23.7367797  27.0418763  47.6711893  24.7319221  28.3623600
  47.5401163  22.5841308  28.5756135  47.5627279  21.3355422  27.9248595
  47.5932360  21.3270116  26.8453240  47.6318216  20.1467586  28.7806606
  47.7512074  19.1523397  28.3765817  47.5636816  20.2475429  30.1445889
  47.5845909  19.0453827  30.8333135  47.3596668  18.3036196  30.2669215
  47.5280476  21.5060806  30.7975674  47.3900604  21.5174437  31.8686557
  47.5492859  22.6293254  29.9954391  47.4535799  23.5881186  30.4832435
  44.9707174  24.0214515  27.9710102  44.1350603  23.1555939  28.0556035
  44.9750137  25.0976753  28.7715554  45.7517004  25.7354927  28.6713266
  44.0727234  25.3056550  29.9057555  44.0422773  24.3782592  30.4776907
  44.5761728  26.3637304  30.8263350  44.3525457  27.3745680  30.4853082
  44.1079473  26.2216735  31.8003392  46.0244465  26.1309314  31.2685013
  46.4191055  25.3884363  32.1541691  46.9300461  26.7595291  30.6930280
  47.8688478  26.7596126  31.0655260  46.5964031  27.3764825  29.9662876
  42.6236963  25.5352807  29.4785190  42.3463392  26.0648203  28.4016156
  41.6437960  25.0204897  30.2499247  41.8333054  24.2805696  31.4325666
  42.5782394  24.7668219  32.0624304  42.0913219  23.2654023  31.1309600
  40.5763292  24.2037392  32.1611142  40.6269217  25.0714350  32.8188729
  40.5237865  23.2545781  32.6944327  39.4672990  24.4123602  31.1155248
  38.6688471  24.9767065  31.5972781  39.0853119  23.4787178  30.7026052
  40.1908016  25.2212214  30.0638938  39.8294544  24.8607302  29.1007829
  39.8749995  26.7385459  30.1776433  40.4977369  27.4597383  30.9095788
  38.8573551  27.3119879  29.4717455  37.8672647  26.5654111  28.7048507
  37.3164129  25.9038186  29.3733978  38.2574415  25.9805560  27.8718948
  36.9073391  27.6570439  28.1070137  36.1198473  27.9247761  28.8114834
  36.5366197  27.3956203  27.1158886  37.8431892  28.8379192  28.0249739
  37.2854257  29.7708297  28.1067157  38.4547710  28.7168837  27.1308708
  38.7016249  28.7324452  29.2303705  39.7088599  29.1048145  29.0434933
  38.1309509  29.4469213  30.4793596  38.2993174  30.6392145  30.6567144
  37.3883605  28.7470388  31.3798141  37.3486996  27.7409220  31.3006616
  36.8195295  29.2339540  32.6451993  36.4666152  30.2626991  32.5728583
  35.6495857  28.2288623  33.0288672  36.0785174  27.2530508  33.2567048
  35.1594186  28.4797764  33.9695477  34.5585632  28.0199885  31.9501662
  33.9742112  26.9073224  31.8893647  34.3346047  28.9775085  31.1792755
  37.9409719  29.2972660  33.8049269  37.5730848  29.8992300  34.8156452
  39.0794492  28.6359501  33.6486626  39.3985629  28.3930373  32.7217007
  40.1200819  28.5491681  34.6731496  39.6366692  28.3211088  35.6230998
  41.0127401  27.3772526  34.3904233  40.4198027  26.4632702  34.4245505
  41.4997482  27.4838495  33.4211159  41.9974518  27.1412444  35.4456496
  43.3543825  27.4126720  35.3212905  43.8507605  27.1190858  36.5474653
  44.8409176  27.4434090  36.8317270  42.9137230  26.4998364  37.3274159
  42.9705906  26.2438011  38.3027673  41.7098236  26.5411973  36.6416979
  40.7672834  26.2029004  37.0461369  40.8626032  29.9151540  34.8789787
  41.0088062  30.7159567  33.9399099  41.3231516  30.0635242  36.0959721
  41.3322210  29.2547679  36.7008948  42.1350098  31.1981344  36.5978909
  41.5737820  32.1248221  36.7177796  42.7626562  30.8311534  37.9547524
  43.1830215  29.8291135  38.0402946  43.5848045  31.5357471  38.0801272
  41.8216228  31.2802839  39.0796590  42.4516439  31.5479994  39.9278951
  41.2033796  32.1157694  38.7512589  40.8097982  30.1848936  39.4749093
  40.6811237  29.1525054  38.7693238  40.2100897  30.3081012  40.5833769
  43.1974506  31.5906572  35.5966854  43.1881189  32.7621317  35.1742435
  44.0337706  30.6709266  35.1778841  43.9993620  29.7329164  35.5507851
  45.2464056  31.0720468  34.4549203  45.7067108  31.8763685  35.0287604
  46.1744738  29.8309445  34.4848204  46.1027193  29.3167806  35.4432535
  46.0311794  28.7874722  33.3837295  46.5361214  27.8990030  33.7628841
  45.0190926  28.4624386  33.1426239  46.5603018  29.0892720  32.4798179
  47.6589251  30.1052833  34.3470430  47.9394913  30.7932425  35.1446009
  48.2767296  29.2156935  34.4697213  47.9864264  30.5829883  33.4236574
  45.0826979  31.6960859  33.0520272  46.0293198  32.2642493  32.5044656
  44.0176249  31.4836860  32.4246907  43.2481241  31.1164594  32.9660940
  43.6836338  32.0874333  31.1624026  44.5139170  31.9442487  30.4708648
  42.5936604  31.3001490  30.4473233  41.8299818  30.9509730  31.1422801
  41.8635321  31.9922757  29.3503737  41.2535858  31.2926841  28.7788486
  41.2286615  32.7260208  29.8470235  42.5672340  32.4990726  28.6900210
  43.1382179  29.9601054  29.9038887  42.4071503  29.5003271  29.2388678
  44.1077423  30.0260377  29.4101501  43.2898092  29.3196869  30.7727861
  43.2379627  33.6124945  31.2786508  43.5597849  34.4077373  30.4552317
  42.4625206  33.9509583  32.3274398  42.1804237  33.2697463  33.0177116
  42.4338102  35.3683019  32.7298379  42.0462227  35.9055471  31.8642473
  41.3716602  35.5050635  33.8532901  41.1405516  36.5624905  33.9819407
  40.4579830  34.9491978  33.6427975  41.7410374  35.1406765  34.8118734
  43.7983227  35.9455633  33.1351614  44.1540051  37.0139956  32.6826763
  44.5902157  35.1996875  33.9320660  44.2693853  34.3288326  34.3305373
  45.9035063  35.7029629  34.2540860  45.8750343  36.6767883  34.7429228
  46.6416121  34.7215295  35.1554465  46.7259169  33.7283063  34.7144246
  47.6627302  35.0398254  35.3654885  45.9328842  34.6472073  36.4892483
  46.0315847  35.6065321  36.9972396  44.8863792  34.4094419  36.2984633
  46.6295862  33.3107185  37.4319220  47.6734018  33.9011312  38.7231517
  47.0089293  34.2665696  39.5061183  48.3382320  33.1022930  39.0517282
  48.2809782  34.7487211  38.4060717  46.7719460  35.9968996  32.9719329
  47.4037647  37.0399880  32.9073358  46.5713501  35.1364899  31.9607162
  46.0898113  34.2700839  32.1545291  47.2381353  35.2927399  30.6101990
  48.3256340  35.3042865  30.6831074  46.9797182  34.0898609  29.7314143
  47.7962780  33.3727765  29.8158669  45.9830904  33.6891580  29.9165297
  47.0486736  34.3242550  28.6691523  46.7943287  36.5570903  29.8297715
  47.5662279  37.5368643  29.8345971  45.5295944  36.7144608  29.5062780
  44.9724388  35.8785725  29.4015431  45.0102472  37.9746914  28.8982534
  45.6084681  38.1612778  28.0063915  43.6062384  37.6947331  28.5528111
  43.5562229  36.7040038  28.1010890  42.9682493  37.7210283  29.4362020
  42.8195953  38.6341381  27.5727534  41.8699694  38.2075071  27.2498059
  42.5143862  39.5743775  28.0319905  43.5500145  38.7613201  26.2858248
  44.1660643  37.8923678  26.0545158  42.8087854  38.9184976  25.5022573
  44.4397116  39.9314737  26.2704730  44.5362091  40.4021120  27.1588898
  44.9254370  40.5069017  25.1887965  45.3625298  41.7080450  25.1740551
  45.3766012  42.2308016  26.0381317  45.6076336  42.1339750  24.2916703
  44.9825621  40.0011063  23.9937997  44.8435116  39.0080452  23.8729763
  45.3189039  40.5193377  23.1947947  45.1374626  39.2462158  29.6958613
  45.0083160  40.3478432  29.1292644  45.3105545  39.1508532  30.9844136
  45.3577852  38.2521248  31.4428425  45.6240463  40.3282976  31.9152212
  45.0860357  41.1692619  31.4776993  45.2042150  39.9368596  33.3740306
  44.1530609  39.6561813  33.3077455  45.7264471  39.0564394  33.7485170
  45.6039000  41.0172272  34.3766618  46.6697502  41.2432575  34.3454027
  45.1068354  41.9461823  34.0972447  45.1645899  40.6741714  35.8214402
  44.0906429  40.8563232  35.7819605  45.3574228  39.6223378  36.0325575
  45.8245230  41.4516878  36.9348478  45.7112551  40.7997322  37.8010011
  46.8147230  41.7415333  36.5832877  45.1652241  42.6950169  37.2399282
  45.3165436  42.8987503  38.2175255  45.3431797  43.4805441  36.6305208
  44.1749287  42.5015545  37.1954060  47.1279383  40.7841873  31.7599535
  47.3369551  41.9419813  31.6962695  48.0199242  39.8349071  31.6057467
  47.6670456  38.8986468  31.7435694  49.4497347  40.0931311  31.2740970
  49.6719980  40.9638596  31.8909693  50.2973461  38.9292455  31.8246698
  50.0379038  38.6602545  32.8486013  50.0493002  38.0016136  31.3088465
  51.7986727  39.1813517  31.7824459  52.1450472  39.5019960  30.7999444
  52.1408415  40.3300142  32.8051686  51.9026375  41.2713242  32.3098946
  51.5380764  40.1787138  33.7006497  53.1904078  40.2252769  33.0800104
  52.5935268  37.9934835  32.1854925  53.6765671  38.0759597  32.0942402
  52.2073030  37.6971650  33.1607533  52.1909523  37.1822238  31.5789533
  49.6582365  40.4303503  29.7706723  50.5227041  41.2051678  29.4111681
  48.8683414  39.9370694  28.8772821  48.2487774  39.1781545  29.1228104
  48.9765930  40.2383375  27.4150300  50.0455475  40.1446962  27.2235131
  48.2264709  39.1513133  26.5572500  48.4670019  38.1536055  26.9244337
  47.1762800  39.3047094  26.8055892  48.3255863  39.3175292  25.0236964
  47.7038145  40.1367140  24.6625304  49.3301868  39.6535039  24.7667813
  48.0544949  38.1076884  24.2037797  47.4164057  37.1031523  24.6493435
  48.4410763  38.0975389  22.9846334  48.3302164  37.2404671  22.4619126
  48.8195753  38.8799572  22.4701858  48.6037064  41.6231918  27.0245194
  49.3090534  42.2018290  26.1933160  47.6798487  42.2579384  27.7277613
  47.2952223  41.7122650  28.4856558  47.4819326  43.6732244  27.7202344
  47.1637249  43.9751291  26.7223883  46.3684082  44.1702175  28.6813235
  46.6176319  43.5939455  29.5723343  46.5044022  45.2249336  28.9204645
  44.8944139  43.8596106  28.3167315  44.8004341  42.9601812  27.4448037
  43.9915514  44.5115900  28.8641095  48.8591528  44.3969965  27.9614830
  49.1636801  45.2690649  27.1268606  49.6955681  44.0257025  28.9420295
  49.5668507  43.1188822  29.3677235  50.9188509  44.7180462  29.3380880
  50.8314562  45.7921648  29.5016050  51.3832855  44.1204500  30.6629038
  51.5534973  43.0549812  30.5082822  52.7394009  44.6207952  31.1746359
  53.4437752  44.6008444  30.3430367  52.6760769  45.7040119  31.2782311
  53.0822563  44.1291332  32.0850301  50.3319502  44.5117378  31.7167854
  50.5257130  43.8908243  32.5914454  50.4327297  45.5808449  31.9037604
  49.3021393  44.3254662  31.4120126  51.9415712  44.5809650  28.2007933
  52.8770208  45.4017782  28.0835009  51.7387676  43.6074162  27.3076439
  50.8330488  43.1611156  27.3319292  52.5966167  43.2675266  26.1282659
  53.5864687  43.7065315  26.2530446  52.7634382  41.7383909  25.8423615
  53.2510042  41.2959003  26.7110276  51.8102312  41.2113237  25.8010221
  53.4076929  41.5831184  24.4990706  54.7159338  41.9368601  24.3414402
  55.3098583  42.2435379  25.1897359  55.3114223  41.9357920  23.0311394
  56.3200855  42.2616577  22.8242326  54.6006966  41.4108610  21.9199586
  54.9536324  41.4226007  20.8993173  53.3418941  40.9157944  22.1895313
  52.7804947  40.4967308  21.3675690  52.7098274  40.9807253  23.4576201
  51.7243052  40.5561495  23.5796261  52.0094490  44.0176725  24.9125028
  52.6103163  44.9517059  24.3896890  50.8824968  43.5484934  24.3610954
  50.3226709  42.8391314  24.8122120  50.4593468  43.8867092  23.0384922
  51.1283398  43.3585596  22.3590684  49.0536404  43.3163548  22.9279113
  48.5014772  43.5258389  23.8440633  48.4424829  43.8131142  22.1743751
  49.0511847  41.7404175  22.6829076  49.5518160  41.3156700  23.5529947
  48.0298042  41.3618135  22.6436210  49.6394920  41.3445139  21.3158178
  49.5916748  42.1762323  20.4065776  50.0225449  40.1365185  21.2289882
  50.3168583  45.3054953  22.6365399  50.6493855  45.7201242  21.5449762
  49.8343992  46.0278511  23.6029196  49.6465015  45.5317354  24.4623756
  49.3468904  47.3747444  23.5405993  48.7843657  47.6537943  22.6496482
  48.3707476  47.6411009  24.7102213  48.7328005  47.2767305  25.6716013
  48.2577229  48.7073517  24.9062681  47.0767355  46.8938208  24.4677711
  46.6305590  47.2042608  23.5229707  47.2747469  45.8312702  24.3267727
  45.8519220  47.0886612  25.7826900  44.5980310  46.0875559  25.0574946
  44.4199276  45.2322578  25.7092953  43.7064838  46.7141771  25.0333738
  44.9231672  45.7107019  24.0877700  50.5944300  48.2419157  23.6380339
  50.6395960  49.3725538  23.0755925  51.6385078  47.8191090  24.3424654
  51.5862179  46.9204903  24.8005533  53.0380630  48.4468889  24.2097211
  52.9133940  49.5269775  24.2869449  53.9630890  48.1223059  25.4228425
  53.9828110  47.0606899  25.6691790  55.0069952  48.3042192  25.1673341
  53.5439825  48.9286852  26.7024493  53.4591818  49.9953175  26.4945960
  52.5994587  48.4695673  26.9943309  54.6003151  48.6375475  27.7745199
  54.6520233  47.5584364  27.9192114  55.5668163  49.1089916  27.5964093
  54.1388559  49.2722034  28.9238334  54.6432590  50.0993061  29.2094517
  53.1526661  48.9932108  29.7452235  52.4902964  47.8947353  29.7022271
  52.6471138  47.2240067  28.9635563  51.6932106  47.8402090  30.3201175
  52.8618717  49.7737360  30.7318974  53.5687828  50.4160261  31.0602832
  51.9909668  49.6473932  31.2275410  53.6958408  48.1120014  22.8825212
  54.2987204  49.0250254  22.2443175  53.5564566  46.9120646  22.4252748
  52.9809380  46.2719631  22.9536152  54.2059469  46.4202023  21.1643076
  55.2471161  46.7189074  21.2861729  54.2847490  44.8814869  21.1200261
  54.9371338  44.4961405  21.9036102  53.2726431  44.4799519  21.1701703
  54.9279451  44.3946266  19.8065102  56.2797928  44.2893267  19.7934735
  56.8540001  44.6677542  20.6262279  56.8618345  43.7945223  18.5748827
  57.9390907  43.7567139  18.5079396  56.0931063  43.4376955  17.5010896
  56.5943336  43.2088947  16.5722084  54.6740055  43.3390665  17.6852441
  54.0361071  42.9464388  16.9072151  54.0955353  43.8001204  18.8784266
  53.0494022  43.6021757  19.0595984  53.7069321  47.0490265  19.8982954
  54.3988848  47.2455788  18.8836682  52.4121189  47.3840332  19.9027431
  51.8584919  47.0332718  20.6712270  51.7560291  48.2364941  18.8083482
  51.7021132  47.6388884  17.8983653  50.3437281  48.6036491  19.2069173
  49.8520756  49.1397524  18.3951437  49.7438002  47.7335405  19.4735527
  50.3554106  49.3391514  20.0112796  52.5338936  49.5588589  18.5210192
  52.6009750  50.0224304  17.3697281  53.0857325  50.2043581  19.6063149
  52.9821444  49.7714090  20.5129170  53.9105988  51.4273691  19.6720064
  53.7800455  51.9031191  18.7000406  53.3953619  52.4242401  20.8199811
  53.7101698  52.0818758  21.8057704  53.8720369  53.4033775  20.7733250
  51.8747568  52.7496338  20.8428288  51.3434649  51.8619490  21.1861253
  51.6897249  53.4827614  21.6279292  51.2957191  53.3147287  19.5433533
  52.0398331  53.9159727  19.0209568  51.0129833  52.5503731  18.8195312
  49.9964094  54.1044807  19.8912549  49.1660357  53.5624123  19.4387722
  49.7972918  53.9138556  20.9458232  49.9731541  55.5030870  19.3857265
  49.0365219  55.8567667  19.5189357  50.5311489  56.0482073  20.0272799
  50.1817989  55.5243731  18.3977413  55.4329109  51.1210728  19.7378981
  56.1418629  51.7192459  20.5271006  55.9787941  50.1336956  18.9268064
  55.3742790  49.4158888  18.5534167  57.3545790  50.2404165  18.4793186
  58.0020332  49.7735071  19.2215466  57.4708986  49.2674685  17.3040736
  56.8198347  48.4130287  17.4888682  57.0250225  49.6546984  16.3879156
  58.8889360  48.7923956  17.0144033  58.9018917  48.2941580  16.0450256
  59.5270205  49.6684361  16.8981600  59.6382856  47.6820421  18.2141006
  58.8835096  46.0991240  17.7700698  57.8531647  46.2127542  17.4330497
  59.4635916  45.6323814  16.9739819  58.9580441  45.5140448  18.6867094
  57.9320383  51.6294193  18.2920051  57.2017527  52.4834299  17.7193975
  59.0717983  51.9945955  18.8933516  59.9852133  51.1939049  19.6751904
  60.1655865  50.2036953  19.2567992  59.6600771  51.0216427  20.7012105
  61.3216066  51.8745804  19.6565723  61.8350220  51.6408634  18.7238955
  61.8243504  51.5903950  20.5810094  60.7964277  53.3494616  19.7614074
  61.5209961  54.0612555  19.3658662  60.5938005  53.5051203  20.8210349
  59.5097923  53.3534002  18.8494277  58.8120699  54.0233707  19.3518519
  59.8186588  54.0062571  17.5380802  59.5843124  55.2031994  17.4585962
  60.3899574  53.3005953  16.6578579  38.7515736  37.0419979  42.7254486
  41.8595362  33.1742024  43.7614059  36.4643335  37.6675773  41.4272928
  37.7069783  38.2201385  41.9139814  40.0993443  37.3356295  42.9955626
  47.6159096  26.1462927  36.4323449  45.3914261  23.3687711  36.2372684
  52.0994949  27.7128077  36.1568141  40.8722687  36.3860106  43.6449099
  49.1001606  25.8837557  33.1336761  47.4666500  22.9888248  37.2158694
  38.2095385  35.7790446  43.1470633  49.9872923  26.7709970  32.5373363
  43.2888079  32.4659944  45.2199888  39.0411210  34.8383832  43.7334728
  49.8674297  27.1891403  34.6817613  38.4110594  39.2468262  41.2561417
  40.3334856  35.1768088  44.0699720  37.0836425  39.0829301  43.1700468
  41.1785746  34.0399957  44.7585487  34.9849176  40.9840870  44.0898466
  42.9379177  32.3959780  44.0385056  34.9563909  45.6367254  45.2988720
  43.6603594  31.5879250  42.9453373  43.8740301  30.1961541  43.1216145
  44.5643663  29.4060874  42.1561241  44.1747236  32.2115421  41.7825460
  44.8532867  31.4022017  40.8121347  45.1205540  30.0320411  41.0030842
  45.8556366  29.2965555  39.9139428  46.9586658  29.9415326  39.1966748
  47.7240944  29.1153598  38.3674622  47.3401880  27.7900338  38.0600739
  48.1537104  27.0561600  37.1403241  48.3883524  25.2983189  35.5672264
  47.4396181  24.2071128  35.1047540  46.8170834  23.4613109  36.2943482
  44.8114395  22.7443314  37.3558927  49.0701008  26.1483169  34.4771576
  50.3755140  27.5806928  33.4914565  51.3495064  28.7278295  33.3369327
  50.3856230  27.5214076  35.9453487  49.6680450  27.1734023  37.1078277
  50.5320120  27.1822357  38.2198167  50.1077271  26.8513060  39.5921564
  51.8202209  27.4679923  37.8609347  53.1086397  27.3662281  38.7005377
  46.3316488  27.1406651  38.7330437  45.5938864  27.8768134  39.6567225
  37.3900127  40.2784872  43.6948204  38.7483430  40.7240248  43.8250351
  39.0319061  42.0415115  44.2957067  37.9756260  42.9799843  44.5794773
  38.3922601  44.3346834  45.1248407  36.6191959  42.5444174  44.3942356
  36.4026380  41.2022591  44.0903330  34.3648410  42.1274948  44.6027136
  35.3636670  43.1289434  44.7701120  35.1240635  44.5034409  45.1207256
  40.5588293  38.2711291  42.6904249  41.9024086  36.6552997  43.8586903
  37.1528530  35.5855417  42.9877853  38.6607361  33.8516378  43.9805365
  41.9036865  34.5536160  45.4016685  40.5276537  33.5448837  45.4895449
  41.5327263  33.2860565  42.8091145  43.3992624  29.7025824  43.9644527
  44.8004055  28.3666945  42.3643160  43.9187431  33.2481027  41.5840292
  45.1666641  31.8418694  39.8698592  47.1641779  30.9986353  39.3370080
  48.5622644  29.5876241  37.8636432  49.2589521  24.7393107  35.9315848
  47.8156757  23.4984827  34.3577003  46.6423178  24.6307611  34.4830728
  44.7769737  23.4579372  38.1882262  43.7563610  22.5257349  37.1504378
  45.2483940  21.8189216  37.7507067  51.1276579  29.1364455  32.3442221
  51.3324404  29.5654202  34.0439034  52.3766136  28.3752275  33.1873226
  50.2861404  27.5226903  40.4401350  49.0781021  26.4772058  39.6318054
  50.7215118  26.0106182  39.9359131  53.6010313  26.3871956  38.7267327
  53.8389969  28.1145573  38.3715487  52.8645372  27.5767374  39.7482729
  46.0576868  26.1079764  38.5383630  44.8521614  27.2548962  40.1491213
  36.1114788  38.8020229  43.1582212  39.5516109  40.0393963  43.5692167
  40.0735283  42.2844267  44.4838810  37.8636098  45.1715088  44.6537685
  38.1030416  44.4596958  46.1747837  39.4614100  44.5251608  44.9755335
  34.5567346  40.1234007  43.7816715  33.2914138  42.1092749  44.7358179
  39.9268508  49.1770411  24.3866587  63.6223936  48.5696459  40.7588434
  67.9171984  78.7774021   6.0815644  68.1785576  79.6775709   5.8876061
  68.6494009  78.4180742   6.5825593  31.8420863  75.8929110   5.4564804
  31.3582277  75.1205730   5.1638812  31.5819311  76.5836334   4.8470104
  73.5755062  49.3938017  12.2037482  73.0065727  49.3644667  12.9729581
  73.3332872  50.2052307  11.7574942  40.6327438  71.9732523  46.5397453
  40.8704567  71.4101791  47.2764063  41.2595129  72.6956749  46.5784645
  81.5567875  50.8239174   5.4686701  82.1989346  51.3022470   5.9931415
  81.5248203  49.9531412   5.8648485  70.1232624  75.6554317  42.7020741
  69.4223642  75.0992775  42.3619795  69.8540974  75.8591366  43.5977840
  36.3486600  63.7758350  22.0757127  37.1034312  63.2311106  22.2989416
  35.9269953  63.9567137  22.9157782  59.2247581  61.1840582  40.3021049
  59.2386627  60.5068207  39.6258020  59.9502802  60.9567499  40.8836365
  42.7785254  10.5667520  13.4775257  42.6351452  10.6741512  12.5372386
  41.9658470  10.8727396  13.8802171   0.8032189  20.5287147   2.5391427
   0.0494319  20.7423186   3.0890611   1.4104006  21.2567115   2.6717478
  27.6707721  26.2768054  40.7914495  27.4788094  26.1221218  41.7163610
  28.0389857  25.4493666  40.4816198  18.2822216   5.9467542  27.6782608
  18.5748541   6.6513956  27.1002650  17.7697611   5.3697282  27.1119928
  19.8478699  11.0596085  21.4219022  20.3343987  10.5310714  22.0544934
  20.0611019  10.6731057  20.5725622  33.5968924  12.6037145  35.2432084
  32.6922202  12.5711608  34.9321747  34.1198778  12.3374736  34.4870090
  47.2203875  54.2848158  32.1592045  46.7443419  53.7493849  31.5244436
  46.6460419  54.3166304  32.9242849  67.8294754  25.4190540  67.4320698
  68.4841251  25.8913112  66.9176388  67.3941660  24.8477697  66.7993164
  32.7012920  71.3431215  31.4674211  32.4453282  71.9757700  32.1385908
  33.3276081  70.7679319  31.9068718  68.0616045  56.9629860  36.2576199
  67.7629519  57.2456408  35.3932452  68.5661411  57.7048969  36.5911412
  39.6237326  13.2956958  47.3968601  39.7470403  13.2721710  46.4479303
  40.0675964  14.0964055  47.6762867  21.7532444  36.6026926  29.8684478
  21.6137147  37.1491909  30.6418180  21.9012046  37.2266364  29.1577911
  67.2804880  70.4251051  16.8626189  67.2636938  71.1556435  17.4808884
  66.3771391  70.3509331  16.5549052   1.5594490  73.2535791  21.7691922
   1.3810265  73.1488466  22.7037668   1.1869879  74.1072607  21.5484428
  40.1290703  41.6171789  19.3292069  39.7474408  41.2665081  18.5244596
  41.0710526  41.4817905  19.2263782  50.5232573  67.3220253  34.1928077
  49.8023415  66.8804646  34.6417379  50.2745724  68.2463551  34.1919374
   7.8509438  60.5166340  16.8306720   8.5447055  61.1514711  16.6520333
   7.1854812  60.6958055  16.1663759  26.9919586   1.5937948  17.8541446
  27.6815295   1.1267672  18.3259606  27.2410965   2.5158751  17.9168355
  39.0010762  14.7386217  28.9293456  39.0672326  14.5094955  28.0023313
  39.5422506  14.0876877  29.3761659  20.1745343  15.5708063  45.8910847
  20.2521443  14.7743034  45.3659248  21.0215616  15.6521487  46.3294458
  76.0228395  32.6286674  20.9849763  75.2910376  33.2456446  20.9906936
  76.0076332  32.2471738  20.1072168  12.7278316  70.6385756  32.6131082
  11.8975604  70.2906513  32.9384255  12.5613785  71.5720081  32.4818492
  68.0031490  31.1863470  67.8074074  68.1359577  30.4114938  68.3534813
  67.2366524  31.6173220  68.1855297  21.4685965  73.7564850  43.6221886
  21.8389225  73.4925699  42.7799034  21.5372205  72.9742956  44.1696358
  64.6052074  63.8180494  62.5859022  63.8107443  64.3231821  62.7588177
  64.8594999  63.4713840  63.4411144  62.1162128  39.4257402  64.6849775
  62.1179628  38.6227846  65.2060318  61.5871096  40.0401878  65.1936436
  68.1019783   9.2926830  16.3973951  67.9058266   8.9084065  17.2518468
  68.0431938  10.2373099  16.5404177  54.7000217   5.6497139  47.8602552
  55.4818010   6.2003928  47.9027462  53.9712381   6.2588829  47.9786587
  60.7659960  23.4006906  58.2150173  60.5977726  24.0000153  57.4878740
  61.1194992  22.6138902  57.8000307  23.9605498  40.4227638  66.8022776
  24.4581938  39.6987486  67.1822548  24.6210980  41.0824537  66.5908146
   5.8650464  51.7361116  38.3437085   5.9180242  51.4015293  37.4484539
   5.1873720  51.2027264  38.7590289  14.9186587  33.3545589  27.6095963
  14.3901169  33.1247354  26.8453598  15.0875068  34.2915773  27.5110245
  33.9704299  54.6477413  11.4708471  34.4238138  55.3123093  11.9895232
  33.1106424  54.5670700  11.8837488  11.3255191   7.5246865  36.6788530
  10.3762245   7.5217342  36.5561223  11.6067648   6.6557407  36.3923812
  -0.1300659  55.7546377  21.8814254   0.1189065  56.5673590  22.3215723
   0.6015721  55.5668211  21.2934947  50.5671835  12.1712005  50.8838940
  50.4136610  12.2990930  49.9477816  51.3443756  12.6969182  51.0731649
  68.4409380  71.2023401  37.8267217  68.2416058  71.8725586  37.1730351
  69.3970633  71.1597967  37.8422713  76.4562941  24.9764466  62.6574135
  77.1876478  25.4717374  62.2885799  76.6700935  24.0615606  62.4743795
  78.3475065  25.1022506  24.7994828  77.9814434  24.3466091  24.3398809
  79.2659855  24.8737693  24.9424005  75.5205011  14.0875077   2.4336299
  76.2764883  13.5024273   2.4825644  75.0951862  14.0011573   3.2867911
  12.5836098   3.6178279  37.7240443  12.7339828   3.2116821  38.5776615
  11.9354153   4.3011487  37.8947735  80.4297733  59.7119904  35.8890295
  81.0916328  60.3957272  35.7857060  80.5395794  59.1540337  35.1190591
  37.4802804  12.6860607  21.1787176  37.6243949  12.4743652  20.2564120
  38.2857394  12.4105358  21.6163898  22.2688317  66.3034821   7.3984033
  22.2382641  66.6106701   6.4923489  22.0545053  67.0764446   7.9207289
  28.2644653   9.5452070  29.5988417  28.3617806   9.2443252  28.6953878
  27.3590493   9.3331146  29.8257113  50.3342915  45.0902796  67.2670221
  51.2437725  44.7987032  67.3307085  50.0382757  45.1516056  68.1752348
  16.9033754  58.8890457  31.0701847  16.3431168  59.5510769  30.6651449
  16.4436221  58.6451769  31.8735433  72.1722126  73.9132786  24.6713305
  72.6241159  74.0357351  25.5062079  71.3585377  73.4654331  24.9028420
   9.6980846  56.7102432  24.9926329  10.6034446  56.5116024  25.2315807
   9.7623050  57.1185350  24.1292644   5.1767075  36.0772896  61.1754036
   5.7615876  36.3630295  60.4736185   5.4413253  35.1751590  61.3553143
  68.0669212  42.6464939  51.1671448  68.9274740  42.9815292  50.9152746
  68.0349541  41.7649508  50.7955408  44.9932766  23.8638711  60.5433750
  44.8032284  24.7904086  60.6904840  45.9015894  23.7578487  60.8261395
  61.6849375  44.1127062   6.9196886  62.1681499  43.9690733   7.7333879
  62.2582245  43.7656355   6.2362283  30.7196999  60.6755018  56.9995594
  31.1072397  59.9551344  57.4966764  30.3513074  60.2581978  56.2208605
  60.7127714  58.2591772  39.3791032  61.1781216  57.4766445  39.0835953
  60.9838295  58.9441490  38.7678981  33.3282447  13.4909332  48.4488249
  33.8668966  13.3031642  49.2174768  33.6453629  14.3378830  48.1352282
  42.1321535  11.6208196  59.7634935  43.0527925  11.3636410  59.8135853
  41.6540289  10.7926202  59.7220516  39.0890193  63.7443113  65.4067564
  39.5392513  63.5410500  64.5868731  39.7716498  63.6874151  66.0753441
  23.4794354  56.7455435  43.5534477  23.0960250  55.8713865  43.4822226
  23.6156154  57.0219231  42.6471901   6.4778268  71.0569620  65.5823755
   5.8950788  70.8530998  66.3138628   7.3579133  71.0017967  65.9547138
  21.3357210  16.4085710   8.4989023  21.6665912  16.3731349   9.3963999
  21.0152435  17.3047519   8.3969891  29.2900419  78.2598925  21.9013643
  30.0876307  78.2189322  22.4290085  28.5922098  78.4275675  22.5347281
  53.6758232  29.7248197  57.2120667  53.8870430  28.9033437  56.7684555
  52.7346611  29.6720791  57.3784161  73.7110806  69.1067219  20.8086634
  74.3674994  68.4641552  20.5394936  74.0720892  69.9486208  20.5309772
  82.8324509  59.2739296   1.8642539  82.4102306  59.0161657   1.0447899
  82.9045963  60.2266979   1.8071568  28.7824464  20.7742977  45.4567337
  28.3736348  20.7691574  46.3222265  28.1430411  20.3463745  44.8872852
  42.4155140  25.2745986  58.2117605  42.7884388  26.1028242  58.5137510
  43.0118465  24.9803209  57.5232649  46.3021564  16.4590061  36.4697385
  47.0766497  16.0786676  36.0553288  46.0044670  15.7872093  37.0831752
   1.9913064  65.3313828  44.9233246   1.5267891  66.0620689  45.3314352
   2.6861465  65.7453012  44.4113636  20.6013989  10.8574522  14.3264771
  19.7755373  10.9619570  14.7989845  20.9293246  11.7500412  14.2170215
  75.8928394  63.2224846   6.9409728  76.6259718  63.8363171   6.9852597
  75.2968740  63.6071587   6.2982541   7.5975382  45.3323126   6.4052713
   7.9105318  46.2237740   6.5587723   7.6320660  44.9148178   7.2659332
  71.0332870  79.2551088  28.0514789  70.9669590  79.0312576  27.1231890
  71.3797808  78.4641314  28.4644318  42.2214127  12.2304428  51.0021591
  42.8782511  12.7433133  51.4730787  41.8404770  11.6590393  51.6689587
  69.9306297  77.7265930   7.6386470  69.7192335  77.2195005   8.4224844
  70.7203913  78.2134724   7.8741360  35.0803089  77.7352381  67.9159737
  34.6946311  76.8591833  67.9194355  35.3595948  77.8704023  67.0104551
  15.3678954  23.2719398  67.4338293  15.9761441  23.4103870  68.1598425
  15.8939219  23.4230590  66.6485310  39.1325068  23.7439752  53.5088491
  39.7204351  24.2627382  52.9597950  39.0036368  24.2778373  54.2928219
  37.2320390   6.5088773  63.2837391  37.5923729   5.7970393  63.8125849
  37.5690293   6.3468951  62.4025869  44.8794365  41.8080997   7.9810101
  45.2903938  42.5035763   7.4675304  44.3606091  41.3155127   7.3450792
  13.7601852  34.4974518  47.8923464  13.5319841  33.6697173  47.4692440
  13.1380141  34.5763230  48.6154747  52.0346975  16.7783797  67.1471500
  51.5765476  16.2214088  67.7765274  52.7521563  16.2338054  66.8232250
  41.6112995  22.7017093  12.1797836  41.9393301  22.9626131  11.3192272
  41.0201979  21.9707870  11.9992733  68.8338375  34.6299911  64.4456244
  68.1270313  35.1904726  64.7658110  68.5760832  34.4068623  63.5511923
   4.0497994  38.8055086  48.7316799   3.7760481  39.6465755  48.3657598
   4.0495354  38.9448476  49.6786833  24.6841311  45.5605555  25.5561328
  25.2743101  45.0784159  26.1353207  23.8182378  45.4468250  25.9479547
  79.5849133  78.2563639  16.6926777  79.9699688  77.4034548  16.8939519
  79.1834259  78.5378981  17.5147343  30.7841921  48.7679338  63.4218264
  31.0407138  47.9159594  63.0688810  30.3572154  49.2119741  62.6891899
  75.5036020  71.0320234  19.9641728  75.6901598  71.1545706  20.8949852
  76.0425186  71.6889095  19.5233738  29.2948413  74.4917250  46.6922426
  28.7658644  74.4783020  45.8945990  29.1961694  75.3818560  47.0301199
  66.3299561  69.3332958  28.9992428  67.1944284  69.7441912  28.9898515
  66.5115547  68.3939791  29.0297937  22.4643278   5.3120619  19.6033597
  21.6689157   5.8444780  19.6126103  22.1545100   4.4214600  19.4388199
  58.4742785  20.7393694  63.7432432  58.6228228  19.8468947  63.4307384
  57.7059221  21.0385871  63.2571077   2.2367570  40.1111937   5.4537982
   3.1151479  40.0628948   5.0765330   2.2850466  39.5716810   6.2429911
  78.8150358  38.5418248  42.8949261  79.1728163  37.9597569  43.5653210
  79.5766926  38.8147545  42.3834372  70.9893513  75.6511831  16.4862204
  70.5492544  75.7616425  15.6434011  71.8922997  75.9233713  16.3224149
  66.5546656  78.0851841  17.5081456  66.0748625  78.0736065  18.3363283
  66.7372894  77.1637392  17.3242450  81.3371468  55.1047754  11.3931048
  80.7672119  55.8002472  11.0648930  81.3559437  54.4577503  10.6879508
  27.3920178  35.3477526   5.0538796  28.2959294  35.3669667   5.3682089
  26.9460654  36.0225964   5.5656874  42.7873516  64.8331451  66.4046526
  43.2484913  64.7592640  67.2401905  42.0567131  64.2192745  66.4792299
  32.4845266  21.0790825  62.1026802  33.0618262  20.3226471  61.9989157
  32.6074624  21.3512373  63.0121040  69.0242815  36.9628000  60.6661272
  69.2016363  37.7561021  60.1607132  69.5453787  36.2840390  60.2372074
   4.8193631  22.9149532  35.7289052   5.6366545  22.7654433  36.2042093
   4.6958721  22.1207452  35.2090812  72.9091740  72.2609091  20.5591965
  73.3884525  71.8296909  19.8516846  72.0302010  72.3963833  20.2052379
  11.3434482  28.6899018  12.8474426  11.7821157  29.5043874  12.6016414
  10.7145286  28.9502478  13.5204291   9.8762715  43.8686514  33.7594414
  10.2318013  42.9826212  33.6902881  10.3338397  44.3640232  33.0801272
  23.6781907  57.4128914  21.8067646  23.3404136  57.9783773  21.1122417
  23.8161135  58.0014086  22.5489616  70.4393101  52.2514486  14.9938071
  70.2042627  51.8128920  14.1760969  70.7246208  51.5437460  15.5717242
   0.3328824  57.5999689  40.4512596   0.2270038  58.3109283  41.0833645
   1.0716282  57.8717422  39.9066257  62.7071953  67.8883505   6.2672311
  63.0059385  67.6272964   7.1383429  63.0683756  68.7660789   6.1432201
  58.0305529   6.5049821  51.0223436  57.6128435   7.2630447  51.4311075
  58.2475901   6.7991626  50.1377058  66.3803244   3.4015447  31.5176916
  66.7928934   2.8456363  30.8566451  67.0826912   3.9785659  31.8176198
  53.2279634  58.7417364   6.2767559  53.5541487  58.0133963   5.7482171
  53.8121080  58.7681818   7.0345855  59.8373795  15.6743312   7.8057444
  59.0362501  15.7008004   8.3289248  60.2099466  14.8103571   7.9817450
  78.6008453  62.1925640  35.4701495  78.6631203  62.9729176  36.0209680
  79.4547224  61.7689133  35.5575871  65.0578976  49.1511393   2.5056615
  64.2541027  49.4517660   2.9296508  65.0783920  48.2087278   2.6720127
  56.6438580  75.6876850  29.5479012  56.5477943  75.5769396  30.4938078
  57.0130968  76.5648699  29.4457293  19.8427415  47.0635128  14.5435333
  20.6223536  46.8600655  15.0602984  19.1757953  46.4583158  14.8678064
   1.4565927  34.2898083  14.5264459   2.0539880  34.0075636  15.2190411
   0.9886871  35.0352335  14.9027944   5.6110108  38.4928298   2.1219753
   6.0818678  38.4492135   2.9542148   6.2998194  38.5503149   1.4598052
  62.6427221  22.1337891  10.5241668  62.1351862  22.4113941   9.7615582
  62.0061827  21.6954112  11.0888529  77.4511862  57.5735283  22.7194238
  77.7772331  57.1071768  21.9497204  76.5209913  57.7107286  22.5401187
  20.5900645  71.5878868  24.9338770  20.1927018  71.4846849  24.0691876
  20.2130890  72.3987055  25.2754784  59.4270611  64.6054411  25.4599023
  59.2898464  65.2901602  24.8052526  59.3796635  65.0634432  26.2990808
  27.9480505  29.0846992  21.6339588  28.0994129  29.2361283  20.7010102
  28.6090326  28.4383249  21.8820190  46.1789799  36.7371964   4.0035880
  46.1044598  36.6017103   3.0589601  46.0325527  35.8703279   4.3821737
  82.3121262  11.0668623  10.3349400  83.1329441  11.3472414  10.7397568
  82.2804928  10.1223373  10.4869413   6.3071686   3.4665942  50.8124495
   7.1820104   3.8504702  50.7530928   5.8714312   3.9688611  51.5009928
  13.1292844  69.9537230  23.4953809  13.2918680  69.4102478  24.2663741
  13.9941120  70.2782536  23.2444143  75.0644541  28.9087439  63.7516785
  75.2755356  29.5125794  63.0395985  74.8011255  28.1010389  63.3106565
  65.4829407  25.3154397  56.5141296  64.5916605  25.3655267  56.8595886
  66.0100937  25.8142924  57.1382189  37.8805757  20.9982395  25.1235485
  36.9343877  20.9460783  25.2585912  38.0543184  21.9318938  25.0038290
  73.9025068  40.0884104  43.2992363  73.6874676  40.2973127  42.3901987
  74.6405840  39.4820666  43.2375002  12.2502077  64.8252058  25.4432106
  13.1563628  65.0676727  25.2526164  12.3008931  63.9118862  25.7251811
  59.5430040  24.6392608  60.3867006  59.9238634  24.0852809  59.7053194
  59.1562366  25.3736424  59.9099159  81.4932823  60.7656860  12.2898149
  81.0815334  60.4813814  11.4738107  82.4308109  60.6436586  12.1402192
  59.9510574  48.6325979   4.7619483  60.8748579  48.7263393   4.5294872
  59.9305391  47.8919697   5.3679878  80.7344341  21.1065269   9.3506086
  80.0511074  20.7707191   8.7705058  81.2126255  21.7401552   8.8157403
  16.6032577  25.5710959  57.8061867  17.4855959  25.9082103  57.6510572
  16.6017902  25.3199077  58.7298393  23.7310648  50.7718372  39.3835258
  23.1505442  51.5045786  39.1778135  24.5813370  51.1790752  39.5491171
  37.7401280  59.9240065  19.0346181  37.6035094  60.8143902  18.7109184
  37.3217559  59.3644571  18.3803225  79.5694685  54.7338724  50.8710527
  80.4125118  55.1791239  50.9562588  79.0853691  54.9850368  51.6576910
  12.0214891  68.7053633  40.7322836  12.7082729  68.3004808  41.2620306
  11.9213176  68.1197453  39.9817848  60.7290173  59.2471933  12.2046280
  60.1810074  59.9922800  12.4511313  61.5856361  59.4441462  12.5836349
  15.6601024  20.8313227   6.9165885  14.9032021  20.3782725   7.2881788
  15.3413773  21.1908102   6.0886908  18.1223035  67.3853636  14.0511870
  18.7775242  66.7514753  14.3429041  18.5740995  67.9097795  13.3900499
  57.7720594   3.3189026  59.5456457  56.8228769   3.4334826  59.4992018
  58.0324030   3.7944716  60.3344965   3.4956527  37.0942688  26.8797326
   3.1343275  36.2564397  27.1690726   2.7893382  37.7233219  27.0268559
  43.7162924  21.8481994  44.7751093  44.1336346  22.4601889  45.3813505
  43.1455374  22.3963070  44.2365551  10.3347325  43.2487440  20.2224255
  10.7058346  43.1639814  19.3441713   9.8016578  42.4616146  20.3341866
   6.4470541  26.2042570  47.7294683   7.3669183  26.1826038  47.9933119
   6.0406458  26.8302298  48.3288193   1.4153866  71.1914110  10.6428683
   2.2424066  70.9940338  10.2031946   0.8896196  71.6340494   9.9766314
  53.8087416   2.6712698  47.9126596  52.8642273   2.7991456  47.8244734
  54.1432619   3.5292801  48.1737089  13.9535022  61.2297916  10.1513064
  14.0030229  62.1005774  10.5456531  13.3372211  61.3301134   9.4257963
  25.1186895  61.2347984  57.1154261  24.2281580  60.9857988  57.3627806
  25.1608300  62.1755028  57.2872686   1.0403634  52.6746988  37.9201078
   1.1351399  53.0822897  38.7809896   0.3942134  51.9811678  38.0532908
  76.9241762  76.1330700  21.8586040  76.2338305  75.5604076  21.5243769
  76.6940355  77.0023346  21.5305185  59.7641945  20.3834343  46.9963932
  59.6663809  19.4409466  46.8608046  60.4603338  20.4605794  47.6488256
  34.3946838  76.3225365   6.9094169  33.8000751  76.1256886   6.1855936
  35.1445794  75.7448959   6.7672205  60.4625607  10.7876670  54.3412971
  61.2927866  10.3243148  54.2305756  60.6860733  11.7109799  54.2239666
  65.4003477  33.0767369  57.8787136  64.9233103  32.3258543  58.2320404
  64.8270226  33.4249973  57.1958971  69.9028826  44.7274160   8.1087917
  70.7845545  44.4136524   7.9077035  69.5094538  44.0227270   8.6234403
  18.5351813   1.7254153  22.5473022  18.3482528   1.8267576  23.4805846
  19.4897306   1.7654982  22.4884868  64.5504570  32.2205591  47.2069883
  64.8901796  32.5657105  46.3813448  65.3290558  31.9388890  47.6872778
  50.0809717   5.7349533  64.6682215  50.6281996   5.7098091  65.4531717
  49.3287182   6.2716711  64.9177742  31.6916966  41.4309072  25.5462599
  31.8598485  40.4969120  25.6711960  31.1657524  41.6831970  26.3051844
  30.2203202  70.5432415   3.9150351  30.9705377  69.9870539   3.7051323
  30.5303121  71.1057234   4.6247908  11.5893948  62.9738092  33.4096384
  11.5930927  63.5916233  32.6785278  12.4306035  62.5216246  33.3453608
  48.9976692  64.8999357  39.8373532  48.3502722  64.6516275  39.1774631
  49.7471428  65.2138042  39.3313861  44.0890265  39.2147326  60.1645422
  44.0891123  40.0039768  59.6229458  44.4307613  39.5046377  61.0103607
  28.4485459  37.3448753  64.5524120  28.3184505  36.4570475  64.8856735
  27.9188180  37.8967166  65.1278162  50.5520535  26.6455674  49.8041296
  49.9594736  27.1016502  49.2065763  51.2005901  27.3057795  50.0485659
  48.0413590  40.8603674  -0.3200453  47.6593826  40.0912746   0.1028282
  47.8762899  41.5772043   0.2924330  80.7630062  65.6566763  44.2143011
  80.7126236  65.9576464  45.1215553  81.6305542  65.9323359  43.9183331
  46.4981733  75.1778213   0.1476509  47.2724305  75.2601425   0.7044107
  46.2867866  74.2444722   0.1678402  39.8182750  11.9196486  65.3032112
  39.8006439  11.1197460  65.8286428  39.2607903  12.5330281  65.7819700
  15.2985477  56.8992043   6.7901212  16.1293578  56.9898748   7.2567743
  15.4641831  57.2835493   5.9292638  12.3858094  18.6532044  62.7721453
  12.5433469  17.9277706  63.3764267  12.2893512  19.4194043  63.3377075
  43.2534885   0.4284541  53.1537867  42.4678278  -0.0865495  53.3374643
  43.4047842   0.9288027  53.9556551  13.4252858  57.5596428  61.0617495
  13.8116908  56.6839266  61.0546398  13.9880764  58.0744648  60.4834270
   3.6565378  64.1865349  17.9981649   4.2810673  64.8664618  17.7453983
   3.9892334  63.8536167  18.8316584  40.3688097   2.2986335  47.2012138
  40.8776999   1.8090931  47.8474474  41.0231876   2.6506156  46.5977812
  11.7633176   4.4282457  19.7252774  12.0183313   4.9743462  18.9816558
  11.7405355   5.0310618  20.4684639  26.5121341   8.1086195  67.3924780
  26.2634325   8.8732058  67.9118872  25.8565998   8.0685991  66.6961241
  65.8534718  30.4288507  56.4274025  66.3463163  30.8626890  55.7308960
  65.3995419  29.7099948  55.9876013  27.0108700  11.9983125  48.1797075
  26.2536716  11.4425695  47.9952192  27.7664399  11.4584279  47.9476118
   0.3738405  77.8033829  15.2482033   0.1293973  77.7504921  16.1721516
   0.4554206  76.8913126  14.9694443   5.3588229  58.5567474  18.8009167
   4.8726520  59.3780708  18.8737059   6.0161120  58.7264919  18.1260908
  44.2910385  16.8303430  47.1411037  44.2259121  17.4505031  46.4148855
  45.1446152  16.4132726  47.0240879   7.5402683  28.5996246  49.7690535
   8.0951291  27.9186320  49.3887806   7.6406372  28.4900308  50.7146502
  40.7394123   1.9273466  67.7437830  40.9125757   1.0039826  67.5603580
  39.7927117   1.9714065  67.8781271  42.6703453  35.7259369  67.4645615
  42.7623081  35.3486705  68.3394575  42.8551817  36.6574001  67.5847483
  18.9569604  10.2671504   6.1603576  18.8904369  11.2146580   6.2788290
  19.8974669  10.0896227   6.1731339  64.7301626  55.6883383  20.4701853
  65.2105570  54.9478912  20.8405781  64.0008593  55.8270597  21.0744286
  47.9022264  67.6915979  63.7491369  46.9983149  67.5251389  63.4818029
  48.0197811  68.6331367  63.6229706  59.5249176  56.7576647   7.4928600
  59.3041611  56.6753674   8.4206128  59.1899681  57.6186657   7.2424251
  77.0483446  64.2394781  46.3535833  76.1050320  64.0801048  46.3851833
  77.4001789  63.4979057  45.8611298  31.6349101   3.5144979  26.2114096
  31.6707182   3.0927864  27.0699596  32.4790263   3.3103412  25.8088923
  54.6717501  32.8260231  50.1887941  53.9434481  32.3220205  50.5518198
  55.3826618  32.1909857  50.1018476  36.3767076   8.1779152  53.1275034
  36.7280054   8.5572171  52.3219299  36.2009764   8.9318621  53.6904573
  68.1400490  75.1874065  27.9965019  68.1886053  76.0859442  27.6701498
  67.9049301  74.6661568  27.2288775  75.3953886  22.5747204  46.9555140
  74.4834232  22.2842216  46.9430447  75.8022547  22.1182632  46.2190771
  83.1789398  74.8170948  11.5517890  83.0431461  75.0629091  12.4668658
  83.7529469  75.4991817  11.2032056  65.0268745  56.1650372  15.5491555
  64.7331285  55.2613974  15.6648266  64.4026089  56.5423393  14.9293458
  30.5684972   4.9900818  18.3341908  29.6151805   5.0481594  18.2705557
  30.8632469   4.8890826  17.4291193  18.7313318  34.7225928  51.8400955
  17.9762316  34.1435885  51.9440746  18.5651720  35.4441714  52.4466801
  73.3306026  30.7250023  15.9041429  74.1143751  31.2490797  15.7390046
  72.6702833  31.3614488  16.1782718  64.2331505  26.7614460  34.3157744
  63.5470963  26.2526321  34.7478318  65.0245333  26.5734196  34.8203421
  51.9433928  16.0390365   6.6579252  52.3476744  16.0442328   5.7903075
  52.6551437  16.2690520   7.2551984   7.1923208  46.0744715  46.5774488
   7.1706104  47.0138407  46.7600584   7.6610786  45.6965923  47.3215628
  57.8583890  49.1459076  67.9231148  58.6777574  48.6581997  68.0068354
  57.3795039  48.9496665  68.7283417  75.8113766  31.3379693  29.8888421
  75.2919960  30.5560994  30.0763369  76.6875029  31.0032988  29.6974468
  66.0237455  58.8623953   6.1519009  66.0069036  58.5073519   5.2631420
  65.1439714  59.2149973   6.2856716  25.8637643  49.9358177   4.5193636
  26.5003228  50.0610113   5.2231765  26.3948560  49.7320032   3.7495363
  68.3258009  24.9609613  48.7495279  67.5425243  24.9679899  49.2996788
  68.8786745  24.2777348  49.1286850  31.1335731   2.5598469  28.9282393
  31.1200976   3.4787953  29.1957903  31.2705731   2.0753545  29.7423220
  29.2062426  28.8156891  67.9685640  28.2869005  28.7843394  67.7038813
  29.1860104  29.1493344  68.8655043  23.9884925   0.2037352   1.7947756
  23.4640718   0.8356903   1.3029951  23.5038233   0.0729850   2.6097795
  48.3866453  37.8874493  58.6558914  47.5506020  37.5741553  59.0010071
  48.7581635  38.4104085  59.3663311   1.7705846  69.3635988  23.2526827
   2.6426393  69.0345955  23.4706521   1.8421187  69.6459579  22.3408794
  62.5777912  19.9634576  64.6254110  62.6553488  19.1231155  64.1737032
  62.7757025  20.6157565  63.9534235  18.8006830  70.2838230   5.6724030
  17.8557301  70.2007198   5.8004200  18.9005423  70.4684353   4.7384983
  28.9387631  17.0075846  46.7097187  28.7751365  16.1636055  46.2888193
  28.1288052  17.5009263  46.5800524   1.8888603  26.0401225   9.5676774
   1.6423862  26.9185734   9.2781782   2.5393859  26.1878872  10.2541280
  39.3618107   7.8535539  58.3178186  40.1721382   7.4521345  58.0040264
  39.0649080   8.3963066  57.5874090   4.2387435  46.4228010  10.8168137
   4.7504455  45.7717180  10.3367293   3.8197881  46.9482565  10.1351941
  26.6551208   5.5993903   6.9289434  26.3563681   4.8871052   7.4943000
  27.5484681   5.3548276   6.6873813  28.3565545  78.1735754   2.7072924
  27.6037478  78.1156206   2.1189433  28.0852723  77.6958370   3.4911323
  62.6872110  78.2271528  32.0734000  63.2379103  77.5373268  32.4436688
  62.0079994  78.3709717  32.7323556  29.2924142  70.2366066  21.7489839
  29.7963667  70.2706480  22.5620699  29.3971395  69.3367958  21.4397860
  22.6062870  26.4104342  63.1906843  22.5013518  27.1199536  63.8245630
  22.1522880  25.6665158  63.5865402  72.6188564  60.7987642  23.7503433
  72.9486418  61.1468458  22.9219055  72.6135159  59.8496675  23.6261773
  17.0092595  20.8569169  61.0644722  17.4314725  20.5703282  61.8743086
  16.2732089  21.3951612  61.3556004  39.4336653  67.6999664  37.0170879
  39.3526077  66.7804003  37.2701836  38.9562440  68.1779909  37.6951671
  63.7178040  46.8223000  64.8896360  63.1837749  46.1930275  64.4048119
  63.1256294  47.5534010  65.0658607  55.4095936  66.1019754  19.9287558
  54.4810915  66.2845612  20.0728798  55.8474064  66.9351435  20.1030660
  18.2939172  10.8751869  32.3830962  19.1377711  10.9509444  31.9376707
  17.7372205  10.4041874  31.7630339  83.5756493  26.0904646  64.3178320
  83.6871243  25.2364445  63.9001560  83.6991310  26.7217207  63.6089611
  24.0227747  68.4366608  14.1100192  23.5083890  69.2409992  14.1784072
  24.7130322  68.5373259  14.7654915  18.5344195  59.5690107   2.7572373
  18.5792458  59.3200541   3.6804062  19.3851137  59.3153477   2.3991801
  28.9718509   1.3035269  42.3988390  28.0841923   1.1711615  42.0660114
  29.0252948   2.2435471  42.5712872  75.6573200  32.0752096  27.0496106
  75.4913998  31.4663076  26.3299298  76.3899088  31.6868448  27.5278544
  76.4279461  70.4021692  22.6379204  76.6248703  69.9793196  23.4737754
  77.0655060  70.0331163  22.0267320  28.6094975  49.1848230  13.3821642
  27.6934576  49.4527483  13.3092237  29.0755391  49.7564316  12.7719975
  11.7998815   3.6468887  12.6371145  11.6631973   4.4016823  12.0645452
  12.7051806   3.7335819  12.9356909  59.1674757  38.1071496  60.2510452
  58.4968424  37.6174593  60.7271671  59.3029499  37.6071739  59.4461250
  71.7752600   6.8145567  43.5245895  71.6911364   7.7153534  43.2119846
  70.8924198   6.4520562  43.4509706  60.1326275  15.9896243  38.9446068
  60.5516291  16.5754592  38.3141589  59.5632935  16.5605998  39.4604373
  18.6345565  73.0020475  57.6169491  19.5247376  73.2877970  57.8222704
  18.7289548  72.4764729  56.8225336  51.3796616  36.4749575  57.8459024
  50.9072638  36.0176897  57.1502161  50.7177496  37.0273066  58.2618523
  26.5621567  12.1347272  12.8530002  26.0722208  12.6490295  13.4946287
  27.0750833  12.7817380  12.3687315  19.8335576  70.7030058  22.1816540
  20.0925708  69.7817564  22.1605587  19.6441662  70.9195232  21.2687016
   7.4477774  53.6923409  12.4435723   6.9658244  54.4853687  12.2089207
   6.7708087  53.0249453  12.5555110  39.7181034  66.3131857  66.3601255
  40.2109575  66.4524889  65.5514717  39.0314889  65.6917191  66.1181068
   5.2980238  17.9846358  54.0807533   4.5897251  17.4205494  54.3911600
   4.8616770  18.6382735  53.5343218  10.1307666  47.3326349   5.2840203
   9.6432734  46.6886997   4.7702801  10.4356217  47.9717350   4.6399343
  24.2202210  59.3828869  12.9016399  23.7226057  59.9406481  13.4995639
  24.2205310  58.5224819  13.3210802  53.5986328  18.3330190   5.5024940
  54.4821310  18.0968761   5.7851589  53.0514479  18.1783438   6.2724912
  79.9079227  31.6613030  35.1104546  80.8624172  31.6508532  35.0393224
  79.7250462  32.3172498  35.7831550  17.3175704  64.0196323   9.0571970
  18.1377268  64.5116663   9.0956265  16.6762495  64.6485233   8.7263864
  10.0129867  14.1912079  10.2268696  10.7114184  13.5981679  10.5038679
  10.4215622  14.7503161   9.5660400  20.4227209  76.6027308  55.9916353
  20.1970434  75.8395386  55.4598045  20.9230852  77.1663618  55.4015636
  50.7162523  78.0847311  62.9841757  50.1722956  78.6488724  62.4345446
  50.9169579  77.3311329  62.4291706   7.4643672  17.6319969  42.7028894
   7.4320996  17.7783287  41.7574930   6.5641171  17.7698767  42.9974604
  83.1268978  32.3155785  59.7011852  83.2014942  33.2698250  59.7101259
  82.2915745  32.1447062  59.2661285  28.8674021  66.8111897  62.5902176
  28.9825082  65.9533787  62.9990578  28.6607742  66.6151762  61.6763687
  21.3865137  27.4293089  29.1092515  21.8841052  26.7903876  28.5989428
  20.9741497  27.9910922  28.4530592  66.0672808  41.6045713  29.0418482
  66.2829733  41.2279081  29.8949814  66.0546827  42.5495958  29.1935396
  78.5741234  65.3796482   0.3083415  79.1719532  65.6959295   0.9856900
  79.0820408  65.4290533  -0.5014819  79.9253702  52.0746851  41.0403919
  79.2336559  52.1043348  41.7013645  80.3862476  52.9078722  41.1384821
  18.4604418  52.8085756   3.2040793  18.2145178  51.9999361   3.6533606
  19.4138038  52.8451681   3.2815015  53.3728218   5.8117640  27.9253268
  53.2430553   6.7339492  27.7040410  53.3679485   5.3599828  27.0814657
  51.8579769  65.8408070  63.6011362  51.1191177  66.0525751  63.0306339
  51.9545126  66.6094971  64.1633034  69.7015333  21.0052872  51.5722418
  68.9104176  21.0207486  52.1108770  69.9034691  20.0752449  51.4698982
  10.9302247  35.7009578  10.6113565  11.4888704  36.1055589   9.9476957
  11.0982871  36.2065983  11.4065385  25.6734490  46.6883421  63.3100510
  26.3469386  46.4082623  62.6902151  26.0005450  46.4043951  64.1636419
  51.4552784   5.4974484  41.4856386  52.1958065   6.0557389  41.7226267
  51.4386225   5.5150735  40.5287457   1.1777808  50.9431839  29.1406441
   1.7136416  50.6467438  28.4049749   1.0632553  50.1629877  29.6832418
  46.3330269  12.4539566   5.6193113  47.1892118  12.0357323   5.5283785
  46.3477516  12.8420651   6.4941752  24.3947625  28.4595776  48.0165815
  23.9696264  29.1808224  47.5525808  25.0025845  28.0885077  47.3769808
  81.1943531  37.8390646  60.0658512  81.7893505  37.8479648  60.8156109
  80.3641796  37.5232387  60.4226351   4.9332869  61.3209772  48.7912273
   4.6265268  60.4506540  49.0455246   4.1973615  61.9009495  48.9868689
  78.9920568   4.3518266  40.5100822  79.3613720   3.5815233  40.0782633
  79.5672274   4.5049745  41.2597227  69.6473169  17.8946781  11.6558111
  69.7139311  17.1680677  12.2753525  70.3984833  17.7823520  11.0732579
  41.3921261  18.6839128  45.3923941  41.3897324  17.7271032  45.4196358
  42.2696924  18.9296615  45.6851673  50.1843071  71.6178226  62.1530437
  50.2652693  72.2271872  62.8867674  49.9262857  72.1671438  61.4128399
   2.6446849  64.0715265  15.0866020   3.4988809  63.9059019  14.6876669
   2.8367370  64.2136383  16.0135067  12.9263067  20.1198316  58.4522963
  12.1491838  20.4510880  58.0022049  13.5318577  20.8610821  58.4616661
   2.1705167  66.5096235  34.2695475   1.8539479  66.6718197  35.1582026
   2.4746896  67.3642063  33.9639378   7.2005999  20.9303904   9.8629636
   7.8638494  21.3923717   9.3502194   6.6382205  20.5155396   9.2088544
  47.3049593  23.5450244   6.7981637  46.5407705  24.0770388   6.5763330
  48.0399656  24.1574955   6.7685002  47.7508831  60.5934668  10.3670287
  48.3920479  60.6256533  11.0770321  46.9743967  61.0230398  10.7258606
   1.1268119  38.4196210  36.5808797   1.1765558  39.3550611  36.3841391
   1.0011746  38.0020094  35.7287931   0.3748323  50.9191418   1.6397142
   1.2499299  51.2690973   1.4724813   0.1436220  50.4571247   0.8339138
  18.1565380  47.0753288   5.7476723  17.2089469  47.1509123   5.6354648
  18.3291101  47.4727583   6.6011953  59.9646330  33.2100749  60.8260345
  59.0599298  33.0298686  60.5705500  59.9469376  34.1101956  61.1511564
  26.9520235  10.8876014   3.0069885  26.5800834  11.6911006   3.3706933
  26.2098646  10.2861297   2.9464537   1.5859987  58.5951519  55.0469208
   1.3694620  59.1017103  54.2641401   1.6966686  59.2520475  55.7342815
  -0.3119829  31.7479563  54.8112631   0.1590655  31.5850449  55.6284571
   0.2826140  32.2938752  54.2968130  39.4366050  71.9724417  58.8813591
  38.9244962  71.5735102  58.1779146  39.9478507  71.2495375  59.2450476
  44.0991116  65.3946161  12.2430754  44.7763109  64.8480177  11.8445051
  43.3531952  65.3243017  11.6473424  77.1586037  62.4804449  17.7230346
  78.0324602  62.4088287  17.3390126  76.5714836  62.1416664  17.0472002
  17.4340761  64.5333481   4.0688846  16.6964447  63.9605236   4.2786488
  18.0866039  63.9509153   3.6800256  44.2506599   1.0718815  14.1906667
  44.9452114   1.0650802  13.5320461  44.7063541   0.9321484  15.0207579
  76.2189722  56.8243265  13.9631164  76.8876553  56.9940805  14.6266520
  76.1287737  55.8714485  13.9522743  27.9026556  50.1842213  27.2155499
  27.3235440  50.9118319  27.4423647  27.3187304  49.5165491  26.8557239
  17.8294897  12.2032654  24.4159651  17.7475774  13.1029999  24.0997362
  18.2634926  12.2863972  25.2650595  65.7825232   9.6452290  65.8710527
  66.3590527   9.1296440  65.3071213  65.0594139   9.9054575  65.3004122
  49.6621466  64.5026588  28.1039739  48.7456226  64.3347597  27.8848243
  49.8049259  64.0234089  28.9201641  25.5669332   3.6349538   8.8082415
  24.8821425   3.5680640   8.1427950  26.0070682   2.7852577   8.7852442
  59.6690273  29.9905801  40.6769943  60.5647802  29.7754979  40.4169941
  59.7608376  30.7606983  41.2379932  56.6172981   0.5138297   5.7434732
  56.0858107  -0.2720641   5.8704442  56.0588121   1.1009218   5.2339178
  55.3235865  61.0751104  30.7071543  55.0013638  60.4702663  31.3754082
  54.6743870  61.0248470  30.0055504  50.6772852  14.3761981  19.2475617
  50.1776743  14.2973208  18.4349096  50.0139046  14.5098150  19.9245441
  78.4113741  36.3621855  67.2524643  77.9959822  37.1534061  66.9094658
  79.0170431  36.0913086  66.5625191  65.2816772  78.1410789  19.8106658
  65.9942865  78.5148335  20.3290510  64.5299196  78.1391811  20.4031944
  77.3505211  61.7538881   2.1929646  77.8223753  61.0778046   1.7066525
  76.4732218  61.3916206   2.3168120  67.7209902  78.0400229  38.9448309
  67.4197626  77.8841877  39.8399329  68.1809902  77.2360277  38.7035322
   4.2475128  68.4748363  23.5159159   5.1240802  68.4613991  23.1316233
   4.3213832  69.0722990  24.2601037  69.3180895  25.8291745  55.2637148
  69.0751553  26.2105083  56.1073971  69.9406147  26.4525723  54.8894596
  43.8157749   6.7267251  37.2680998  44.7542572   6.5495801  37.2040462
  43.6501026   6.8034720  38.2077241  67.3770046  77.8938437  13.4043062
  67.4407673  78.1655788  12.4887049  66.4532137  78.0119610  13.6254227
  57.1809721  69.1939116  19.7219431  56.4322042  69.7131300  20.0151896
  56.9496059  68.9199495  18.8344491   3.4955877  59.5370340   3.1557968
   2.6597035  59.1007233   3.3205983   3.3295465  60.0930500   2.3945397
   1.4161542  70.9867859  18.6958075   0.7984775  70.3669167  19.0837097
   2.1072391  71.0784626  19.3517256  37.5844574  38.9706159  23.4389186
  36.9393373  38.7963724  22.7535772  38.0248880  39.7717071  23.1551838
  11.9528627  70.1748466  17.9036701  11.6666150  70.2969646  18.8088667
  12.9087853  70.1904249  17.9505849  39.8317790   7.5537866   5.7717806
  39.1998959   7.9407483   5.1657969  40.6209660   7.4257666   5.2454442
  12.5600243  27.1488190  42.5399542  12.1611500  26.7557621  41.7636538
  11.9904959  27.8878522  42.7537251  75.5683851  48.2174492  56.5304422
  75.1367760  47.4641800  56.1272860  75.1558590  48.2979012  57.3904324
   3.5259968  53.5894299  26.9198608   4.2147243  53.3754158  26.2905097
   3.5689083  54.5416594  27.0072913  66.1161041  38.4639096  55.5133581
  65.4716349  38.1144428  54.8979187  66.3636017  37.7130961  56.0530376
  25.7778430   0.7645533  15.6291628  25.2146602   0.0756019  15.9818733
  26.3008428   1.0527793  16.3772464  48.4644365   3.2341504  28.7185669
  48.3775282   2.7051666  27.9255629  48.6408663   4.1187438  28.3982563
  26.7364836  68.0903149  37.0277500  26.0119748  67.9926538  37.6456356
  26.9950986  69.0086651  37.1051049  58.1797647  48.4691620  64.1160154
  59.0963507  48.2969522  64.3315172  57.8802872  49.0653849  64.8023605
  52.0340872   9.8650938  43.2020569  52.0305395  10.5558801  42.5394583
  52.8213835  10.0337696  43.7196922  28.1671834  40.8893204   2.3871799
  28.7910032  41.3589478   1.8335275  27.3990822  41.4595842   2.4195379
  59.9615097  20.8073735  39.0713120  59.6093655  20.8832884  39.9581385
  59.4988871  21.4799905  38.5715151  32.8666258  42.5423384  59.4621372
  33.3920979  43.0043554  58.8089514  33.4352827  41.8374777  59.7720337
  67.1546412  58.3525276  54.5833969  67.0006943  58.2070780  53.6499214
  68.0600595  58.0750751  54.7229052  26.3193822  17.8284979   8.6130422
  26.6804957  18.4980059   9.1940635  27.0311952  17.6301694   8.0045861
  43.6763334  39.5165443   0.4054682  43.4939575  40.4260874   0.6414783
  44.3216705  39.5766592  -0.2989196  81.9531155  33.7603498  37.6430607
  81.0090256  33.9057398  37.5813818  82.0520115  33.1274700  38.3543372
  42.1358013   8.4334576  15.5179834  42.8386116   8.7776524  14.9667871
  42.5723982   8.1764269  16.3301086  14.7922838   0.2684733  35.3614569
  15.0603044   0.3360665  36.2778783  15.2852595  -0.4786015  35.0222135
  11.2040079  77.8251457  15.6087351  12.0941210  77.7952862  15.2579641
  11.2531030  77.3337936  16.4287317   1.5700851  54.8031902  50.3661728
   2.3307270  55.0923061  50.8702230   1.1399397  54.1598368  50.9294748
  51.4169741   4.6099538  33.2955456  51.6208172   4.8481226  34.1999555
  51.8636942   5.2713984  32.7671838  30.7195902  40.6541920  19.1935170
  31.4947772  40.2311325  19.5627582  30.7821035  41.5641260  19.4839382
  46.4582491  76.6346836   8.4588438  47.4008560  76.5307808   8.5889679
  46.3812542  77.3451662   7.8220439   3.5891199  42.9752874  46.5110683
   3.9660820  43.8215542  46.7518330   4.0755823  42.7097178  45.7306433
  54.7153234  11.7314482  25.3275275  54.0271902  12.3860347  25.2082658
  55.2841568  12.1021271  26.0022521  71.9033813  54.4845247  30.8548164
  72.7868271  54.4789171  31.2232232  72.0328426  54.6709347  29.9249101
  71.0299158  22.8147054  31.3078785  70.3394032  23.3772826  31.6584897
  71.0474110  23.0122685  30.3714514  26.7675877  20.0796032  23.8147974
  27.4056673  19.5544505  24.2978072  27.2259402  20.3374839  23.0150199
   3.6986992   5.0844336   1.1599120   3.3027145   4.2171070   1.2446056
   4.3541473   5.1175553   1.8567064  39.4882178   6.4162266   0.5908695
  38.6802936   6.8747467   0.3601104  40.0682688   7.1033752   0.9188907
  65.0858307  45.6694365  41.2104130  64.7407389  46.5497446  41.0614252
  65.4317188  45.6955862  42.1025515  76.2832165  36.5433049  32.2984028
  76.4310312  35.5975866  32.2989297  76.3205957  36.7910528  31.3745785
  72.9632235  33.5372877  12.7421975  72.9635620  33.8629627  13.6422908
  73.5220575  32.7605915  12.7683079   1.4835298  19.8254263  11.2705004
   2.1287312  19.7991800  11.9770825   0.6916837  20.1717138  11.6819572
  63.5996866  50.8379364  57.6382589  64.4547844  50.7403135  57.2193241
  63.8009691  51.1190128  58.5308456  68.1913757  44.4556904   6.1392850
  68.2511806  45.1518917   5.4850984  68.7851095  44.7315407   6.8375826
  65.6662846   3.1319708  63.4902716  64.9555635   2.5039440  63.6194468
  66.2600374   2.9761556  64.2247200  54.3697405  11.8619752   5.7615751
  53.6586046  11.7196250   5.1368737  54.8790359  12.5797653   5.3852421
  21.7489576  66.1627483  12.2287619  22.6139617  66.1018467  12.6340914
  21.8567491  65.7512379  11.3712811  37.2784233  64.0688181  34.9853301
  36.5974426  64.4310427  34.4185042  36.9009948  63.2572269  35.3245997
  72.0159292  10.3501821  11.8769217  72.0019722   9.3930906  11.8803799
  72.3155880  10.5885220  12.7542078   5.0207186  52.1055984  12.4654686
   4.5911038  51.6026402  11.7735898   4.7549316  51.6725397  13.2766724
   8.4140170  69.9241543  61.6843748   9.1736126  70.5044985  61.7338324
   8.0054784  70.1353788  60.8449030  15.8553278  63.4937811   0.3239168
  16.7815399  63.5852098   0.1003044  15.6877530  64.2026615   0.9449150
  26.1080837  51.7744780  39.8099017  26.2438536  52.7219582  39.8009109
  26.3308883  51.5090513  40.7021666  75.5094910  35.7624388   6.0383809
  75.3225136  34.9024606   6.4148211  74.6754265  36.2299490   6.0831070
  53.6135483   0.3672053  62.6199579  54.4545555   0.6891187  62.9444695
  53.8341188  -0.1225199  61.8276501  11.2268400  58.2708836  29.2556548
  10.6701493  58.4366751  28.4948397  11.0666728  57.3528194  29.4741297
  83.6940765  36.2505364  16.2626255  82.9474640  35.9986091  16.8060756
  84.4597816  36.0609460  16.8048275   1.0244191  63.9204836   3.3654147
   0.7143489  64.2761612   4.1982311   1.9723818  63.8457203   3.4750018
  39.5731211  77.9440451  51.8759584  39.9421763  78.0374384  50.9977198
  38.6692238  77.6661968  51.7276239  83.8447094  22.2789884  24.5242882
  83.0501747  22.2227383  25.0551176  84.2133904  21.3960314  24.5506644
  46.5793514  16.6957235  65.6430435  46.9359303  17.5447845  65.3819275
  45.9560537  16.4746571  64.9510479  14.7592223   3.7737668  65.6970263
  15.6561208   4.0979663  65.7788849  14.2410231   4.5519924  65.4919243
  73.3023596  24.7532725   3.0084121  73.4857225  24.1561675   3.7337238
  72.5940418  24.3301988   2.5231051  31.0870481   3.5537112  53.8372278
  31.7576170   4.2147714  54.0091801  30.5408955   3.5564390  54.6233225
  52.8028536  37.8229928  -0.0672770  53.4641981  37.5938010   0.5856614
  52.4831724  38.6825013   0.2070980  19.3517017   6.5341204  65.0725269
  19.7352159   6.3957894  64.2064953  20.0963783   6.7556638  65.6316423
  28.0669737  19.4954264  59.0943956  28.8096142  19.2815673  59.6591759
  27.9123688  20.4279947  59.2448807  82.6641655   0.4911045   2.0058344
  82.8352451   1.1122820   2.7137199  83.5270119   0.3080738   1.6340470
   6.2697709  10.3969884  57.7987194   6.6558886   9.9002236  57.0773554
   6.9149607  10.3369176  58.5032415  82.1984577  23.3878279   8.2084274
  82.2398472  23.3913946   7.2521293  82.9790688  22.9050827   8.4801513
   1.3129131  37.2922039   1.1509466   0.5645122  36.9885135   0.6372343
   1.3483377  38.2348323   0.9883706  43.6798334  75.8671474  31.2378454
  42.8417587  76.3254118  31.1757517  44.3358707  76.5441656  31.0720420
  34.2308402  13.6418808   3.9677113  34.4921923  13.1784010   3.1720275
  34.4954348  13.0610693   4.6810696  57.2239590  14.5559931  12.1789944
  56.3991594  14.4689965  11.7011178  57.1319723  15.3732598  12.6687324
  80.3602314  14.6490216  45.1988792  80.7283783  15.5322099  45.2249146
  80.2462292  14.4644403  44.2665911  61.4817381  12.6590896  40.5941916
  61.1598492  12.6548052  39.6927476  62.2952461  12.1558011  40.5604219
  82.6246834  67.1799421  64.4937944  82.1223545  67.0498276  63.6894512
  83.4882545  66.8162584  64.2983341  13.1273401  16.0647643  39.2697835
  12.5449395  16.5106452  39.8847890  14.0067995  16.2318456  39.6087050
  30.9014010  29.3549991  37.8634310  31.5989494  28.9971399  38.4126067
  31.3614559  29.8211384  37.1653652  39.7324705  77.7795124  45.3250074
  38.8493800  77.9396963  45.6577539  39.6240878  77.7228642  44.3756485
  22.9539919  20.8803988  65.9059048  23.1615376  19.9816930  66.1617994
  23.0028725  20.8745956  64.9499702  81.7141342  66.4408064   7.1570611
  80.9332275  66.9808102   7.2787654  82.4394321  67.0654440   7.1556002
  20.2942729  68.0241442  49.0824938  19.4338763  67.9042625  49.4844627
  20.9094071  67.6642418  49.7214842  19.7681642  76.0156441  30.0281191
  19.0191221  76.1303043  30.6129456  20.2255917  76.8559694  30.0572181
  66.2996054  50.7193661   0.6618501  65.8736229  50.1398277   1.2934384
  66.3941813  50.1856470  -0.1270910  71.3494158  21.4352655  67.9636669
  70.8219957  21.6100693  67.1842432  71.3490677  22.2633600  68.4437609
  58.1382275  36.9157028  49.8914957  57.3460484  37.2245693  49.4518471
  57.9699659  35.9896207  50.0655365  31.1593723  68.1850910  12.0194030
  30.4410172  67.5532866  11.9874156  31.2201929  68.4320879  12.9421842
   6.8891138   9.2003191  17.9229295   6.4289629   9.2842627  17.0877969
   7.3444748   8.3605677  17.8621411  27.5072336   2.0906137  29.2701173
  28.1310177   1.4514723  29.6145344  26.9197297   2.2713359  30.0038815
   4.4282940  10.3387845  59.6480846   5.0342059  10.1889682  58.9223766
   4.5349365   9.5721942  60.2112913  80.1359940  51.0121536  19.5375323
  79.4262218  51.6041136  19.2884648  80.3728104  50.5665731  18.7241387
  17.3494840  46.6046143  36.8420792  17.9479098  45.9608936  37.2212124
  16.8376827  46.1086369  36.2030983  20.0813866  50.1850796  52.4721670
  20.9189296  50.3179216  52.9161310  20.2889442  50.2627611  51.5409756
  42.6574612  73.8909960  46.3896036  42.4904633  73.6518908  45.4779148
  42.0153618  74.5750809  46.5792751  17.0059454  15.8779323  38.6375594
  17.7277350  16.3353050  39.0689087  17.1763122  15.9898496  37.7023149
  58.8951359   0.2704254  53.4907579  58.5028802   1.0235897  53.9324665
  58.2036577  -0.3914436  53.4862280  60.0713539   9.4483626  45.2984238
  59.6900702   9.5829874  44.4308233  60.8353043   8.8935810  45.1408529
  46.9646168  42.6060057  19.5144868  47.8685760  42.3625135  19.7139990
  46.4492035  41.8392754  19.7649014   4.1165307  63.8002634  57.8228188
   3.9503658  63.7687922  56.8806791   5.0324148  64.0687466  57.8956556
   5.2960408  66.9773340  12.2387671   5.9329146  67.6100016  11.9065714
   4.4470423  67.3976135  12.1016622  20.0949955   7.7988213   4.4679889
  20.2172852   8.4977305   5.1104861  20.4706407   8.1480271   3.6597952
  13.6264789  65.6606293   1.3517138  14.2141938  66.1552525   0.7805994
  13.0442870  65.1953411   0.7510555   2.6153314  21.4008045  22.8538346
   1.7369506  21.7401171  22.6819468   2.6102579  20.5210090  22.4767852
  18.1641614  45.2864647  31.8638420  17.6828647  46.1137629  31.8511367
  17.4835372  44.6136427  31.8810415  64.0014315  43.3654308  46.0999346
  63.6658001  42.4705458  46.1525249  63.3538961  43.8335085  45.5728388
  75.0523376  71.2916946  51.7075300  74.8806572  72.1170807  51.2542105
  74.5802879  70.6347322  51.1958647  76.7712498   7.2492027  48.6576366
  76.8260336   8.0963516  48.2154036  76.8249369   7.4615300  49.5894432
  11.9038987  41.1603928  42.8579712  11.1317945  41.6893721  43.0586290
  11.8673623  40.4365015  43.4831762  46.0174322  15.6663167  62.2057104
  45.3056192  15.9837008  61.6499996  45.5766392  15.2073646  62.9207611
   6.3263726  18.4919381  22.8793693   6.2990379  18.4878325  21.9225693
   5.5674899  17.9714727  23.1428957  62.2618341  71.0545921  21.7894983
  61.8830633  70.1856661  21.6563225  63.1638432  70.8837128  22.0604515
  79.6216679  59.3556356  17.7599919  79.2076826  59.9112320  17.0995700
  79.1806269  59.5862579  18.5776246  41.5717806  11.2271269  68.5597563
  41.5061344  10.8098658  67.7007938  40.6636681  11.3658960  68.8286518
  17.2053647  51.2787676  35.4355597  17.5884569  50.4258823  35.6406426
  17.8366244  51.6889668  34.8443913  10.7230341  52.8413391  15.7737923
  11.1967754  52.4265385  15.0528610  10.2418137  53.5593081  15.3624809
  28.1909394  71.5295410  63.6649704  28.6263728  72.2167778  64.1692877
  28.4299517  70.7171059  64.1111231   0.4285140  61.3536406  12.2576666
   1.3658422  61.3850641  12.0661974   0.3134993  61.9577980  12.9911482
   8.0926031  16.8689752  33.0729866   8.6383915  16.1550891  32.7432680
   7.9295033  17.4192381  32.3069334  73.1620789  15.3343165  56.5585995
  73.4900236  15.8396459  57.3024607  72.4224424  15.8450663  56.2295055
  74.1552258  12.8212059  65.7810259  73.3528376  12.3181844  65.6418276
  73.9532375  13.6931050  65.4415798  42.7829838  73.4277773  34.0018082
  43.4685802  72.8787088  34.3822193  42.9819632  73.4452057  33.0656815
  24.5587206   0.7786360  57.5397873  24.2263341   0.1724971  58.2018614
  25.2410650   1.2756130  57.9910612   3.9728183  70.3212166   9.3909168
   4.2641383  71.0108519   9.9873781   4.4855523  70.4607725   8.5947645
  14.7733510  52.6383400  15.0878704  14.1376710  52.9066801  14.4244432
  14.2529082  52.1769047  15.7454765   9.1060495  66.4773703   7.2552687
   9.5740998  66.8471050   8.0039066   9.5343399  65.6361437   7.0967251
  69.4721127  74.7425890  62.9228354  69.6403122  73.8443804  63.2077217
  68.5205078  74.7906017  62.8313112  32.7827907  35.6236458  26.5709090
  32.7805972  35.1922894  25.7164168  33.6974597  35.8667397  26.7141461
  23.5575628  40.0578451  28.7828469  24.3287325  39.7945452  28.2806468
  22.8611183  39.4785523  28.4736252  73.0400658  11.0222733  61.6438723
  73.8945293  11.1527157  62.0550966  73.1783724  10.3035879  61.0269499
  79.1636992  64.4408798  12.6003051  78.2836580  64.3303204  12.2403979
  79.0514994  65.0603056  13.3213842  18.3016527  60.3997469  25.3723192
  17.6354122  59.7640562  25.1110744  18.2096839  60.4661846  26.3227701
  29.6610856  25.0846386  56.0873699  28.9234519  25.6090975  55.7758045
  29.6320534  24.2900610  55.5544186   1.9621035  43.5061884  53.0825472
   2.7280644  42.9801178  52.8527927   1.2451593  42.8743219  53.1370211
  67.1847963  48.6313486   9.0069515  66.7640257  47.7715969   9.0096694
  66.4632273  49.2514896   9.1118121  59.4683552  32.2661853  43.0160522
  59.4820118  31.4883447  43.5737324  58.8911533  32.8781867  43.4726954
  74.3804932  58.8233089  63.6970282  74.3657684  59.6710443  64.1412830
  74.8222971  58.9962101  62.8656769  11.9748652   9.1611534  12.7837324
  12.3013020   9.6636963  13.5301375  11.2604344   8.6351901  13.1431544
  53.7494898  18.6851954  68.1535101  53.5130882  18.9489543  67.2642517
  53.0960274  18.0268657  68.3897734  49.4540501  36.0170484  68.3699179
  49.7943211  36.8978000  68.2126760  49.4981289  35.5872297  67.5157833
  41.0587645  75.6161261  66.7818832  41.5482569  74.9055195  67.1962070
  40.2787304  75.1925468  66.4236116  35.4285383  70.7293797  67.2878218
  35.1924157  69.8461056  67.0044422  34.5896626  71.1732531  67.4123192
  13.8658988  53.7701321  10.5057704  13.8468218  54.6635771  10.1628053
  14.7294033  53.4378147  10.2605033  11.3176203  56.3669252   5.0414240
  11.9801998  55.9349489   5.5805123  11.3216579  57.2763777   5.3399396
  57.1071434  16.3162005  46.0543060  56.8893576  17.1343124  45.6076574
  56.5901375  15.6506002  45.6005335  61.5185642  27.6928949  59.2530060
  61.5041590  28.5650873  59.6470928  60.6001997  27.5002789  59.0639687
  25.3880930   9.6036404  20.3655887  26.3348866   9.5523304  20.4966569
  25.2872276   9.8993224  19.4608068  46.0895252  75.3739643  22.8923035
  46.6362381  75.5839968  23.6494184  46.7133904  75.1900673  22.1900177
  82.5829601  42.1912909  49.4872713  82.9452324  42.8213501  50.1101732
  82.9576015  41.3509607  49.7513103   8.8698965  18.7333012  12.7345932
   8.8847721  17.9427481  12.1951139   9.4634879  19.3381512  12.2895789
  69.4875479  14.9579835  55.7342100  69.0789175  15.0638044  54.8751116
  69.7912407  15.8359623  55.9647703  47.6108170  77.1932173  59.6165609
  48.4360409  77.6594114  59.7503519  47.1248198  77.3282671  60.4300737
  45.7542562  10.2989602  53.1561136  45.5103111  10.9778368  53.7852764
  46.4187098  10.7114780  52.6042366  80.6930637  42.6363659  11.2163639
  79.7796392  42.9078293  11.1258554  81.1986351  43.4121275  10.9738266
  55.6603146   9.1281581  36.3835788  54.7211313   9.1545093  36.2006235
  56.0439205   9.7403592  35.7556558  40.6383753  64.5962906  13.2863569
  40.7391739  64.0915251  12.4793351  40.7873964  65.5039263  13.0213571
  52.3555756  24.8344660  61.0151529  52.6117802  24.2931986  61.7618942
  51.4692163  25.1284456  61.2253380   3.1962502  70.0202322   3.0991977
   2.6432914  69.2409754   3.1560314   4.0861797  69.6923876   3.2287222
   4.1869447  22.3475289  65.2716780   4.6425265  22.9490685  64.6827555
   3.2579729  22.5034046  65.1015425  68.3323288   9.7974068  42.2355461
  69.1681671   9.6212119  42.6674700  68.4953547   9.6072382  41.3117027
  48.0990458  76.3310051  63.0701113  48.4395599  75.5009604  62.7364779
  48.8032770  76.6753149  63.6194181  70.4469395  61.7511511  54.4089270
  69.8471880  61.5963745  53.6791515  70.5819941  60.8859921  54.7955751
  64.8593950  50.5067444  14.6447539  65.0075722  49.5993471  14.9110281
  64.0430164  50.7536030  15.0792933  73.9853477  20.8604693  24.3579412
  73.9070320  21.7937732  24.1603470  74.5416403  20.5138206  23.6603689
  67.8786087  14.9517131  53.1008196  67.1961451  15.5909038  53.3055449
  67.5904989  14.5475769  52.2823429  30.9601426  46.2658167   7.3103619
  31.7165160  46.0549593   6.7629385  30.9381914  45.5696726   7.9669702
  60.1252460  59.7106457  63.4857082  60.9676504  60.0792646  63.7516117
  59.5234394  59.9574375  64.1879559  75.5642748  61.1080217  13.0725467
  75.4332399  60.2854776  12.6008689  76.2687778  61.5475512  12.5963998
  23.3499360   4.3759233  51.0309935  23.2129002   3.4422976  51.1916065
  24.0894365   4.4085386  50.4241133  45.3531408  73.3638620  62.5514841
  46.1717558  73.7454081  62.2344255  44.7401810  73.4740782  61.8245983
  67.4447918  53.6575699  40.3916788  67.9847097  52.9526901  40.0340939
  67.3972893  54.3038273  39.6871781  76.5519381  77.4417162  26.8260503
  76.5243721  76.4864159  26.8796706  75.6325912  77.7082300  26.8259668
  19.2458177  24.3635750  13.1869626  18.4029830  24.0939164  12.8220737
  19.6475220  23.5490584  13.4893358  18.1640732   0.7443963  30.2145982
  17.7563131   1.3658488  30.8177233  17.7846253   0.9546127  29.3613338
  18.1323802  59.9875450  55.0167370  18.3997250  59.7072792  55.8920670
  17.2241652  59.6955061  54.9387026  76.2179947  26.8155956  38.3132744
  75.9119129  26.0388255  37.8451133  76.2353516  26.5497851  39.2326617
   0.9720315   6.2160689  43.9185572   1.3579375   6.9009548  43.3724451
   1.3266397   5.4000521  43.5655689  10.2927685  15.0805283  67.4330091
  10.5237699  15.8919990  66.9809198  10.1684177  14.4421351  66.7307091
  80.0769520  21.6479087  58.2347345  80.1996136  21.8458700  59.1631746
  80.3603745  22.4417114  57.7811050  70.7207346  11.9298816  38.7332106
  70.2866030  12.7584112  38.9364338  70.0523376  11.4133775  38.2829857
  26.8417883  71.5675116  21.9601893  27.7544737  71.3048935  22.0796418
  26.8445778  72.5142813  22.1011019  78.6538935  53.8018036  20.9737134
  78.1423950  54.3475819  21.5709829  79.1895628  54.4232845  20.4807091
   3.2559127  59.2074823  26.5279174   2.5209594  59.8099375  26.4133573
   3.9051235  59.7121096  27.0179272  52.1659327  20.4233646  47.3822498
  51.3045263  20.0349331  47.2294950  52.2876978  20.3707576  48.3302164
   1.6154857  66.2258863  59.3161488   1.9119053  66.7437458  58.5676908
   2.3040172  66.3366795  59.9718046  22.0529366  61.2923908  22.8642917
  21.2682223  60.8656073  22.5203228  22.6475692  61.3395882  22.1156812
  81.5431690  48.7276840  37.7793741  82.0788670  49.4702291  38.0584645
  82.1770763  48.0613470  37.5140452  79.8599100   2.5338313  46.5320444
  79.3894482   3.1203282  47.1244287  80.5407238   2.1388666  47.0767641
  13.3974802  59.5637655  12.1847332  12.4964166  59.8421288  12.3485279
  13.6931276  60.1208639  11.4646864  17.0348155  54.2322016   0.9866711
  17.6042402  53.7124538   1.5539894  16.3435602  53.6257982   0.7208254
  59.5828056  37.1245956  57.8078985  60.1161194  37.7903438  57.3736286
  58.8341141  36.9995928  57.2247458   0.8450200  25.9103012   5.0253594
   1.3595700  25.6850982   5.8004433   0.3043464  26.6496515   5.3033239
  32.8213096  59.6832180  24.9212050  32.4939585  59.8648119  24.0402412
  33.2076120  60.5105591  25.2084446  40.2932405  72.8152895  34.7925711
  41.0080194  73.2679367  34.3448710  39.5056319  73.0856609  34.3205500
  30.3211594   5.6692761  48.6636591  31.1136270   5.7211816  49.1980076
  30.3205609   4.7749874  48.3223677  17.6601577  60.6766272  28.0412412
  17.8426027  60.4922342  28.9626217  17.0077276  61.3767338  28.0617189
  16.6437960  48.2281971  14.5443690  16.7024267  47.2730255  14.5653522
  15.7515955  48.4197998  14.8333287  51.3137770  28.2527304  46.7527008
  50.6935406  27.5404930  46.9084644  52.1204996  27.8132939  46.4837742
  32.0684399  79.2313238  18.9754319  32.2452511  78.4278460  18.4861541
  32.2884049  79.0135032  19.8811913  12.1697223  36.3902855  46.8270731
  12.6372528  35.7482123  47.3612928  12.5575304  37.2312284  47.0692492
  75.8844566   0.9340117  67.4251127  76.2784004   1.7347044  67.7714205
  76.6034460   0.4871768  66.9783211  12.3324180  38.3785176  52.1301985
  12.2475612  37.4876666  52.4699259  12.0442033  38.9382720  52.8511953
  69.5418167  33.5257649  48.4148693  69.2573309  34.2975855  48.9043570
  70.0305796  33.0048084  49.0520048  25.3400445  66.8464184  28.2156038
  24.4199967  67.0537663  28.3791590  25.6094933  67.4690104  27.5403166
  76.8027163   2.6099950  56.5110826  76.0994625   2.1553139  56.9746876
  76.9981623   3.3703291  57.0587397  73.9691687  28.8986564  47.4721193
  74.5121765  28.2727838  46.9928932  73.3633471  28.3543015  47.9750013
   7.5221038  33.0851650  64.4922352   6.8690562  33.7041259  64.8188019
   7.0434684  32.5385833  63.8690281  28.2587385  61.9025612  31.9920182
  27.7784777  61.4988375  31.2691164  27.8071952  62.7324581  32.1456647
  72.3816538  27.9694319  28.9937401  72.8596163  28.5773754  28.4296584
  71.6438150  27.6762915  28.4590483   0.2429064  62.6860905  15.4486156
   0.5537600  61.7946863  15.6067407   1.0415584  63.2031918  15.3437793
   5.0645435  59.6668577   9.0992045   5.7318038  59.3043852   8.5164452
   5.5056953  60.3869629   9.5498270  19.2251408  18.7599504  35.3490663
  19.2224061  17.8027558  35.3501081  19.6193993  18.9992511  36.1878300
   4.7785550  37.5579977   7.0856678   5.1802480  36.8844962   7.6345479
   4.1890481  37.0748878   6.5066028   8.5890698  33.0173016  44.4721937
   8.8994521  33.3547592  43.6319447   8.3887243  33.8000584  44.9854040
  56.3035345  68.0663538  58.7420130  56.0828447  68.9892817  58.6165762
  56.1073351  67.8962517  59.6633148  45.9554195   4.8074546  22.2762322
  46.3064051   5.6555039  22.0044756  45.0804567   4.7752798  21.8893981
   0.2489055   9.8825008  23.4085917  -0.0688446   9.0297526  23.1117964
  -0.1788091  10.0163496  24.2543912   3.4370038  47.6141071  56.9765425
   3.2578647  48.5145140  56.7056131   3.2176843  47.5961590  57.9081059
  72.2211790  39.7325301  31.5671420  72.6990747  38.9105630  31.4566183
  72.8865099  40.4125071  31.4613199  37.0527983  29.8606277  57.4927425
  36.4511085  29.4488716  58.1129503  37.0016265  30.7950687  57.6938248
  58.6629248  11.8979740  21.4404058  58.7357092  12.7726460  21.0584593
  58.2062292  12.0362127  22.2701931  44.3369436  13.8210535  15.7359111
  44.0791035  14.7282088  15.5721402  43.5532522  13.4118128  16.1027718
  40.0655985  10.3209150   9.8467797  40.3923512   9.6258730  10.4180789
  40.2974272  10.0337899   8.9635760  51.2158060  63.1771898  40.3117228
  51.8480873  63.3157539  39.6065640  50.7126093  63.9907551  40.3455210
  49.7213936   1.9250850  53.4496164  49.5536184   2.8644195  53.5253334
  50.6610584   1.8360233  53.6087799  32.2280550  26.3045192  56.1991405
  32.4626064  26.0413241  55.3092289  31.4202762  25.8259463  56.3854027
  28.1749940  73.0458641  27.2734952  28.5832167  73.7987614  26.8460202
  27.6462221  73.4262800  27.9748631   3.5147196  65.3536320   8.9403164
   3.3118415  64.7277832   8.2450575   3.5053217  64.8316908   9.7426403
  65.0518322   0.9028285  53.2531309  65.7388163   1.5369591  53.4584665
  64.2537308   1.4271867  53.1874323  67.6541138  24.5849729  46.1666536
  68.0216551  24.8231411  47.0177841  67.2563267  25.3931761  45.8429146
  26.6397333  56.9663954   2.4529698  25.8158684  56.7190456   2.0330992
  26.3745618  57.4691534   3.2231325  29.0158534  65.7903528  49.2027235
  29.7877073  65.8184814  48.6373186  29.0725708  66.5902233  49.7254276
  37.9777527  33.0755758  60.1379776  38.4586740  33.7545776  60.6111574
  38.2441568  32.2572351  60.5569983  28.0014467  67.9485464  31.9662452
  28.9191365  67.8365755  31.7181683  27.8077292  68.8631868  31.7609620
  38.6645317  69.6212482  57.3194695  39.0029311  69.5559072  56.4264679
  37.7287555  69.4384670  57.2349644  61.3228130  35.6944275  53.9073896
  61.7230844  34.9724460  53.4228754  61.4165735  35.4466677  54.8272038
  71.6814518  45.3567076  61.4627552  72.4470663  44.8147488  61.6533899
  71.9366360  46.2371540  61.7383003  13.9919925  73.8467360  49.4586515
  14.3198693  73.3291245  48.7232590  13.0393052  73.8007498  49.3780184
  50.6231976   2.0985159  16.2976444  50.2459240   1.2510163  16.0617626
  51.1982012   2.3171690  15.5643010  78.8459444  24.9706912  56.1715889
  79.7406149  25.2497458  55.9768391  78.5060310  25.6474543  56.7569828
  79.6222878  16.7556727  41.8020248  79.6081495  15.8152843  41.9800758
  79.0571547  17.1353543  42.4748516  41.7345524  35.3834152  64.1042089
  41.7781973  34.9638605  63.2449627  41.4997292  34.6758580  64.7045851
  49.4538164   4.4956499  50.8508635  48.7732029   4.2395720  51.4732933
  49.0090466   4.5133099  50.0034523   0.8904962  44.8847103  14.4141436
   0.8412316  43.9288235  14.4047511   0.3735750  45.1586390  13.6565244
   6.8689394  49.1406584  49.9822664   6.0216266  49.5828104  50.0351334
   7.2748250  49.2980242  50.8347464  52.9605770   2.7140054  39.1078782
  52.1511555   2.2040951  39.0753388  53.0756378   2.9218000  40.0351381
  28.0456710  70.7183361  17.3571932  28.6943984  70.9412956  16.6896057
  28.2212496  71.3272285  18.0745864  36.6229606  73.6903000   3.6861035
  36.3288355  73.3091259   2.8588012  37.5722742  73.5677290   3.6821929
  64.9093914  53.9029217  60.5509949  64.9831629  54.1594601  61.4702225
  64.6020985  52.9968262  60.5791283  75.5477571  26.6191030   5.1751840
  75.0221586  26.7858219   5.9576046  75.3337431  25.7188630   4.9302313
  54.3907642  55.0976658  13.0343890  53.4744978  55.3361273  12.8935921
  54.3873215  54.1409588  13.0648005  50.8382130  21.3704967  16.3001144
  50.8233738  21.0141683  15.4118335  50.9346342  20.6033134  16.8643498
  31.0409164  59.5928097  37.1912670  30.3957677  59.5779419  36.4843059
  31.7711759  60.1012182  36.8384552  58.4012032  11.3250113  31.7816353
  57.6246023  11.3698649  32.3394108  59.0842438  10.9694672  32.3502111
   7.9963624  53.6345720  67.7202654   7.2575051  53.8595104  67.1548223
   8.0838823  54.3838739  68.3094311  24.7600746  20.2988076   3.2392538
  24.6634793  19.8684621   2.3897231  25.6680679  20.1304865   3.4911451
  19.1923892  71.0989523   0.2781504  19.5854294  71.2199879   1.1425012
  19.8196578  71.4937115  -0.3276002  20.8974838  67.6024008  22.6097798
  20.7101417  67.9966164  23.4616756  21.7948675  67.2786140  22.6878405
  62.0672035  36.2184548  63.1272554  62.6978922  36.6895485  63.6718130
  62.4958038  36.1435580  62.2746563  43.4615660  16.4208066  24.6756768
  42.8371382  17.1442533  24.7300005  43.8404942  16.3651001  25.5529118
  14.1904831  78.3376837  25.0698686  13.5557055  78.9593267  25.4260302
  14.6662939  78.0160284  25.8356190  62.4073029  25.5475187  44.4017744
  62.9439163  25.3405809  45.1669264  61.8854284  26.3029099  44.6724415
  -0.0012681  68.4390259   1.2620911  -0.0384894  67.4905348   1.1387695
   0.5329980  68.5576677   2.0474041  76.3088655   6.8297195  24.4269347
  76.0486984   6.1587453  23.7957954  75.4836655   7.1432304  24.7970510
  72.4366903  45.1425219   9.3358231  73.2564068  45.5855131   9.5550334
  72.3899364  45.1841497   8.3806717  23.2379746   7.4741662  21.0799909
  23.6989021   8.0156040  20.4391932  23.0940700   6.6413653  20.6305861
  22.4860978  27.5712609  55.4264307  21.6740370  27.5868845  55.9329367
  23.0789399  27.0237088  55.9411716  81.6408825  77.5203705  10.3165531
  81.4931202  77.0183706  11.1180484  81.9424915  76.8721390   9.6801102
  48.9876127  66.6894674  16.2955689  48.1946802  66.8499327  16.8071795
  48.6709166  66.3114691  15.4751706  11.6533530  34.7248960  20.4073787
  11.7013621  35.6291437  20.0971174  10.7758212  34.4331622  20.1602697
  75.7181549   0.6626908  12.9185414  76.4666176   0.0695182  12.9832363
  75.0364351   0.1425973  12.4931157   1.8175183  26.9345188  34.3558502
   2.3126751  26.2086344  34.7355151   2.2027206  27.0594811  33.4885359
  16.0948515  29.1992569  47.0928240  16.1478913  28.4486961  46.5011501
  15.1598155  29.3971872  47.1454000  52.0644760  63.9736366   6.4167184
  52.0561218  63.1216145   5.9805787  52.6699352  63.8616276   7.1495926
  26.3797474  54.4611168  39.4149065  26.2332368  54.7496510  40.3157473
  26.3268447  55.2630424  38.8949561  77.3015976   9.5883238  22.4958515
  76.4868402   9.2877018  22.8983808  77.6596355  10.2181864  23.1214046
  27.1733856  66.0801554  15.2114713  26.8888021  65.7749367  16.0729146
  26.6650867  66.8769217  15.0597191  32.6207399  47.2758245  28.0695605
  33.4065795  47.0607471  28.5719824  31.9902325  47.5718069  28.7261295
  57.7914238  62.0258808  45.5949020  57.0903444  61.3828564  45.7009220
  57.3809385  62.8646326  45.8052111  54.5708084   3.0176073  32.5888419
  55.5011129   3.2145706  32.6982760  54.1875267   3.1856498  33.4497070
   1.3499789  13.6121130  64.9391890   2.0138928  13.0056751  65.2673388
   1.6224299  14.4677734  65.2706146  82.2353745  61.2626457  32.9772568
  82.9091549  61.7105293  32.4657321  82.0269966  61.8725252  33.6849689
  15.8647490  53.1609964  18.4457922  15.0951242  53.5395050  18.8708067
  16.3451838  53.9153051  18.1045759  61.5535593  58.8550615  59.4168758
  61.4524746  59.6084547  58.8351440  60.9584904  58.1955528  59.0602589
  64.6059799  30.9886575  43.4860802  64.8770094  31.7319894  44.0248108
  63.7814426  31.2688375  43.0887461   5.6863284  76.4351559  66.0914183
   5.9050405  76.4459324  67.0232344   5.0084740  75.7639837  66.0122490
  74.6006632  15.2077746   6.5690452  75.2062178  15.6145525   7.1887743
  74.0248060  14.6713459   7.1138978  19.6188200  14.2624664  12.9166436
  19.6934164  15.1629162  13.2326472  18.8096976  13.9365721  13.3107817
  44.0653133  46.8349171  30.2093124  44.7750330  47.4366808  29.9847817
  44.1082048  46.1531639  29.5387888  73.6674356  15.7177520  40.0540018
  72.8429508  15.9615815  39.6332884  74.0683413  15.0920701  39.4506550
  22.4968767  31.3040829   3.2244569  21.9434595  30.6500363   3.6512873
  22.2087669  32.1390724   3.5932600  79.9709845  13.8381875  29.7118974
  80.4360390  14.6201825  30.0092864  80.5194855  13.1089079  30.0009084
  16.0464990  77.3035002   6.5690726  16.1506629  77.0885515   5.6421542
  16.4495385  76.5690184   7.0320266  64.1569185   6.3983542  44.8114491
  64.9347639   6.9444913  44.9251366  64.4493532   5.6784105  44.2525244
  74.5513773  20.3218079  51.1965513  75.2803040  19.7367680  50.9900999
  74.9563789  21.0545492  51.6605520  33.7434602  11.8026841   0.5084174
  33.3259726  12.3939192  -0.1179818  33.0150557  11.4120424   0.9911770
  18.3355486  26.6467857   8.8643175  17.4310410  26.4035249   9.0616035
  18.2688498  27.5151467   8.4671652  11.8202889   0.4916668  36.5963387
  12.5936449   0.0162889  36.2927485  11.7384112   0.2513369  37.5192547
   5.0854582  34.3391848  50.3620005   4.3504927  34.3352079  49.7487783
   5.4711998  35.2101493  50.2678871  72.8200912  47.8141975  62.2282600
  73.5488129  48.1101084  62.7738142  72.5078917  48.6082315  61.7943573
  57.8400087  55.2173185  46.2399960  57.6133490  54.2874479  46.2542534
  58.7017012  55.2474546  45.8242893  33.1812692  50.6206608  24.9424672
  33.7066627  49.8418045  25.1257157  32.4435258  50.2959013  24.4262385
  15.3259563  29.4634414  29.5701170  14.4402182  29.5730424  29.2241597
  15.2034783  29.0038180  30.4007673  18.1330025  49.5041895  32.9184437
  18.9493966  49.7560406  32.4868155  18.4098125  49.1302443  33.7549686
  21.4472938   3.2599989  30.4857111  20.7200456   3.8794729  30.5456734
  21.6663647   3.0590245  31.3955736  66.7749691  39.4935989  58.0029011
  67.0202351  40.3931713  57.7864647  66.3102055  39.1789079  57.2275305
  20.5538464  30.5925369  39.4895959  19.9386203  30.0755548  40.0096512
  21.2407684  30.8408523  40.1082325  63.5308981   5.8393186  60.4428530
  64.4265223   5.5383670  60.5961990  63.2841063   5.4412985  59.6080446
  61.4591789  41.4008760  59.7868395  62.1897888  41.1967039  59.2030954
  60.7377577  40.8597803  59.4659138  50.2355719  15.6725609  15.6198406
  51.0888624  15.4170823  15.9703541  49.6890593  14.8943293  15.7289732
  57.5904083  40.7297754  54.3608236  58.3557606  40.5760431  54.9147511
  56.8498182  40.4267025  54.8860884  79.6926165  30.5843782  42.9664421
  78.8477468  30.2418423  42.6747370  79.4696236  31.3357329  43.5159636
  27.0330262  39.5980263  15.8547819  27.6200557  39.6391654  15.0998402
  27.5715971  39.8835135  16.5928006  76.4072371  22.1207523  61.7797136
  76.6388273  22.5437522  60.9528685  76.8466330  21.2710595  61.7453671
  21.2067485  53.1630325  24.0184546  21.7418313  53.1627655  23.2247829
  20.4394531  53.6876535  23.7898397  17.7240944  21.6245508  49.0834522
  18.6339152  21.7463708  49.3547821  17.7460790  20.8598924  48.5080910
  69.5121336  13.5309410  23.6818886  70.4678535  13.5722673  23.6484551
  69.3145037  13.2848310  24.5855498   1.4530416  36.9141006  51.7445183
   1.1854658  36.9512153  50.8262300   1.1589429  36.0542321  52.0451260
  26.2226725  74.3886900  21.4644575  27.1390009  74.6593428  21.5221095
  26.0852528  74.2048216  20.5351901  43.3461666  75.8668375  52.0161390
  43.6530209  76.2315655  51.1860514  42.5224161  76.3229609  52.1882296
  60.6087446  24.0165949  43.2148314  61.1900091  24.7190022  43.5063601
  61.1966085  23.3552194  42.8498268  24.2140317   2.2275184  23.8452721
  24.0706444   1.2875460  23.9553785  24.4827843   2.3233955  22.9315901
   5.9026587  42.0384979  62.7817106   5.3936625  41.6658735  62.0617771
   5.3167152  41.9942617  63.5373163  23.4990311  32.0320559  67.0387840
  23.2649851  32.8923488  67.3871326  22.9873776  31.9523454  66.2337399
  80.4657173  22.5548387  60.6435823  80.3634071  21.7976284  61.2201214
  81.2005138  23.0420876  61.0162687  65.0079250  28.2506800  54.6867609
  64.5720196  27.4806476  55.0518179  65.6350565  27.8949261  54.0571737
  59.2681026  50.2415419  45.8096933  58.7187243  51.0169983  45.6953144
  58.9716101  49.6356678  45.1305485  36.7852569  45.3813648  10.6495702
  36.3263917  45.6555700  11.4436018  37.2416282  44.5786524  10.9017789
  62.1358347  33.0910659  53.1259918  62.9509974  33.0796528  52.6243830
  61.7882967  32.2034907  53.0384541  79.8152828   6.6370398  29.5608902
  79.3454409   5.8196896  29.3952918  80.3793716   6.7483199  28.7956166
  21.5901613  33.7771845   7.8741401  21.9799376  33.8027382   8.7480134
  21.4837837  32.8446031   7.6865095   6.8625164  48.7496996  47.2684622
   6.8705827  49.2493534  48.0848598   5.9957606  48.9126968  46.8964434
  59.3148232  13.9981353  19.6445012  59.1832113  13.4809732  18.8498604
  60.2044964  13.7837899  19.9251604  70.3458166  46.0611725  57.2677088
  70.4595518  46.1036301  56.3182354  71.1293888  46.4816999  57.6218319
  28.6825109  69.6077442   6.0951936  29.2641950  69.6725893   5.3377843
  28.7318158  68.6883736   6.3570374  34.4583130  29.1240478   6.9896656
  34.1191840  28.3094764   7.3607421  33.7568736  29.4374180   6.4186895
  68.8153839  12.1993196  57.5201845  68.9956999  13.0959761  57.2378254
  67.9991388  12.2639048  58.0159712  72.8763437   1.0834899  19.9848402
  73.3347559   0.3096139  20.3122663  73.3937693   1.3673952  19.2312467
   4.1253918  53.4936714  16.8358505   4.2396986  52.8279495  16.1576355
   3.9947280  52.9943609  17.6419806  15.4998028  66.7416477  14.2139399
  16.4323854  66.9098139  14.0788817  15.4557478  66.3064384  15.0653422
  55.9622717  17.9651225   2.3390406  56.2980890  18.8206816   2.6063946
  56.4158010  17.7758229   1.5176341  62.4323797  18.2175696  11.3752508
  61.9356871  17.6175296  11.9315600  63.2680035  18.3284056  11.8287671
  32.5784206  15.2444541  15.9656799  32.1627903  15.0467241  15.1264024
  32.6458120  14.3967903  16.4051747  15.1651847  74.8835897  30.2953768
  15.0623918  74.8753977  31.2470055  15.6250644  75.7026196  30.1111841
  22.2491503  51.7863989  66.2111759  23.1952810  51.6928720  66.3221741
  22.0695925  51.4026165  65.3528643  54.3465996  49.9740505  64.8183298
  53.7123728  50.4313421  65.3704786  54.2870045  50.4139805  63.9703083
   6.9612074  77.0779276  12.7893782   6.6756892  76.3859844  13.3859718
   7.8710741  77.2455168  13.0349135  37.5961375  13.3454812   3.6521718
  37.3078752  14.2244124   3.8983738  36.9624233  13.0613136   2.9934704
   8.7586212  75.6356621  59.0046692   8.3265358  74.7849751  58.9280844
   9.1186231  75.8007574  58.1332445  32.9712057  24.6971631  33.1321263
  32.1340585  25.1612949  33.1324005  33.5915327  25.3223038  32.7571273
  11.2573910  70.6508112  35.9369683  11.5065777  71.5513420  35.7291508
  11.5582716  70.5205011  36.8362594  14.5568621  40.8975554  64.5121431
  14.7891045  40.3326559  63.7751341  15.3844583  41.0473728  64.9691677
  11.0935163  66.5870523  27.5785422  11.7024171  66.4505243  28.3043742
  11.5042043  66.1455917  26.8351197  70.3915739   7.1481156  63.1111908
  70.9784174   6.7039412  62.4991798  70.2480650   6.5107477  63.8107634
  43.8474751  19.3418479  45.8906555  43.7457514  20.1386237  45.3700447
  44.4619131  19.5850348  46.5831566  58.4702492  61.6563702  60.6019449
  58.7121916  61.9218636  59.7146988  58.4470987  60.7000542  60.5678701
  74.8508739   2.9104561  51.3553524  75.6764126   2.4774288  51.5726137
  74.2705393   2.7006555  52.0870829  64.0059948  18.9562392  53.0543137
  63.4082699  19.1229510  52.3255014  63.8318872  18.0487549  53.3040905
  32.8636146  28.8852262  44.8504210  33.5456824  29.2909384  45.3855944
  32.3859715  29.6230888  44.4714117   4.5536232  16.3513827  62.1183634
   5.3374702  16.3720834  61.5693760   3.8827533  15.9540582  61.5631199
  16.7072535  66.5793133  42.1904135  16.6263783  65.7262707  42.6170397
  17.2876263  66.4207125  41.4459372  45.3475952   7.0872819  26.2566090
  45.3541803   6.2474024  25.7974911  45.2227688   7.7372748  25.5651164
  65.3243971   6.2001467  53.4792042  64.5127869   5.6931394  53.4576941
  65.6365013   6.1911130  52.5743628   6.1302489  58.5340214   3.8464475
   6.7853796  58.9339495   3.2745248   5.2922934  58.8496161   3.5081214
  71.3150072  69.4217110  17.8324544  71.7034435  69.9818420  17.1604383
  71.5747118  68.5344887  17.5842154  47.8992987   8.4627318  50.5857897
  47.4404764   9.2926061  50.7162571  47.2548294   7.8970134  50.1605225
  78.9076662  22.0394540  44.7512150  79.3100119  22.2206783  43.9018011
  78.7353516  22.9040885  45.1239681  34.2525625  15.7662833  11.3899779
  33.4640312  16.1815226  11.7393017  34.9629283  16.1045003  11.9351566
  10.5582976  11.0629785  62.8330517  10.8659923  10.4904628  63.5357475
  10.7818544  10.5956519  62.0281553  39.2428184  73.5656881  65.6664562
  39.3970704  73.9232969  64.7920704  38.3272481  73.2867908  65.6530762
  34.8495150  64.1309977   1.9530460  33.9714289  63.9732504   2.2999083
  35.0271869  63.3724737   1.3968971  79.9123335  32.2872615  40.0388575
  79.1570616  31.9797254  39.5376444  80.3363800  31.4868784  40.3483772
  78.6704969  73.6150789  33.0753136  79.5175791  73.2039261  33.2474518
  78.8200712  74.1562891  32.3001027  61.0142899  27.6367211  45.8113098
  60.4927111  28.4010434  45.5663586  60.4340124  27.1199203  46.3702631
  40.7482958  56.9815826  39.7472620  40.8097696  56.2366486  40.3451967
  39.8553777  56.9407845  39.4048166  62.8233576  21.4649630  20.7849240
  62.0169306  21.6628504  21.2610960  62.6739597  20.5964041  20.4114008
  77.9875040  60.5863476  67.2461557  77.9445028  60.3371000  66.3229799
  78.0040503  59.7539520  67.7184629  53.5602665  76.3764048  37.6870584
  53.1303644  76.7375469  38.4622955  53.5346603  75.4286385  37.8186464
   3.7012519  34.6592816  67.9307719   3.0145587  35.2965506  68.1271653
   4.2701115  34.6753128  68.7004303  26.1303997  42.0223093  26.9021773
  26.5267396  42.8809309  26.7541385  26.6023421  41.4355564  26.3112259
  56.4231110  15.5970907  49.8823786  57.2776747  15.9958649  49.7182751
  55.7917833  16.2637758  49.6118546   1.0519313  32.3853731  61.7584467
   0.6124016  31.8589377  62.4262094   0.4121049  32.4565244  61.0500717
  62.5937891  64.5434713  48.0424929  63.3031225  64.6014071  47.4023962
  62.5857973  65.4001856  48.4693432  40.2625418  68.6667585  48.9872360
  40.9117079  67.9640961  49.0202045  39.4322872  68.2184362  48.8262415
  49.3443537  62.9527855  62.4311209  50.0898314  62.6392078  62.9431438
  49.7097969  63.1413031  61.5667486   9.5086718  37.1474910  26.6708207
   9.8523057  36.7790747  27.4847126  10.1811838  36.9541693  26.0176849
  73.8398504   1.4223087  60.8595467  73.3537674   2.0814452  60.3640795
  73.4792280   0.5863572  60.5639696   5.5207372   7.1721637  47.0607662
   5.8981192   6.6722488  46.3369560   5.7688838   8.0789173  46.8806171
  53.0930996  61.4435959   8.7350476  52.2259855  61.3813877   8.3344537
  53.5882711  60.7218504   8.3475953   7.9372406  28.6851096   3.1166384
   8.5128045  28.2934022   3.7735429   7.9584610  28.0709004   2.3827943
  68.7654257  56.1892653  12.4833715  68.5460424  56.8128872  11.7911267
  68.5952377  55.3309774  12.0952880  60.9571886  66.6381407  17.2200048
  61.3007927  66.8353271  16.3486338  61.6299915  66.0904360  17.6244664
  22.7610445  35.6109786  62.2305155  23.5495591  35.8934593  62.6938486
  23.0798388  35.2981019  61.3839245  30.9337854  66.0336065  46.9751883
  31.0855818  65.8868647  46.0415602  31.0499287  66.9765949  47.0914221
  56.6467142  55.3300333  49.8022270  56.9930220  55.9630632  49.1732788
  57.4149370  55.0307941  50.2885628  55.0937653  29.2944193  40.7273006
  55.0088263  28.3591795  40.9126186  54.6125507  29.7234535  41.4348269
  68.5622549  14.9038315  21.1439323  69.0237141  14.6770632  21.9513130
  68.8597727  14.2538297  20.5073667   3.6691895  61.4266586  40.2218056
   4.0854475  61.1040163  41.0210943   3.9564151  60.8191347  39.5401549
   5.7918441  51.4892054  20.1959610   5.0003690  51.1756325  19.7583854
   5.9728390  52.3351622  19.7862935  48.4520864  11.3068271   6.9732660
  48.9612961  12.1124423   6.8842447  48.0629349  11.3646448   7.8458768
  74.3402386   1.4736910  57.3909664  74.5196724   1.2213299  56.4852333
  74.0402174   0.6668007  57.8094721  80.0720215  35.9268022  48.6202431
  80.0522232  35.2374458  47.9564428  79.3605852  35.7023025  49.2199802
  73.6420155  20.9672046  14.0040445  74.2033863  20.2754807  14.3541992
  74.2424631  21.6860867  13.8067997  53.1705809  28.1003571  43.6950159
  53.0943394  27.7777648  44.5929909  52.3721790  27.7969170  43.2629108
  41.9382524  58.6953068  11.6390324  41.7379284  59.0161896  12.5183141
  42.8887224  58.5820484  11.6361701  23.9087439  35.5856586  59.7909546
  23.3914495  35.7592177  59.0044975  24.5715904  36.2761688  59.7988605
  74.0589762  37.8370881  50.0924635  74.1278124  37.2194314  49.3644571
  73.9745903  37.2836971  50.8689070   9.2537922  33.9586353  19.9968135
   8.6392057  33.9425206  19.2631543   8.7529904  33.6144495  20.7363844
  67.1354485   1.0593415  30.1295972  66.6499949   0.4696524  30.7065153
  66.7467833   0.9227797  29.2655802  71.6942692  50.6574821  50.2643490
  70.9735680  51.2813807  50.3513575  72.4226856  51.1785603  49.9265385
  11.0390878  23.0100036   5.2685618  11.3689315  23.0298638   6.1669159
  10.8749688  22.0832562   5.0941080  52.9453897  64.5737934  18.4615254
  53.5769510  63.9496946  18.1039488  52.1821070  64.0409660  18.6845207
  46.7885542   7.6100808  34.9076796  47.4496746   7.7621555  34.2323852
  46.3819456   8.4661692  35.0418901  58.1431580   1.3087960  15.7224226
  57.6688623   2.0437592  15.3337002  58.8945723   1.7118174  16.1573708
  50.7327509  74.3597698  39.7540903  49.9445295  73.8354921  39.6124291
  50.5838871  75.1578760  39.2470431  58.8751888  54.7064066  60.2815104
  58.9792490  54.5906687  61.2259722  58.1691647  55.3469467  60.1950550
  30.8323169  11.1073375  18.4177148  30.3725719  10.7264972  17.6695001
  30.9293580  10.3813887  19.0340042   2.6302209  77.1655798  12.2021770
   2.8280142  78.0987883  12.2810888   2.9496533  76.7830992  13.0194306
   9.0102005  50.0945044   6.9674933   8.1851280  50.0265884   6.4869994
   9.6236420  49.5561886   6.4673531   5.6631416  75.6162882   8.3913541
   6.5487260  75.3427935   8.1522495   5.4386884  76.2894249   7.7489054
  43.0896282  49.0472126   6.3848031  42.8862715  49.7188807   5.7338506
  43.1202841  49.5207930   7.2160739  37.3628211  48.2904673  12.2012794
  38.0421472  47.6748848  12.4766076  36.5425301  47.8128147  12.3245907
   9.5707929  15.8895075   2.6410878   8.6587244  16.1722159   2.7077186
   9.5403636  14.9447906   2.7921355  11.8396270  14.7118640  16.1379111
  11.1321700  14.1376889  15.8445537  12.3097074  14.1968954  16.7937040
  11.9731104  62.5795889  62.6511955  11.0976148  62.2750854  62.4124146
  12.4758613  62.5242662  61.8385410  58.2177162  31.1335921  15.2082658
  57.4503469  31.1912107  15.7775283  58.9209461  31.5433908  15.7120121
  22.2149205   1.9877508   0.3594273  21.7591739   2.2194383  -0.4497997
  22.0249581   2.7111202   0.9568246  11.6503227  40.2846479  32.2226286
  12.4626601  39.7907186  32.3338628  11.8120337  41.1154413  32.6696897
  66.1252451  59.9458885  56.5918016  65.3295326  60.4699945  56.5002632
  66.3748312  59.7304296  55.6931782   5.7025015  78.5947275  30.0879359
   5.0226152  79.2443466  29.9090862   6.0630631  78.8527346  30.9362650
  62.4641657  75.8871222  54.4955683  61.6082573  75.8985138  54.0671682
  62.4305105  75.1280832  55.0777721  29.8856511  78.7674918  10.2213025
  29.9668946  78.3210188   9.3785131  30.3158011  78.1823000  10.8448029
  80.8550930  14.8704898  15.7736373  81.5488434  15.1013422  16.3914096
  80.1205635  14.6045172  16.3267815  55.1586199  72.3956442   1.8916656
  55.9843206  72.8792667   1.9153103  54.6910715  72.7566767   1.1384831
  32.8099942  19.3576741  26.0129976  32.4595785  19.3692136  25.1223183
  33.1480670  18.4693074  26.1258817  43.2859325  26.5798569  17.2628033
  42.7805138  27.3660326  17.0561302  44.1240931  26.7105031  16.8193507
  80.3106213  13.0349839  51.3839149  80.5102921  13.7257159  52.0157766
  81.1607361  12.7940273  51.0158491  28.0440760  38.9466047  55.2344894
  28.1903219  38.0117273  55.3788805  27.8095317  39.2884040  56.0972691
  29.7750211  14.0506685  32.5157118  30.3644252  14.7016478  32.1348405
  29.7531390  13.3420348  31.8726015   1.9310485  16.6141915  30.2369690
   1.5112539  15.9398472  29.7028685   2.2291814  16.1493385  31.0188007
  18.4718037  12.9311657  34.5529437  19.3845570  13.1746757  34.3986249
  18.3138299  12.2018862  33.9534211   1.9792497  25.0941539  19.5108151
   2.1955617  26.0046649  19.7118366   2.5364429  24.5808244  20.0958467
  30.6089950  18.3375669  44.3021345  30.2928853  18.4565592  43.4065056
  29.8808479  18.6244953  44.8532295   4.9551556   3.7934858  17.9637992
   4.1137818   3.9197716  18.4024036   5.0052696   4.5098871  17.3309565
  81.7504025  24.1002321   1.0814485  82.5549221  24.0472317   1.5973727
  81.4679146  25.0103951   1.1710841  17.7422011  44.3603086  54.3576002
  18.3896053  43.6588621  54.4288063  17.8126335  44.8361588  55.1851511
  80.7137203  18.4176230  12.3768985  80.1849842  17.8775442  12.9642546
  81.4152813  17.8362596  12.0835459  14.6730328  25.7571554  18.8511586
  15.3348327  26.3209724  19.2516148  14.1745996  25.4101110  19.5909929
  21.2399244   3.7995151  24.7899151  21.0854268   3.6814785  23.8526678
  21.1578441   2.9200777  25.1588106  61.0278654  69.2641830  33.1626010
  60.5260944  68.6893606  32.5846434  60.5403996  69.2602825  33.9863682
  11.0901010  37.3723221  12.8739929  11.4222240  36.9356561  13.6583722
  11.8228734  37.9075933  12.5694239  36.9250107   7.4340987  22.5601649
  36.0779476   7.5147569  22.9985833  36.7274141   6.9855189  21.7379951
  33.6093545   4.8484629  14.7030973  34.5420694   4.6358743  14.6701908
  33.5567808   5.6060219  15.2858257  23.6075211  14.6173954  23.9560771
  23.7214684  14.4270575  24.8872161  23.3139920  13.7891591  23.5764790
  17.0247066  37.9959631  49.9382162  17.2820830  37.0812988  49.8225498
  16.2349784  38.0917120  49.4058704  48.2231808  66.4208126  35.6303144
  47.9403067  67.2985649  35.8867478  47.5372124  66.1113739  35.0387669
  82.9456806  17.9314983  18.2932365  83.4226799  17.9591274  19.1226566
  82.6400280  18.8291454  18.1627011  75.3272343   7.8651512  36.6898751
  75.8611250   8.0064380  37.4716878  74.6337986   8.5221094  36.7514467
  52.4942398  35.6631088  49.1034889  52.4724102  36.5697670  48.7973356
  53.3925343  35.3763270  48.9389849  41.4174747  54.6098804  36.8480468
  42.2606468  54.7995520  37.2595239  41.4777994  53.6896992  36.5914202
  75.6729889  65.8552456  48.7869501  75.8929682  66.2119436  47.9263639
  75.4826832  66.6246653  49.3236160  20.4235291  62.1571064  24.9438143
  19.7719026  61.4661407  24.8247242  21.1487389  61.9033718  24.3729186
  76.9116640  73.2553339   6.1641455  77.5826693  73.8836861   5.8973867
  77.2678614  72.4032640   5.9124911  40.8251299  78.9000626  37.4506140
  40.2218022  78.4193918  36.8838835  40.3255476  79.6638505  37.7391863
  82.7218151  34.2812467  20.4248285  82.4716949  34.4687271  19.5201063
  83.0326080  35.1198077  20.7660842  50.6700182  62.8270197  33.3907223
  49.9240160  62.7004051  32.8044796  51.2884521  62.1396017  33.1432843
   2.1568182   3.6795065  13.5969162   2.2900055   2.7735350  13.3181536
   2.9207233   3.8782603  14.1383743  79.2543697  24.0329552  11.5435922
  79.5411110  24.3958068  12.3816538  79.9444056  24.2788577  10.9274662
  26.8696523  11.5996075  22.9646254  27.1338892  10.9461200  22.3170424
  26.9635892  11.1540627  23.8065863  74.1871786  74.0665197  29.7718215
  74.0715408  73.3977032  30.4467607  74.2709112  74.8863029  30.2588320
  78.3719778   8.8896102  25.6508040  78.2232189   8.8260466  26.5942359
  77.8758717   8.1596100  25.2803874  44.6528196  55.9679651  15.1704276
  44.3243027  55.5133915  14.3947542  44.6035337  55.3156137  15.8691692
  55.0817728  67.4238062   9.1299754  54.8947906  67.9595613   9.9008423
  55.4542112  68.0372477   8.4965634  12.1249509  16.4896142  11.0406327
  11.2000656  16.6599035  10.8622479  12.5781953  16.7733490  10.2467203
   3.2418337  31.3438773  68.0315924   3.3722851  32.0446634  67.3927546
   3.9477983  31.4642692  68.6666918  65.2181864  48.4345388  54.7613478
  65.7208633  47.7929878  54.2593956  64.4496822  47.9517365  55.0655460
   9.1272748  44.4445276  66.2898397   9.8493594  45.0201035  66.0377693
   8.3392960  44.9177885  66.0227346  71.9096136  56.2106180  35.5202246
  71.2826920  55.6168556  35.9333134  71.3965082  56.6817713  34.8637414
  67.5311613  23.8789606  15.5061233  67.4757051  23.4278870  14.6636927
  68.3741093  24.3317413  15.4803336  20.7253098   4.9559742   3.6405885
  20.5598927   5.8564383   3.9199334  21.3982749   4.6382436   4.2425832
  75.3335238  74.1233778  67.4144030  75.2682495  74.1137362  66.4594841
  75.7034302  74.9818134  67.6205349   3.2304904  61.8497992   4.9514136
   3.6158013  62.3425341   4.2268601   2.8700420  61.0635233   4.5414364
  63.8524818  51.3138437  22.0640564  64.5268965  51.8969488  21.7156529
  63.9031124  50.5328369  21.5129662  28.2539511  33.4343362  26.1921644
  27.9134965  33.7070012  27.0442057  29.1505146  33.7691212  26.1742020
  76.9793749  67.0548153  46.3298178  77.7966881  67.5316477  46.1853504
  77.2142744  66.1347866  46.2090015  83.3765934  59.7887421  59.9480009
  83.2756376  59.7936153  60.8998489  84.1100408  60.3809404  59.7819042
  14.6552467  17.6514018  58.8658190  15.3027952  18.1832159  59.3285131
  13.9997447  18.2805383  58.5645914  58.8462639  70.4334450  21.9120574
  59.6312189  69.8858309  21.8978357  58.3840609  70.2105522  21.1040235
  12.8470170  18.7741089  17.2791803  12.3079193  19.5613050  17.3561883
  12.3183298  18.0819666  17.6762462  10.2046907  69.8492146  33.6404109
   9.4731754  69.2728996  33.8617182  10.7077563  69.9200058  34.4516730
  29.6609592  28.3849669  63.1944036  29.3921781  29.2893338  63.3559942
  29.1308880  27.8658605  63.7992048  29.0046334   0.3444294  30.7525635
  28.6485744   0.5614888  31.6141558  29.9459505   0.4959928  30.8372974
  32.9537010  67.3979473   7.9431927  32.2730660  68.0327797   8.1667161
  33.6670065  67.9272127   7.5863928  80.1614761  30.6188297  62.8737211
  79.7599649  30.0609088  63.5398626  81.0411358  30.7951307  63.2074213
  67.7493954  24.5332170  23.8546038  67.4456739  24.1015887  23.0560541
  68.3223200  23.8897157  24.2716146  19.8918092  39.7843361  49.1233969
  18.9376831  39.7094297  49.1071558  20.0604439  40.5916309  49.6092653
   3.3323473   1.2416779  59.2185783   3.2173958   1.2710695  60.1683950
   2.5205231   0.8546104  58.8909340  71.3297176  65.5446625   8.7284303
  70.7703495  65.8697033   9.4339007  71.3734436  66.2691116   8.1043386
  82.5535202  69.9036169  26.7919445  81.7915821  70.0007153  27.3631263
  82.4280262  69.0549278  26.3674307   2.9167491  11.4490056  56.7633247
   3.5453045  10.9703338  56.2229347   3.4583858  11.9660676  57.3595715
  14.0816486  18.4666073  28.1795430  14.0518427  18.9858305  27.3759580
  14.3304670  19.0922773  28.8598776   7.8712058  70.7318258  47.1490860
   7.5240916  70.6664085  46.2594414   8.5141742  70.0251675  47.2078800
  42.3493242  46.8546534  12.3024380  42.4192715  47.3032141  11.4597440
  42.4951077  47.5419998  12.9524648  63.7067556  31.5893102   5.1263911
  64.4486380  31.2319112   4.6384251  63.3667994  32.2881246   4.5675361
  23.1897449  46.6070032  12.9650366  23.0553722  47.4411345  12.5151503
  22.8733110  46.7612600  13.8551521   4.8732966  31.3070655  56.8396044
   4.6313089  31.9687319  57.4875784   5.1309574  30.5457354  57.3594284
  55.4446650  73.8085413  20.7908320  55.9453249  74.4787884  21.2559533
  55.4520702  74.0947914  19.8774660  17.0523477   0.3619173   2.8674096
  16.7377055   1.2211411   3.1484199  17.9979300   0.3938723   3.0126095
  49.9657154  12.7495956  55.3433561  50.3908777  13.3215094  55.9824085
  49.2732143  13.2894158  54.9622202  74.0793228  73.3523989   5.2224606
  74.8368883  73.5104609   5.7857919  74.0618324  74.1027927   4.6284634
  38.5205626  59.2191505   5.6903476  38.1091785  58.3657646   5.8271939
  38.1521058  59.5329905   4.8645294  58.5850334   6.7828166   3.6877659
  57.8049803   6.2293583   3.6499172  59.1344881   6.3767946   4.3581986
  67.1354675  23.7037015  21.1671734  66.7037630  22.8530025  21.0885835
  67.5518703  23.8404989  20.3162169  62.0054913  45.4350281  63.4310770
  61.2138748  45.0058365  63.1064749  62.6368618  45.3444672  62.7173519
  70.9676313  24.9604273  15.7169509  70.8638525  24.3558311  16.4517462
  71.1863232  25.7981610  16.1251259   6.9191825  48.5617018  60.3220654
   7.4101758  49.3652201  60.1502800   7.1965832  47.9593134  59.6318388
  39.2626095  61.5720892  28.7597609  40.1437330  61.7638350  29.0808344
  39.2245531  61.9910479  27.8999567   1.5034699  17.1279716  14.2488086
   2.2393847  17.4909580  13.7559569   1.5515435  16.1850452  14.0912950
  22.6438022  77.9502821  16.0723662  21.8564796  77.8038263  16.5966821
  23.3322740  78.1181812  16.7158294  20.7498002  13.3683455  32.9180574
  20.6658864  13.6481881  32.0065331  21.6924071  13.2704568  33.0527449
  64.6875000  63.6287212  16.6754019  65.5736256  63.2767105  16.5911138
  64.3806171  63.3047247  17.5222087  69.6363211  29.8006845  55.6596422
  69.8766947  29.6462917  54.7460699  70.4730940  29.8938632  56.1150169
  32.2513223  23.0650520  56.4480877  31.9270492  23.7530971  55.8669901
  33.0500031  22.7505279  56.0245132  25.6162190  15.1430309  57.5921822
  25.6393504  16.0662889  57.3406029  25.0028324  14.7422493  56.9762564
  23.1957722  50.7603407  50.6197453  23.7202740  51.5582180  50.6869650
  23.1728363  50.4129601  51.5113926  47.2087622  28.5597897  65.5741596
  47.3722267  27.7553177  65.0818825  48.0599499  28.9962292  65.6092882
  31.3148022  28.2028866  66.6554689  30.6760287  28.2701778  67.3651648
  31.1029553  28.9320230  66.0726213  12.9149079  24.1730332  67.6127768
  12.8543043  25.0628352  67.2652006  13.8538861  23.9887047  67.6367760
  63.4185076  75.7166004   3.1080413  64.0547657  75.6830025   3.8223785
  62.9185057  74.9049425   3.1942722  72.7620459  51.8542719  10.5222249
  72.1071291  52.3300648  11.0330451  72.9253149  52.4129772   9.7623420
  18.2805264  47.4946642  60.0658560  18.4277236  46.5587664  59.9292374
  19.1552508  47.8564596  60.2079487  26.7581224  22.0719385  60.5125093
  25.9651971  22.3657703  60.0639963  27.0993233  22.8594375  60.9363699
  57.4297523  19.4314146   9.2744106  57.6372576  18.8199520   9.9810129
  57.9095268  19.0946805   8.5176671   0.0760860  16.8567359  53.9074087
   1.0101899  16.6946411  53.7754726  -0.0748993  16.6502535  54.8297930
  16.8613601   7.5382763  17.8440404  16.2586153   6.7947489  17.8538644
  16.7233264   7.9696584  18.6873007  28.2521200   3.9912057  43.0417824
  27.5713110   4.4339636  42.5351286  29.0236473   4.5495057  42.9454470
  16.7967153  14.8720944   6.4625627  17.4079084  15.1897693   7.1272105
  17.3156691  14.2716742   5.9273869  26.6536379  58.3968353  65.5156231
  27.2693563  58.7970066  66.1296177  26.7955256  57.4552917  65.6136036
  83.9080505  72.2495365   5.9061062  82.9955363  72.0170975   5.7342839
  84.3344577  72.1940231   5.0509298  26.7975330  76.4073372  19.1075242
  26.6379309  75.4717684  18.9831412  27.5035596  76.4461708  19.7526991
  71.4960098  18.6008132  31.5162373  71.9668055  19.4166994  31.3462019
  71.4806223  18.5275722  32.4705076   6.2094676  55.9521294  11.3482189
   7.0845437  56.3245821  11.2397993   5.6616360  56.6963482  11.5977240
  79.9896288   7.7264690   1.5295891  80.7317162   8.2295364   1.1942455
  80.0972939   6.8561649   1.1459072  57.5314093  71.0935497  42.1029806
  58.1892014  70.4126310  42.2440290  57.6529169  71.6991043  42.8342581
   7.2689223  10.7440162  64.0810537   6.8307447  11.4454448  64.5629549
   6.9842625  10.8619618  63.1748009  76.6921091  56.3406229  49.8961353
  77.1757746  56.2206221  50.7133865  75.9965611  56.9596243  50.1181364
   8.6973190   5.0220805  33.1796288   8.1480086   5.1922399  32.4144268
   8.6146182   4.0802583  33.3291721   6.9885838  78.3522654  55.0103331
   7.3864514  79.2144632  54.8897171   6.1183381  78.4333467  54.6200371
   7.0928168   4.5297629   3.0612373   7.0893800   4.8341322   3.9687499
   6.3761449   3.8967055   3.0182174  41.2139750  25.8292842  67.9094362
  41.9221592  26.1180377  68.4850502  40.4230309  26.2056017  68.2954788
  25.6945014   2.8428149  41.1017799  25.1609397   3.5423869  41.4788008
  25.3559303   2.7359340  40.2128601  11.8309844  74.8042250  23.9890599
  12.3307335  75.5381489  24.3466091  12.1382117  74.0428877  24.4812059
  11.9251132  28.8248849   2.4094029  12.3226106  29.6859574   2.2798520
  11.2982953  28.7399077   1.6909945  19.9959385  37.5625324  18.0995369
  20.7275796  37.1286416  17.6605916  19.7184503  36.9416022  18.7730932
  10.7647741  39.9233150  15.7770050  10.2131796  39.1576433  15.9373784
  10.3641367  40.3530836  15.0213456  19.5957446  54.8276091  28.1717730
  18.7864304  55.2256441  27.8511333  19.9826872  54.4159508  27.3990893
  72.6901817  75.9111834  18.9803207  72.9277420  75.5875587  18.1113768
  72.8342724  76.8562222  18.9315844  34.0980411   9.1321236  21.2375617
  33.7954593   8.2266569  21.3068891  34.4987535   9.1849798  20.3698826
   5.8108491  13.0227125  15.1751101   5.9899133  13.8953817  15.5252767
   6.0542518  13.0807853  14.2511976  74.1844702  29.9686241  41.4489126
  74.1188574  29.3091679  40.7582283  73.8646555  30.7739830  41.0422802
  33.3742237  52.6868057  22.9182529  33.6982608  52.0513344  22.2799683
  33.3514667  52.2053337  23.7452340  74.3663979  68.4871149  14.1795921
  74.5783091  67.7684355  13.5839200  74.8899031  69.2231464  13.8626873
  36.3710403  22.3197985  62.3923302  35.7510805  22.9786539  62.7050400
  35.9797907  21.9870472  61.5845966  77.6812315  52.3432970  18.8276863
  77.6680374  53.0330372  18.1641233  77.7033186  52.8132772  19.6612692
  77.5934505  56.6276836  40.1481915  78.0989647  57.2859621  39.6713758
  77.9033089  56.6956139  41.0513020  72.4441814  54.2433882  18.7157941
  71.9631720  53.7343979  18.0632663  72.2216272  55.1537657  18.5210705
  75.4342556  43.6818790  53.9540434  75.1447248  44.3860054  53.3738661
  74.6566153  43.4576559  54.4651508  62.6786900  47.6532602   1.7266931
  62.5177813  47.4432850   0.8067745  62.0703316  47.0941496   2.2099432
  83.8329239   9.1061538  19.9667501  83.4462760   8.7962341  19.1477966
  83.5331234   8.4795803  20.6253529   0.5692562  64.5753765  10.5664504
  -0.2503118  64.1323185  10.7860804   0.7662397  65.1098013  11.3357496
   6.6702724   6.3001120  44.8632812   7.0483524   6.8344432  44.1648674
   7.2796112   5.5684990  44.9616671  40.6179667  63.9815283   4.4933516
  40.3188467  63.0881691   4.6626660  41.0493660  63.9320421   3.6403108
  71.9723749  59.0023899  18.9768064  71.8202400  58.9491034  19.9203360
  71.7758274  58.1235170  18.6524963  83.2006741  24.3517232  59.9181843
  82.6416874  25.0050354  60.3388405  83.0084705  24.4375944  58.9844179
  59.8170424  72.5741768  40.5842161  59.2932415  72.1764612  41.2796879
  59.9329090  71.8742895  39.9415898  63.3385086  59.3179560  24.1458488
  63.2061672  58.5421515  23.6010146  63.0794716  60.0503731  23.5866499
  69.1247129  74.1796780  11.6449845  70.0435686  74.1239834  11.9073439
  68.7395763  73.3564234  11.9452357  45.5226088  58.0967188   5.8010948
  44.8534822  58.6562490   6.1953342  46.2926197  58.6604071   5.7264483
  28.1836748  27.0178676  13.0929172  27.7637339  26.7965174  13.9241123
  27.5700450  27.6159739  12.6663530  68.7276411  55.0701618  18.0149209
  67.9095316  55.4146957  18.3730006  68.5099554  54.8214912  17.1165836
  65.6014824  76.3347578  41.0822248  65.0600863  76.2087011  40.3029728
  65.2064800  77.0829964  41.5298223  48.5852337  75.3528357   1.9762768
  49.3173265  75.9240723   1.7439839  48.9490032  74.4684219   1.9347949
  32.7889013  60.2233267  50.7619524  33.2119894  59.4206429  51.0667992
  32.1598673  60.4388809  51.4504862  33.6341333  68.8420773  11.3741612
  33.8482451  68.4187412  10.5427909  32.7761149  68.4886312  11.6089237
  57.6604605  57.9004526  46.0582781  57.4140072  58.0017614  45.1389122
  57.9479742  56.9902945  46.1302757  69.8342562  26.2154675   5.6315196
  70.5754662  26.6394639   5.1990050  69.0645695  26.6669965   5.2851975
  59.8351622  61.1232758  18.3754241  60.7304096  61.4142990  18.2020116
  59.9249029  60.4765081  19.0753293  11.9170904  13.9268839  23.6279058
  12.5806725  13.8332736  22.9444385  11.9184947  14.8610187  23.8367653
  10.4474747  64.9898434  65.7052851  10.1306689  65.3050423  66.5517569
  11.3075888  64.6154737  65.8957577  58.7047863   9.9920046  19.4810450
  59.0992403  10.4420495  20.2281070  57.7692175   9.9689019  19.6820641
  24.9264812  26.5023160  57.1129370  24.0876436  26.1664271  57.4287891
  25.4854298  26.5194917  57.8897953  36.7485285   5.3468192  15.1542401
  36.8339014   5.1357722  16.0839736  37.2395563   4.6580535  14.7062171
  18.0135560  42.9826641  16.6624904  18.3898234  42.7055216  17.4978626
  17.6619518  42.1788549  16.2797475  47.3923349  19.1249573  15.3429043
  48.0410051  18.7047577  14.7782016  46.5908194  18.6206090  15.2034807
   9.6353894  26.6710043  40.8052349   9.6136755  27.5535083  40.4351711
  10.4673934  26.3055706  40.5044651  16.9002998  28.7549424  35.7347775
  17.0650673  29.6896124  35.8591819  16.1778784  28.5576582  36.3309479
  45.8402729  39.7864676   9.9727243  45.0808334  39.3640924  10.3740764
  45.5753946  39.9444628   9.0665734  78.1889486  58.5418749   1.2959659
  78.8941383  58.5928726   1.9412103  77.6071739  57.8593016   1.6304256
  60.1991940  58.8411522   0.5213315  60.1471376  59.3682623  -0.2759631
  59.3327999  58.4422493   0.6017248  70.4506731  49.2363644  63.6330509
  69.7341394  49.7720289  63.9734507  70.1306152  48.9161825  62.7896786
  42.9646826   9.0744036  58.4136820  42.6912975   8.2537079  58.0038643
  42.8777790   8.9135218  59.3532562  68.9621115   9.8631293  33.2891345
  68.4892368   9.4869465  34.0315008  69.5264816   9.1542435  32.9805899
  64.6772909  77.1653080  33.6685085  65.6181192  77.1277428  33.4962988
  64.6099901  77.2105074  34.6222711   0.9966833   8.4640473  36.9431472
   1.2181953   9.3264014  37.2945857   0.2080430   8.2062519  37.4204516
  72.9814291  77.4955416  35.3882027  73.2916737  76.7040014  34.9483752
  73.1565571  78.2003212  34.7646260  83.5447979  71.0351133  24.4231629
  84.2876911  70.5156755  24.1157222  83.2611370  70.5961514  25.2250862
  82.3675442  10.5376732  37.8279567  81.5677547  10.0178111  37.9074049
  82.3621273  11.1048424  38.5990095   1.0559933  72.8773355  41.1020660
   0.3256366  73.2430601  40.6030130   1.7892066  72.8750563  40.4867411
  62.7472973  74.5333815  15.0096714  63.3769560  73.8679600  15.2871096
  62.7111578  75.1489639  15.7417822   9.8564529   1.9749196  11.4975357
  10.5055296   2.2609231  12.1402907  10.1303339   2.3899227  10.6796145
  77.6150084  64.0075731  21.4573669  77.0659781  64.0203238  22.2413540
  77.0269537  64.2692184  20.7488680  14.9793112  15.1990592  53.5543680
  14.9565375  14.2483246  53.4456682  15.8668125  15.4484022  53.2966852
  35.2515697  59.7497797  23.0862808  34.4613957  60.2898312  23.1004000
  35.8794427  60.2298164  23.6262560  68.8777447  20.8837032  32.3368454
  68.0410814  21.0703087  31.9109344  69.5122433  21.4232492  31.8651080
  14.9359584  73.6509323   9.0302974  14.0589166  73.7478876   8.6593109
  15.4323626  73.1897306   8.3542013  64.8785210  42.7298021  66.2224579
  65.5047846  42.9701757  65.5396366  64.6031523  41.8421984  65.9931946
  10.9716380  63.2360649  19.8731673  11.6795325  62.5932837  19.9173439
  11.1064410  63.7938499  20.6392837  55.8707142  21.3222027  62.9898214
  55.8867359  21.9444418  63.7170029  54.9466467  21.2601852  62.7479744
   0.6277228   9.7364265   0.3415193   1.4029771   9.2884541   0.6799470
   0.6032361   9.5044869  -0.5868322  12.9718125   3.3907041   9.1085219
  13.0921626   4.1031611   8.4807056  12.2085238   2.9124516   8.7846452
  18.9116585  31.3515520  23.8004375  18.2220745  31.7201734  23.2483268
  19.6294832  31.1657810  23.1950879   6.2588406  18.4743762  63.6449528
   6.4915490  19.3768787  63.4268570   6.2125003  18.0279815  62.7994871
   1.0130741  72.1334124   3.4442484   0.7101823  71.8547630   2.5800484
   1.6956764  71.5028000   3.6736253   9.8512387   6.4166635   8.8528252
  10.5624616   7.0548272   8.7967741   9.7558910   6.0852498   7.9599053
  35.0430179  64.0571547   5.7509065  35.2260518  64.4536543   6.6026801
  35.5778813  64.5569420   5.1341659  16.9055235   8.3880293  62.0727301
  16.6489136   7.5033623  61.8124437  16.1584425   8.9351803  61.8303871
  60.8398771  11.9186604  62.6472950  59.9098539  11.9067955  62.4211359
  60.8876944  12.4588752  63.4360361   0.7820068  10.1649404   8.3539009
  -0.1523687  10.1020944   8.5519534   0.8527496  10.9198129   7.7696121
  46.0999584  33.9243078  67.5055075  47.0174646  33.6560583  67.5550652
  45.6456327  33.3365154  68.1090975  32.9663181  53.2459259  60.5581284
  32.9856133  53.6905003  59.7106552  33.1393099  53.9384413  61.1958790
  57.5391626  74.6126986   0.7396658  57.8226137  75.4948616   0.4995095
  57.2450209  74.2231655  -0.0837288  76.5402126  48.4513903  17.1510971
  77.3517513  47.9438257  17.1468914  76.3498831  48.6064291  16.2259114
  40.4350948  20.8182573  39.3707466  39.5943928  20.8709073  38.9161301
  40.8619642  20.0476193  38.9964032  67.2196913  59.4086504  12.1825314
  67.9220390  59.3116140  12.8255856  67.6722813  59.5932913  11.3595486
  81.1181450   4.6709880  64.3685627  80.8669472   5.4929388  63.9472246
  82.0750809   4.6729282  64.3459606  66.0574484  49.8194408  42.2745466
  65.3426886  49.5097256  41.7182875  66.8518353  49.5176029  41.8340111
  52.6479864  73.2590389  20.9323359  52.6723862  72.3846769  21.3210869
  53.5615349  73.5447836  20.9279490  10.4710031  26.7091942  18.5086274
  10.7423341  26.4520383  19.3898094   9.9689758  25.9613156  18.1847811
  31.0838580  16.5349340  36.8444157  30.1403761  16.6960168  36.8330550
  31.4714956  17.3939395  37.0119786  66.2531853  78.2488203   4.0794757
  66.7375422  78.3092833   4.9028665  65.6737089  77.4960995   4.1971928
  27.8095627  10.6195378  66.0167456  28.3315682   9.8619437  66.2809324
  27.1412015  10.6989706  66.6973448  19.1449261  31.5665531  35.9936929
  19.5372319  30.7552361  36.3163257  18.3107066  31.2938380  35.6116796
  63.6285877  68.2590818  18.0563247  64.1865253  67.6120043  17.6247811
  62.7640676  67.8491545  18.0845153  42.1937990  56.3949823   9.7867417
  42.0369959  57.0722342  10.4447508  41.8393326  55.5957794  10.1764309
   4.6112132  64.0841293  11.3707709   4.9724531  64.9679279  11.4388597
   5.3630012  63.5344839  11.1495459  17.3269081  50.4601002   4.2202556
  17.4790692  49.8628998   3.4878415  16.6541243  50.0276232   4.7461411
  46.3895416  32.2951007  49.1519117  45.8832979  31.8401289  48.4788942
  45.7312584  32.6343155  49.7584009  35.0441575  11.5022922  32.6177454
  35.9475756  11.7738926  32.4555707  35.1182437  10.6038034  32.9393959
  28.1201553  13.3183479  61.4489031  27.9796052  13.4551311  60.5120087
  28.5961652  12.4895465  61.5011930   2.1174349  57.4798679  14.1502440
   2.6808712  58.2085705  14.4105661   2.2432245  56.8232679  14.8352861
  75.0315475  26.0012627  15.4521358  74.9125814  25.1247883  15.8180225
  75.3932095  26.5151644  16.1741734   8.2274312  58.8389826  42.3832464
   7.7992141  58.8016653  43.2385063   7.6264048  58.3826876  41.7943525
  25.4156709   9.1606653  17.5942981  24.9888754   8.3167630  17.7423048
  25.5945969   9.1769481  16.6541100  24.8412585  66.9659472  25.3037620
  24.6984458  67.8706551  25.5818653  25.4381585  67.0357800  24.5587349
  17.4193490   5.9090465  40.5898857  17.3277330   6.6579348  41.1789560
  17.4108028   6.2919092  39.7126293  56.5648270   7.0681882  20.9927368
  55.9476137   6.4769948  21.4237523  56.0809708   7.8879702  20.8923841
  57.4089098  65.0098419   4.5854923  57.4032974  65.3962660   3.7097776
  56.9706154  65.6584644   5.1363194  67.6676273  73.4778070   5.0847960
  67.3756075  72.8884029   5.7801759  68.0673790  74.2143726   5.5472940
  13.7128871   7.2567995   0.2992899  14.5551628   7.6304777   0.5584604
  13.9324134   6.6204126  -0.3811901  19.4220865   2.9333311  57.4839354
  18.8503242   3.5075217  57.9934692  20.2390242   2.9055545  57.9820061
  25.4912710  38.1811666  51.0950327  24.7827673  37.6020741  50.8141327
  25.2385569  39.0446925  50.7683945  64.4589567  39.0974998   9.2935622
  64.0700054  39.8294449   8.8148129  64.3439054  38.3442354   8.7142646
  82.0945454  58.9496708  50.8468485  81.9235229  59.4529200  50.0507832
  81.2921810  58.4476948  50.9898806  78.0401182   3.7672731   2.6357582
  78.7261820   4.2914167   2.2224554  77.4011707   4.4096574   2.9444966
  54.5428085  41.0224056  61.7993784  54.7533941  41.9536209  61.7306185
  55.3941393  40.5865145  61.8376493  69.5486259  20.5809021  35.0171757
  68.7201881  20.5500102  35.4956818  69.3011236  20.8249521  34.1253161
  67.0711660  52.0634651   6.0431474  66.7907047  52.9773998   5.9952259
  66.5392494  51.6149187   5.3858042  83.6616516  72.2936392   8.6630881
  83.7417221  72.4749088   7.7266252  82.9459000  71.6610384   8.7242550
  58.5714436  64.2525578  21.3906741  59.0488529  63.4430265  21.2091017
  58.0009747  64.0340519  22.1275949  57.9161024  18.9203739  54.5232582
  58.5945988  18.3244514  54.2058468  58.3951998  19.5920992  55.0085258
  68.4663391  10.2075183  68.1798267  68.7110662  10.2307212  67.2547340
  69.0917015   9.6019644  68.5778999  74.3944645   3.2728013   3.6783847
  75.3246832   3.0502099   3.6412501  74.3125010   3.8312650   4.4514513
  10.6254482   7.3735285   6.0652220  10.4032493   7.3511875   5.1344371
  11.1192608   6.5669674   6.2130070  53.5421991  32.7236080  58.9612627
  53.2006979  32.6858711  58.0678511  54.4882298  32.8203678  58.8521767
   9.8141885  24.8331714   3.4003246  10.0312150  25.6818295   3.7862140
  10.3280270  24.2023444   3.9045638  27.7652001  21.5300155   7.0372599
  27.8544116  22.4588919   7.2504783  26.8232369  21.3984132   6.9294703
  28.6258721  18.8509810  29.5859051  28.6436081  18.1184614  30.2018046
  28.5002708  19.6238434  30.1364851   6.2257379  13.5990560  42.3022032
   5.7466418  14.1827214  42.8904486   6.4943415  14.1600394  41.5746164
  62.7069569  19.7097564  67.3999119  62.5326872  19.7954774  66.4626217
  63.4338665  20.3104353  67.5642920  55.4159117  62.7149391  37.5708222
  55.8476305  63.4082794  37.0716882  55.3398275  63.0694056  38.4567118
  56.7043400  20.9177613  13.7397575  57.0696783  20.1672554  14.2082691
  57.3993254  21.5755749  13.7622285  45.8320427  65.4090548  17.6610661
  45.4700184  65.4213238  18.5470808  45.7418108  66.3108063  17.3529553
  77.7794504  54.2339945  37.1822929  78.4099531  54.4068003  36.4831257
  78.1371784  54.6883202  37.9450846  16.1500287   1.7104842  53.1068468
  15.2075529   1.8741940  53.1410694  16.4923537   2.3998037  52.5377417
  33.5534406  57.8475428   3.3323506  32.7778578  57.4070406   3.6797109
  34.0099072  58.1753302   4.1072211  82.1075916  44.3322420   8.3896142
  83.0272770  44.5968771   8.3699632  82.1319485  43.3958912   8.5868120
  79.8273563  18.2116413  25.9872150  79.2847347  17.5595915  26.4306402
  80.2975464  17.7160168  25.3167582  25.7278037  21.8232822  46.1723900
  24.8980331  21.5868664  46.5868998  25.4806757  22.1321082  45.3007317
  69.0187645  54.8567390   5.7490712  69.3697071  54.1781855   6.3258147
  69.3329620  55.6782007   6.1268514  81.4955997  60.4804754  15.0162935
  82.4397755  60.3661489  15.1243865  81.3639450  60.5023623  14.0684438
  11.2733161  25.3831744  63.4210014  10.9153926  26.2704134  63.3904934
  11.1900711  25.1227379  64.3383217  64.6526480  76.8116283  15.1323938
  65.3898382  76.2025309  15.1747072  64.7092104  77.3129892  15.9458256
  15.3162110  27.5478315  12.4326110  14.7044575  27.2060776  11.7805421
  14.8758340  27.4076056  13.2708442  16.3789701  63.2358313  11.5342903
  17.0575511  63.4643078  10.8990276  15.5883658  63.6626911  11.2041867
  18.3214068  17.9004169  12.2138941  18.2936382  18.1590354  13.1350768
  17.5056791  17.4190807  12.0755613  27.6826525   3.6076328  14.4291782
  27.1940923   3.5294431  15.2485859  27.9681277   2.7149931  14.2344224
  24.0757537  28.5219312  20.2072954  24.0013313  29.3073034  20.7494044
  24.2418432  28.8545895  19.3252599  57.7865314  71.0381603  61.4543343
  58.1260824  71.4963579  60.6855726  57.5733089  71.7357254  62.0741463
  82.9382515  62.3686171   1.8188651  82.1614456  62.6620722   2.2949857
  83.6692047  62.7923107   2.2687779  32.8843904  22.9283214  28.9416981
  33.3255029  22.0849824  28.8395596  32.9871774  23.1416059  29.8691559
  21.4394069  25.9938788  42.3253584  22.1141791  25.6654477  41.7311811
  21.9270992  26.3523293  43.0669117   8.2111663  67.2309256  13.7717319
   8.0825406  67.9996777  14.3273449   7.6457500  67.3850822  13.0149150
  15.4703641  49.0675402  62.0301151  16.0594857  49.3325996  62.7364540
  15.1686728  49.8916388  61.6479158  75.7652473  16.7863119  16.1586761
  75.9368563  16.3452005  16.9906628  75.5736542  16.0761678  15.5461252
  26.8204689  36.4526176  10.3017282  27.2319508  36.7903757   9.5062184
  26.5101147  35.5802655  10.0590062  23.2201910  39.1447568  58.7330818
  23.7238503  38.6729455  59.3963671  23.8215804  39.2331433  57.9936552
  45.5387926  68.7110424  11.8211961  46.1019802  68.0552435  11.4101255
  44.7368574  68.6994648  11.2987006  29.4480801  16.6981113  63.5140944
  30.0959897  17.2452414  63.9580488  29.9364376  15.9207988  63.2429361
  16.5028036  20.9613061  24.2991018  17.4225831  21.2155628  24.2243242
  16.1417878  21.5583396  24.9544263  61.0567188  17.1043646  13.3185482
  61.4076805  16.2230909  13.4466624  61.3337994  17.5879836  14.0967357
  67.1047401  57.8953648  33.7508488  66.9725895  57.0744705  33.2766128
  66.4795399  58.5033035  33.3561707  16.6978073  34.4142842  19.7208905
  15.9987772  34.5936489  20.3497124  16.3981616  34.8201537  18.9074326
  48.0710316  42.9893732  15.5779684  47.7719355  42.3810053  14.9022019
  48.3568001  42.4264860  16.2974989  45.6065702  37.9731584  20.1803589
  46.4269686  38.3782387  19.8991406  45.8688974  37.3394513  20.8480644
  30.4057837  61.9285774  64.4387627  29.7649550  61.6333961  65.0856304
  31.1052632  62.3250055  64.9581957   0.6270396  63.1271553  25.6128573
  -0.0510881  63.0091906  24.9476814   1.4035410  62.7097940  25.2399135
  60.0152874  24.9359608   8.3690679  59.7566795  24.1185403   8.7947154
  60.0805569  25.5683851   9.0846193  25.6059885  11.1812210   5.9975225
  26.3072038  10.5426025   6.1267292  26.0332942  12.0310462   6.1044800
  17.2208178  14.4368255  19.0690780  16.2989068  14.5517683  19.2995107
  17.6453567  15.2393377  19.3723488  44.9576044   4.8040092  32.0544171
  44.7155571   5.7099509  31.8622828  45.8323717   4.7049698  31.6786504
  47.3587894  11.5770757  29.1092372  48.1618357  12.0368564  28.8643813
  46.9594240  12.1325135  29.7787380  53.4716272  28.2828951  65.7390833
  54.2231607  28.1904173  66.3246441  53.4021616  29.2251396  65.5855274
  22.0393610   7.4809748  15.9020853  22.3573947   8.2763916  15.4750049
  21.8971348   6.8641144  15.1841116  69.5773745  63.7262487  51.6345549
  70.3471661  63.4185553  51.1560345  69.8945141  64.4716024  52.1445608
   7.0926487  73.7313652  11.4839327   6.4621222  74.4016981  11.2206399
   6.6960371  72.9063702  11.2040806  12.3897398  18.0917609   5.0576240
  13.0110824  17.4481928   5.3981924  12.7629828  18.3648574   4.2195672
  22.8093266  19.6558297  11.2111783  23.3238864  19.7628772  10.4111779
  22.3458934  18.8272846  11.0888052  51.2218952  70.8283854  57.9885578
  51.2654543  71.4410400  57.2544003  51.9980478  71.0267782  58.5124445
  47.3756504  40.2918673  64.5883131  47.5124598  39.3475008  64.6637106
  47.4943113  40.4774570  63.6568069  16.7458427  15.8232498  57.9425097
  16.2708235  16.5499508  58.3456135  17.5385046  16.2238955  57.5855732
  11.1235392  55.7174015  20.3214359  10.2003038  55.8890820  20.1359844
  11.1112559  55.1428509  21.0869265  68.3425617  55.1775169  57.5778246
  68.7879038  54.3302631  57.5698280  67.6583242  55.0947237  56.9135952
  63.5026836  42.1633053  61.7118597  63.7064171  41.3385201  62.1528196
  62.8839254  41.9202328  61.0231733  27.3713160   9.0764761   6.6620189
  28.0027747   8.5847861   6.1369157  26.6138196   8.4954697   6.7317325
   2.8193966  74.1826725  16.5164232   2.8474724  74.8380184  15.8193147
   2.8865799  73.3441448  16.0597074  81.4661217  70.6487465  55.2294874
  81.2059021  69.7276592  55.2403116  81.1164761  71.0060215  56.0457802
   2.3683567  38.1111979  42.9021358   1.7467175  38.2264423  43.6208248
   2.0844342  38.7382674  42.2370005  30.4773450   6.4014673  34.5344877
  30.2042079   6.4791471  35.4485941  30.9881568   7.1938759  34.3689775
   8.2209140   7.6231533   3.4480929   7.9456323   7.0164305   2.7608234
   7.7649671   7.3189718   4.2328337  25.6999993   6.7699754  25.4672742
  25.7301378   7.3108780  24.6781325  24.9831128   6.1556727  25.3093505
  19.8421597   2.0368443  27.8310156  20.2681398   1.8372345  28.6646390
  20.0728416   1.3023272  27.2622418  19.1302371  35.4161215  29.8361254
  19.0870559  35.0407767  28.9566469  19.9919415  35.8308339  29.8775029
  79.2809010  74.6019936   8.4784603  78.8428593  74.7355366   9.3190062
  79.0674257  75.3844738   7.9701418  60.9409475  67.8176498  57.4647999
  61.6266060  67.9092073  56.8031931  60.8322573  68.6995411  57.8207254
   7.9331517  28.6653137  23.2461691   7.1257061  28.1752324  23.0909824
   8.6310524  28.0213165  23.1260228  71.8515921  51.6900110  64.1724777
  71.7824507  50.7681513  63.9242363  72.2836971  51.6763306  65.0264835
   5.9976202  70.5036545  62.9938984   6.8658763  70.3101969  62.6404333
   6.1644161  70.8065081  63.8864708  80.6267548  14.8785222  65.4497051
  81.4427185  14.3847799  65.5312538  79.9474049  14.2671549  65.7342291
  78.7206602  75.8390903  52.6900816  79.1683960  75.5957079  53.5003519
  79.4036245  76.2348366  52.1486187  76.1825371  30.0844336  53.0483866
  76.7128086  30.6766796  52.5152016  76.8005466  29.7081757  53.6750698
  65.0621033  26.9173765   3.7366903  64.3161917  26.9469190   4.3358323
  64.7115183  27.2287941   2.9022196   0.6728709  50.2536917  19.7225845
   0.7189046  50.1090622  20.6676745  -0.0776605  50.8361626  19.6056974
  83.6467838  51.6364241  59.6714640  83.9006615  50.9335279  60.2695608
  82.9245377  52.0801020  60.1161480  21.0092330  55.5361176   7.5203550
  20.6489706  54.7730684   7.0684695  21.7726803  55.1986599   7.9888666
  35.3403115   0.7440987  26.2047338  35.7258749   1.0715006  25.3920960
  35.6547332  -0.1574197  26.2728214  37.4466038  45.1137686  23.3201647
  37.4653721  45.8645582  23.9136243  37.2080994  45.4855919  22.4709940
  18.3459914  13.7581587  59.5056248  18.2545137  13.8108301  58.5542631
  18.2666361  14.6640682  59.8043919  49.1116762  35.4979706  63.4198856
  49.8238420  35.7423401  62.8288412  48.4199715  35.1766801  62.8414822
  72.9564190  17.9091847  26.8227577  72.5712872  17.0727682  27.0841289
  73.1585836  17.7998328  25.8935642   0.6076322  77.3458624  25.8182287
   1.4145035  77.2031260  25.3234386   0.4939748  78.2962847  25.8220482
  77.1965218  57.7456570  43.3797503  78.0602980  58.1389570  43.5039949
  76.7254591  58.3712006  42.8292704  17.6215219  31.1213279   9.1340017
  17.8615928  30.3160691   8.6755753  17.8704143  31.8228364   8.5321951
   1.1560090  40.3125000  20.8909655   1.9913849  40.0213051  20.5254745
   0.8435643  39.5645261  21.4000320  54.5185423  47.0471621   8.3589560
  54.8869562  47.7591562   8.8819951  54.4715977  46.3059044   8.9627445
  21.0876679  28.5533595  19.8556912  21.4843202  28.9895654  19.1016185
  20.9872627  29.2466784  20.5079651  44.7577047  28.9868236  12.8306401
  44.5115995  29.8465705  13.1719613  44.0388775  28.4109545  13.0912018
  29.3483686  14.0021455  22.1674943  28.5613346  14.5379984  22.2658443
  29.8868799  14.2259252  22.9265451  80.5292797  72.4604940  62.1947622
  79.7482109  72.0272303  61.8505955  80.4699612  72.3433971  63.1429195
   5.6168908   1.8057285  23.3085799   5.3358424   1.9785835  22.4100447
   4.8348773   1.4648890  23.7427616  14.8894417   0.7816502  11.9011581
  15.1064515   1.7085180  11.8008852  14.4212568   0.5569282  11.0970855
  13.0101955   1.8224722  19.6934509  12.7162838   2.5961429  19.2125344
  12.3479557   1.6970412  20.3731108  83.7313557  19.8481572   7.1318507
  82.9404259  19.7837818   6.5965837  83.9930153  18.9398658   7.2827637
  63.9864206  67.9671097  38.8926005  64.4889355  68.5269690  38.3007693
  64.3047571  68.1951904  39.7660279   6.7351586   5.8301753  31.3405395
   5.9199905   5.3688234  31.5377378   6.4627272   6.5861666  30.8204532
  63.0125332  72.5597715  51.1336756  62.8379059  73.4958410  51.2311935
  63.4395075  72.4833965  50.2803898  59.7350311  40.2109718  55.9888363
  60.5589724  39.7245502  56.0162258  59.4698286  40.2846861  56.9056082
  14.3053353  42.5981331  60.3009796  14.6335363  41.7303753  60.5365849
  14.6453416  43.1763363  60.9838533  13.1551528  33.3237076  55.4196024
  13.1912315  33.7811685  56.2596369  13.3868384  33.9908147  54.7734451
  36.5242219  77.1625423  23.0781174  37.3246551  77.3138952  23.5807395
  36.1288261  78.0298471  22.9904914  62.8283262  77.8480244  21.7263722
  62.4215984  77.7108049  22.5819254  62.0953035  77.8537178  21.1108398
  46.5519285  28.8387752   6.0314614  47.1423197  28.5700107   5.3275895
  47.1117878  28.8933468   6.8059355  53.6718464  68.6315203  56.7391014
  54.4419622  69.1834450  56.8752193  53.4264231  68.3418751  57.6177979
  20.5415821  37.5293899  21.5488458  21.4185047  37.9130459  21.5557885
  20.2590299  37.5941586  20.6365943  28.5040164  64.1610432  66.4368725
  28.9879513  64.6195126  67.1237850  27.6269722  64.0410948  66.8010664
  61.6965675  55.4667854  64.8218107  61.1792326  55.6693268  64.0423441
  61.1949778  54.7872972  65.2722836  75.8121538  76.6254377  45.4071522
  74.9163151  76.3893795  45.6479454  76.3339901  76.4026499  46.1780548
  29.3795753   8.1911457  27.6430607  30.1140738   8.8044089  27.6174855
  29.7899270   7.3281544  27.6986504  44.5834732  61.2075138  32.5686502
  45.1439476  60.5489206  32.1583414  44.3124294  61.7746830  31.8467855
  83.1715107  55.6285334   3.2905453  83.2044697  55.4514265   2.3504499
  82.3734760  55.1920605   3.5886604  11.0687733   6.2652415  33.7990761
  10.2879465   5.7121652  33.8245058  11.2735629   6.3478160  32.8676915
  63.5455608  73.7028885  23.3040690  64.1480637  73.1951714  23.8476157
  64.1141844  74.1970205  22.7135396  57.9874039  18.4559321  17.4311328
  58.6110020  19.0051126  17.9062748  58.2018375  17.5625730  17.6997566
  11.7117763  69.7643232  15.1383066  12.5182557  70.1942253  14.8536837
  11.6986227  69.8843765  16.0878575  61.0735178  18.9379907   8.5607332
  61.1972523  18.3920836   9.3372047  61.9413757  19.2998934   8.3816177
  80.2237511   5.4524821  12.3868728  80.1101971   4.9961501  11.5531480
  79.4176149   5.9570360  12.4954951   5.6563181  61.2366056  14.9520707
   6.1399376  62.0323420  14.7303891   5.3026652  60.9307480  14.1168380
  18.9300454  37.1444225  13.6051309  19.3650997  36.4078498  13.1756914
  17.9998684  37.0135951  13.4210467  12.4458635  31.4445353  13.5977471
  11.6926134  31.9427061  13.9150333  13.1914520  31.8068671  14.0763342
  33.3315063  21.1663246   4.3470314  33.5349321  22.0880938   4.1883209
  33.0970263  21.1290145   5.2743173   4.3698674  42.2759676  52.2400379
   4.7949213  41.4923143  51.8915415   4.6815890  42.3360205  53.1430626
  58.9674759  21.7061758  10.1787078  59.5647287  21.0715961  10.5747306
  58.3793879  21.1774206   9.6394485   7.2093642  17.9427290   9.6157289
   7.1031457  18.8824594   9.4678944   6.3211119  17.5900042   9.5625836
  18.6969280  12.7487516   6.9124103  18.2604361  13.2087421   7.6294285
  19.6307862  12.8764975   7.0792109   2.0181212  26.7719746  14.7646523
   1.0654149  26.8522120  14.7183418   2.1721494  25.8431411  14.9372041
  19.5491719  76.5449715   1.7977871  18.8732708  75.9682178   1.4417765
  19.6076131  77.2630215   1.1675317  69.8452568  35.0426126  11.5898609
  70.5071068  34.7089052  10.9842002  70.2896643  35.0733542  12.4370861
  66.7074633  13.1851447  64.5805597  65.7676888  13.2729471  64.7397423
  66.7749548  12.4976361  63.9179850  78.3724785  14.4726884  10.9124935
  79.3039942  14.3588698  11.1010516  78.1234074  13.6750567  10.4456103
  81.9609261  60.8433056   7.7381271  82.7100563  60.6932497   7.1614844
  82.3403740  60.8941507   8.6154312  32.4759483  43.4127331  62.9337025
  32.7241778  43.4871292  63.8551569  31.6288972  42.9671955  62.9490566
  83.1238079  18.6600173  13.6494434  83.8924503  18.0983055  13.7489462
  83.1245232  18.9052427  12.7241886  52.2626209   5.4435253  38.7790537
  52.4248314   4.5108724  38.9207554  52.9513693   5.7170850  38.1732297
  51.3243818   4.2752257  47.6383400  51.2598515   4.2510080  48.5930538
  51.5240479   5.1889926  47.4348783  39.4938326  75.3129196  17.2842515
  38.7671375  75.0237274  16.7324209  39.2605662  75.0144482  18.1633043
  12.2501326  61.9429922   8.3612221  12.1473312  62.8471661   8.0643469
  12.4609888  61.4525461   7.5667220  19.9258816  10.4378593  67.5303936
  19.6995425  11.2913013  67.9000425  19.8576546   9.8316514  68.2680178
  61.1235046  69.1101027  64.8911476  61.8225622  68.6667824  64.4105053
  60.4461050  69.2711926  64.2343283  63.2157564   9.2901683  22.6694918
  63.8709831   9.0751630  23.3333278  62.4837065   8.7024415  22.8563380
  14.8356152  40.7819891  18.2093024  14.3629920  39.9496365  18.2164669
  15.2820480  40.7966471  17.3627126   6.8015653   1.1953223   9.5699543
   7.5720125   0.9551200   9.0552258   6.2135148   1.6126084   8.9404303
  78.5876465  33.5454941  57.0677137  78.3821678  32.7596688  56.5612650
  77.7494431  33.8138795  57.4440336  18.5851312  15.3750908   8.8281387
  18.2906437  16.2402415   9.1127855  19.4742370  15.5193102   8.5042202
  33.6707306  61.1036539  29.2725396  34.0598583  60.4285479  28.7166214
  32.9492044  60.6601095  29.7185254  55.3959179  69.2521858  28.2622409
  54.6837664  69.5565605  28.8247657  56.0616350  68.9317846  28.8708425
  69.1438484  31.9918776  65.4046583  68.8054419  31.7283750  66.2603951
  68.9693832  32.9318476  65.3571987  63.1151104  26.0003281  14.3700802
  63.9196587  26.1491036  13.8732922  62.4379587  25.8915472  13.7023473
  26.9425774  54.1790009  61.5980482  27.6109695  53.5359001  61.3616085
  27.2922897  55.0136423  61.2861109  82.9962444  27.9322934  34.1199040
  82.3861885  27.6881003  34.8159194  83.8093472  27.4798870  34.3444657
  10.3579473  27.6481414   4.3252683  11.0688889  27.2184658   4.8008430
  10.7803822  28.3761621   3.8694540  66.7548847  49.6217442  58.8844442
  66.2928963  49.5408583  58.0500221  67.5889635  49.1746521  58.7407351
  17.7505243  78.7428761  27.3987222  17.6436889  77.7995110  27.2767377
  16.8605828  79.0924883  27.3538709  20.3775495  16.0784920   0.1713259
  19.5779222  15.5603083   0.0801117  20.1164096  16.8302734   0.7031757
  69.6433163  54.7052336  -0.1321709  69.2885303  54.5173645   0.7367727
  70.3746700  55.3007317   0.0313480  60.9246159  40.1526546  50.9824133
  61.7340708  39.8042345  51.3560724  60.5993891  39.4506502  50.4188108
   0.2428334  74.8178911   1.2417001   0.2844787  74.3202639   2.0583151
  -0.2883399  74.2762661   0.6579837  24.0939879  15.5857837  18.6139643
  24.0435219  15.8210421  19.5404291  24.7618079  14.9010456  18.5767615
   3.5889533  39.6002030  19.6899271   4.2805272  39.0492034  20.0564742
   4.0565133  40.3055763  19.2426395   9.6252090   9.7776872   2.2587560
  10.5511487   9.5844686   2.1120118   9.3160534   9.0614420   2.8134155
   4.4713652  50.7261562  58.6319256   5.1582015  51.3719034  58.4661007
   4.8576665  49.8918486  58.3655930  26.2027502   7.9887110  12.0640647
  26.0487771   7.1421295  11.6447508  26.5787745   8.5335600  11.3727069
  23.6122394  63.5727835  61.0486174  22.8161263  63.9907980  60.7204342
  24.1181469  64.2890787  61.4322996  73.9526272  52.0107985  55.7171440
  73.9843416  52.9024887  56.0637283  73.2474899  51.5881920  56.2074614
   4.3313470  15.0533569   3.5685492   3.6405092  15.1312232   4.2265093
   4.4304425  14.1106117   3.4357232  24.6796870   6.7655689  54.2124462
  24.6442676   5.8203679  54.0655708  23.7816429   7.0064312  54.4398975
   3.1240648  28.8998485  39.9911499   2.5224125  28.3487439  40.4916763
   3.7679017  28.2883358  39.6337199   9.0890527   3.5839266  57.4020576
   9.6819228   3.6827159  56.6570902   8.2836306   3.2328123  57.0222616
  46.1064148  72.7385473  26.0064936  46.8137169  72.7992439  25.3644133
  45.9078789  73.6476707  26.2307954  10.3674483  77.9911661  21.5026498
  11.2952590  78.2106590  21.5876317  10.3514004  77.0356607  21.4480257
  83.4603596   5.1617390  34.2355967  83.5594749   5.2429360  33.2870102
  82.5554466   5.4236662  34.4051576  34.0923548  20.7483602  27.9805207
  33.4110498  20.2691412  27.5089192  34.1243863  20.3330874  28.8423514
  51.8947697  26.2130451  18.3646119  51.5241098  25.3371572  18.2566082
  52.8380728  26.0668492  18.4355986   2.2634888  35.0228286  17.9084456
   2.7504107  35.8296704  18.0762076   2.6900271  34.6407509  17.1414292
  38.0781531  36.7133164  67.8484249  38.1818771  37.5718260  67.4380159
  38.9234281  36.5427828  68.2639456  13.6824191  14.4189453  18.3882248
  13.7351048  14.6379757  19.3185377  14.0718067  15.1712978  17.9426074
  30.9687114  14.2946243  24.1281319  30.3779817  14.5071721  24.8506927
  31.6799498  13.8017273  24.5373058  76.2567520  39.4905043  53.0021143
  76.3055611  40.4457474  52.9652262  77.0143604  39.1923571  52.4987602
  72.2902822  45.3055382  15.6875408  71.8471336  44.6298409  16.2006533
  72.8702974  44.8193836  15.1014769  32.5825000  30.9205651  15.2097869
  32.8194547  31.5514231  15.8895671  31.7221260  30.5950975  15.4744792
  75.7078886  66.1282730   8.4571713  76.4619875  65.7762623   7.9842520
  75.2520609  66.6693068   7.8123951  52.0489073  24.3165946   6.4893097
  52.2891712  23.6499214   7.1327782  52.4674606  24.0283966   5.6781459
  16.6134048  20.4805422  21.6662097  15.6635511  20.5819440  21.7272472
  16.9227397  20.5749488  22.5671172  59.2549467  23.5864973   1.8187094
  59.0961885  23.2310390   0.9442518  60.1903248  23.7894726   1.8285583
  59.1592550  40.2455044  58.5218954  58.2755089  40.5746126  58.6859512
  59.2850065  39.5596790  59.1776896  57.7180052  53.0314445  65.3753805
  57.8853226  53.2340527  66.2958097  57.6562357  52.0766401  65.3477049
  25.5989981  77.8971100  20.9489012  25.9129977  77.3662806  20.2168822
  25.9021020  78.7829399  20.7497358  18.8363743  78.0336523  42.6596022
  19.3903446  78.7792635  42.4284887  18.9052081  77.9703045  43.6122227
  22.1174240   6.9500530  51.5528297  21.7796636   6.7027128  52.4136257
  22.2520065   6.1175048  51.1000776  23.9607334   6.9739670  17.7089691
  23.6132193   6.4131641  18.4024858  23.2102180   7.1438187  17.1396637
  48.7464142  17.8668892  18.5911751  47.7990532  17.7649868  18.4997642
  48.9906406  17.2374725  19.2697179   9.4437718  29.1207099  33.0933833
   9.9850279  28.5482311  32.5497460   8.5459721  28.8388562  32.9180384
   5.7656848  12.6880586  19.9052596   5.2635109  13.4753883  19.6951032
   5.4264939  12.0211685  19.3082333  49.9373055  39.7336459  60.0959015
  50.3092384  40.5577803  59.7817278  50.4079771  39.5532489  60.9096289
  41.7965889  16.2237418  52.1755648  41.1854935  15.5514944  51.8741035
  42.2985935  16.4584291  51.3950872  25.6878877   4.0200415  49.5138979
  25.9763622   3.1289801  49.7114468  26.4442587   4.5684034  49.7223043
  46.1000204  72.2623587  54.8685598  45.3649807  72.7301979  54.4722366
  46.6634321  72.9530716  55.2174377  71.6263628   2.5960803   3.3521053
  71.4021826   2.3562165   4.2512384  72.5797987   2.6806828   3.3574158
   9.6103030  44.3263197  23.2528067   8.9484739  43.6706209  23.0330992
  10.2824962  44.2231989  22.5791955  75.3559303  62.0591116  37.5093269
  76.2280035  61.6928625  37.6562476  75.5044985  62.9996490  37.4116325
  83.6095142  21.1426592  31.0152411  83.1980896  20.3656387  30.6368160
  84.4252014  20.8194542  31.3978982  10.2778161  14.9584949  35.1078987
  10.3365290  14.9250996  34.1530848   9.5422715  14.3849039  35.3228402
  34.0421319  11.7935014  58.4714890  33.4708691  12.1327198  57.7824163
  33.5282803  11.8827379  59.2741251  72.0200634  18.4598780   0.5338663
  72.5137901  17.6484311   0.4154742  72.3325729  18.8108969   1.3677448
  66.5032196  64.9504042  33.5064220  66.1924267  65.6480026  34.0834808
  66.4570045  65.3278208  32.6279855  46.1469412  65.6804037   1.7944087
  45.5747747  66.1631727   1.1979289  46.9787169  65.6121635   1.3256615
  79.8476171  73.5974264  35.8028126  80.6057453  73.1455040  36.1732745
  80.0440693  73.6685371  34.8686910   2.1202601  76.2140274  64.2505884
   1.9835664  75.8105040  63.3934355   3.0107412  75.9617710  64.4948053
  83.2602882  77.5922012   5.1521164  83.3794594  77.9559278   4.2747730
  83.9615440  76.9467878   5.2411097  23.5902619   6.8815881   3.1455591
  24.0570974   6.6921508   2.3316728  22.8087211   7.3593479   2.8677619
  26.0139799  59.8575830  55.0543928  25.7492018  60.4107332  55.7893419
  25.8528757  60.3957462  54.2793703  56.5358353  43.7802839  11.2721837
  57.4624395  43.6329508  11.4617264  56.0853481  43.5477018  12.0840955
  19.4308412  22.5326085  66.2249422  19.4830143  21.5888333  66.0739422
  20.0700784  22.7000690  66.9174480  67.4288750  20.5857944  36.7534733
  66.7999792  20.0339890  36.2884617  66.8911648  21.1266756  37.3318720
  24.6141386  26.8328381  66.9358683  24.6421909  26.9510102  65.9864044
  23.6831880  26.7401576  67.1382904  41.8688297  16.2905371  34.9705052
  42.5026560  16.1261666  34.2723107  42.4040461  16.5111601  35.7328057
  53.1056404  28.7025237   4.9267766  52.4362230  28.7921762   4.2484862
  52.7199364  29.1145468   5.6998885  69.2817688   0.2657727   2.7783984
  68.6588287   0.9718724   2.9504591  69.9167109   0.6487499   2.1730831
  51.3474607   2.3512892  20.6677508  50.7312727   1.9069344  21.2500644
  52.1862364   2.3054771  21.1266565  77.5469971   0.3072711  40.3267956
  77.5060701   1.0554441  39.7311521  77.2494698   0.6541605  41.1678553
  67.3308659  72.6372623  66.4357185  68.2142973  72.9904175  66.3305187
  66.7578840  73.3140564  66.0753441  60.4527569  38.1169438  49.2974472
  59.6645308  37.6043105  49.4767094  61.0935211  37.4732518  48.9952564
  45.1387835  28.4980297  56.4033318  45.6575966  27.7055836  56.2651443
  44.2859602  28.2961154  56.0184145  64.7157526  35.5737400  10.9456503
  64.5619059  34.8383808  10.3525126  65.0945282  36.2546849  10.3897059
  48.1287718  52.9152966   9.8109925  47.6490307  52.3865032   9.1734540
  49.0465117  52.8260088   9.5540667  21.4044547  46.9854021  60.5493498
  21.1934328  46.1172104  60.2059221  21.4104581  46.8720484  61.4997911
  16.0743582  57.4615431  65.2928591  15.2796221  57.9089594  65.5834532
  16.2492871  56.8154430  65.9771013  68.5907650  68.8305330  61.4783812
  68.4502745  69.1416264  62.3726511  69.5306587  68.9378023  61.3323545
  36.4909029  42.4968433  16.6742563  35.8301377  42.9304028  16.1342120
  37.1326685  43.1814432  16.8631661  31.6792345  60.1153946  13.8616776
  32.4071050  59.7900772  14.3913972  31.6718745  59.5482016  13.0906606
  19.1160548   3.0394349  53.1578255  18.4368086   3.0063182  53.8314390
  19.8838675   2.6459235  53.5723639  25.0473213  56.7694473  15.5856323
  25.5006814  56.8416977  16.4255583  24.1220140  56.8839359  15.8022761
  45.0239992  27.9641533  48.0180931  44.9658728  27.7263927  48.9434719
  44.6035528  28.8223934  47.9644489  28.5534835  74.9544287   7.3313415
  29.4840407  75.0848150   7.5138068  28.1080985  75.2803421   8.1134188
  67.0050001  57.7077150  42.1263981  66.1157131  57.9002285  41.8291759
  67.3509932  58.5537529  42.4105358  32.8799772  13.6829722  39.1136622
  32.1416736  13.7303984  38.5062981  33.5586238  13.2126391  38.6294556
  20.8549476  23.5669541  20.9657836  19.9405122  23.3199954  21.1038089
  20.8966398  24.4868875  21.2269664  73.8900805  10.7301772  57.4269629
  73.3184528  11.4603758  57.1897221  73.2952690  10.0597823  57.7631235
  61.0737419  30.5034852  53.4274864  60.6903362  30.3997445  52.5565815
  60.4094601  30.1587343  54.0242386  59.2176390  54.3414545   6.7457980
  59.7687006  54.1626501   5.9838331  59.3929720  55.2581358   6.9583708
  17.3814559   8.2314956  64.7962856  18.0593109   7.5563675  64.7655296
  17.0825744   8.3122444  63.8905334  63.0825281  13.3937275  14.7290003
  63.6020660  13.6820817  13.9785588  63.6918068  13.4209001  15.4667509
  37.4983406  30.2039266  61.9523144  37.2354627  29.8287773  62.7927828
  38.4203005  30.4327488  62.0700359  61.3901806  70.2632666  51.0602283
  62.0137215  70.9042120  51.4017248  60.6913376  70.7911968  50.6740379
  71.5790558  72.6140308  66.1870480  71.9384193  72.2352982  65.3847694
  71.4444065  71.8641376  66.7665005  44.8382711  19.0131855   2.4366154
  44.4330120  18.2378316   2.8249770  44.6887302  18.9159834   1.4961785
  47.4303246  42.6021338   8.9510083  47.3978996  42.5018358   9.9023873
  46.6236067  42.1919203   8.6392951  20.4400039  17.0601285  60.9621859
  21.1160588  17.6872826  60.7055616  20.7257867  16.7359960  61.8162918
  68.9298820  68.7032890   0.4345981  69.8584747  68.9340687   0.4082648
  68.9222765  67.7491045   0.5101149  75.4914713  78.5034084  21.3522100
  76.0043573  79.0985966  21.8989563  74.6321583  78.9198017  21.2856960
  53.8198376  67.9833984   2.3949537  53.0389929  68.2597637   1.9152266
  53.5235214  67.8878260   3.3001024  61.1905146  45.1643562  36.9467378
  61.3665485  44.2449522  37.1465969  60.5812883  45.1366901  36.2089634
  67.2294998  28.2341456  10.7201838  66.5411663  28.5612679  10.1410294
  67.4509811  28.9819217  11.2751675  77.6370096  40.3779888  27.5596261
  77.7985811  39.4759965  27.2829819  76.7369556  40.3710365  27.8853393
  81.0753536  37.2869968   1.6412097  81.7566586  36.6433406   1.4468756
  80.2578926  36.8499947   1.4024407  46.2715101  31.3567805  55.0096369
  46.2416315  31.2846303  55.9636497  45.4741669  30.9192395  54.7112608
  15.8605766   5.1818860   6.8324631  16.0531771   4.4580454   7.4284428
  16.5276718   5.1137155   6.1494052  17.8466137  42.3062361   0.5783159
  18.0255707  42.2963215  -0.3619545  17.0364769  42.8090308   0.6626493
  52.1098995  24.6553087  47.0662308  51.7216969  24.6177006  47.9403687
  51.7077684  23.9262462  46.5940094  73.0423689  40.0082493   7.0347619
  73.0948639  39.1578627   6.5985078  73.9129114  40.1386929   7.4107623
  29.2414856  20.0619364  13.6203527  29.8037767  20.5319595  13.0046093
  29.8346901  19.7728741  14.3137383  80.1472282  55.6154823   3.5812125
  80.0650692  55.0081253   4.3164656  80.6071091  56.3717937   3.9455417
  81.1719990  54.7373915   6.1185008  81.3978291  55.2434397   6.8989801
  81.8791771  54.0977573   6.0348600   8.6357635  67.7223206  66.5259790
   9.2811483  68.0725956  67.1399975   9.1570383  67.3816824  65.7990217
  40.3590918  19.2567861  60.0825930  41.0023308  19.1852784  60.7878351
  39.8767352  18.4305942  60.1136923  51.3959789  44.2390013  57.3275423
  51.3563776  44.8968506  56.6333532  51.8491936  44.6776009  58.0475807
  12.8409898  41.8656349  66.6113567  12.7181530  42.8105640  66.5205431
  13.3309352  41.6115379  65.8292961  56.9953251  40.5727482   4.1172653
  56.2107754  40.5634451   4.6655607  56.6921854  40.2728939   3.2602805
  65.5745649  46.1004734  11.7473257  65.5627728  47.0318842  11.9676948
  65.5535746  46.0804319  10.7905662  78.2263613  17.5403273  54.4718838
  77.2763062  17.4260604  54.4958115  78.3517122  18.4435260  54.1807652
  36.3074851   1.5089497  53.1470776  35.5419755   1.9964525  52.8428268
  36.8425536   1.3892083  52.3624802  60.5503130  77.9743099  20.4501152
  60.2103376  77.1280432  20.1594639  59.8127031  78.3873415  20.8990812
  33.6575007   9.2570722  14.7850907  32.7949309   9.6717250  14.7687328
  33.7929392   8.9505446  13.8884699  45.9559011  72.0132637  10.9260666
  45.0306463  71.7687368  10.9446788  46.0446024  72.5555515  10.1423037
  60.9476089  50.3444004  56.4406300  61.7383003  50.6799269  56.8630743
  60.5526972  49.7680092  57.0948792  50.0254345  17.9677641  53.2412815
  50.9325075  18.1698167  53.4706783  49.5918369  17.8245258  54.0825319
  69.6537828   3.3589256  15.6227028  69.9601650   4.1116127  15.1169121
  68.9122820   3.0194083  15.1215649   7.6298475  37.8969073   3.7015095
   8.1416106  38.4772968   4.2649618   7.6570153  37.0484900   4.1438690
  63.2368803  30.3758955  55.0578070  62.5251675  30.2171826  54.4377184
  63.7816048  29.5906997  55.0032949  80.6059551  75.6831646  17.0438325
  80.7974911  74.7488737  16.9623327  80.2162743  75.7728004  17.9135144
  69.6434116  53.5411882   9.1605133  70.1343727  53.2120275   8.4076262
  68.7384748  53.2807493   8.9887720  77.9250097  60.9197664  56.2621069
  77.2847128  61.6025066  56.0618067  78.6702061  61.1162949  55.6944036
   8.7816334  13.1567383  62.7855301   8.0290478  12.5668752  62.7418470
   9.5250684  12.5831270  62.9712868  26.3704824  76.1045408  65.6889772
  26.3174510  77.0427227  65.5066681  25.7976317  75.7010698  65.0368404
  74.8346329  58.8868189   4.5553115  75.2368498  59.4142818   5.2454138
  74.8976326  59.4310570   3.7704092  14.7460055  74.1080666  19.4604385
  15.0348091  74.0692186  20.3722024  13.7909782  74.0665293  19.5097280
  68.5152340  44.1334677   2.2658256  69.1369915  43.4070587   2.3102741
  68.6337328  44.6010923   3.0925757  65.4172421  55.2344418  10.3567839
  66.1091661  55.0736904   9.7151977  65.3565407  54.4182539  10.8531547
  45.5576038  55.4150677   5.4238576  45.7740402  56.3457727   5.3675157
  44.9069452  55.3624296   6.1239314  64.8844767  13.6683857  54.7635794
  65.4350710  12.9135191  54.5555973  63.9900112  13.3293915  54.7283316
  78.0255318  28.7069201  63.9037704  78.5194302  27.9100084  63.7108183
  77.1454096  28.5294914  63.5719013   6.6546893  53.5663080  18.3780754
   7.5259531  53.8773012  18.6238658   6.1281806  54.3623018  18.3045042
  30.0053811  24.3254471  41.1899471  30.7536054  23.8148737  41.4993143
  30.1743603  25.2132368  41.5053892  19.6817565  14.8732102  64.3487692
  19.3758786  14.3597662  65.0964642  18.9132571  14.9551666  63.7840366
  28.0272079  30.7764506  61.5387440  27.4926448  31.3194084  60.9593725
  28.8645887  30.6920886  61.0827780  14.5678699  20.9585881  15.6909251
  13.7484109  20.5428624  15.9590507  14.7349191  21.6162276  16.3660824
  18.5469532  64.2845583  56.1140776  18.3319712  65.0588751  55.5940342
  18.6151397  64.6101999  57.0115948  57.6060581   5.4883188  56.6427612
  57.2494602   5.4583246  55.7549715  58.4833574   5.1142484  56.5612507
   2.4979989  63.1927156  29.9673486   3.1048506  63.6948586  29.4234562
   2.1666133  62.5077009  29.3866873  44.2634678  11.0751331  62.7084732
  43.8894367  10.3902686  63.2628107  45.1058722  11.2787342  63.1148386
  28.8317132  38.6563396   3.9849734  28.9922237  38.9087439   4.8942366
  28.5289502  39.4604301   3.5630700  75.3998137  15.7197297  68.1973505
  74.4942427  15.7373762  68.5069704  75.3743362  16.1761725  67.3563719
  29.1473794  61.4219427  46.7102337  28.5649228  61.9079685  47.2939777
  29.9588370  61.9296217  46.7044687  34.0730071  20.4708695  52.8826809
  34.5329189  20.6579447  52.0643234  33.2873726  19.9953938  52.6126146
   6.1348170  66.8983412   2.4367674   6.1368054  66.4664316   3.2909796
   6.9108307  66.5557098   1.9933285  66.0677481  54.0668058  63.2705545
  66.2536860  53.1287241  63.2297850  65.4244232  54.1531086  63.9740562
  79.8435688  35.1367688   9.3258685  79.1954279  35.8405662   9.2973721
  80.4478359  35.3956676  10.0216186  61.9239330  20.9289718  14.3176067
  61.7920876  21.4705873  15.0957453  62.7773333  21.1997867  13.9790809
  35.7215190  73.1332397  53.1320000  36.5023518  73.6679363  52.9883623
  35.2371716  73.5955286  53.8160467  69.4877052  50.1866913   4.0851405
  68.9492989  49.9215746   4.8308364  69.0744638  50.9882689   3.7643108
  22.4304605  14.5036042  36.8487573  22.0652032  14.6552396  37.7204347
  23.3486867  14.2854536  37.0084572  50.0135899  48.5192013  31.1847138
  49.2209005  48.9197683  30.8277512  49.7046423  47.9921150  31.9215703
  37.5936842  31.8666959  12.3222983  38.1658816  31.4601946  12.9731274
  38.1171679  31.8848395  11.5211320  22.9461598  10.5427086  64.3577147
  22.7080822   9.6763718  64.6878815  22.8999805  11.1125982  65.1253891
  26.7266703  25.4112005  55.4465580  25.9503913  25.5939484  55.9759235
  26.4048314  25.4006886  54.5451450  28.0936646  15.0795960  43.6012888
  28.4281802  14.3577313  44.1334915  28.4409118  14.9121630  42.7251482
  38.4154153  35.1942873  64.2146826  37.8895235  34.4065166  64.3528366
  39.1815281  35.0722146  64.7753954  25.2787280  21.5457535  51.1014318
  24.5644474  21.9292140  50.5925179  24.9086714  20.7414436  51.4652681
  66.6148949  36.7734265  61.6844368  67.5400686  36.9714427  61.5392637
  66.4503813  35.9945703  61.1528873  37.4514413  59.0362978  42.8462267
  37.4982071  59.9909830  42.8974152  36.6058898  58.8596869  42.4338198
  18.2244337  78.4342289  66.7546940  17.5366282  78.9697695  66.3592768
  18.2960737  78.7604666  67.6517248  38.1482315  69.4807673  10.8150268
  38.3430314  68.6887741  11.3160574  37.3015690  69.7746658  11.1512053
  73.1901217  29.0059638  33.2592511  73.9000225  29.2475963  33.8541365
  73.4344721  28.1394219  32.9342461   0.3668034  59.8068285  15.5202067
   0.1128929  59.1189861  16.1355400   0.7823887  59.3388414  14.7959781
  76.7057991  12.5146055  53.9054775  76.1624765  12.5618720  54.6921110
  77.3088741  13.2535362  53.9861774  49.5667505  72.2687244  54.1162300
  49.0433741  73.0178356  54.4010830  49.3158293  72.1349144  53.2022476
  10.1745248  13.2663083   4.3257239   9.3677485  12.9085398   4.6963239
  10.7159579  12.4981141   4.1441783  63.5315704  52.8816652   1.9803347
  63.1065416  52.8365946   2.8368109  63.4091616  52.0092392   1.6060001
  67.2382736  25.9856796  40.5990839  68.1903028  25.8907509  40.6285191
  66.9094372  25.2726603  41.1465311   8.8472813  21.1302805  60.4746151
   9.0252268  21.8256044  59.8412943   9.5437777  20.4899621  60.3292990
  71.4502478  59.3436098   9.6694207  70.7838106  59.8589420  10.1238739
  71.2916136  59.5125818   8.7407041   5.7634383  19.9102819  66.0779333
   5.1552093  20.6097555  65.8391333   5.8275771  19.3695378  65.2907133
  79.4942093  17.2658539  66.7188501  79.4884872  16.5263689  66.1111021
  79.7859526  18.0083585  66.1898851  14.9372125  70.4385662  55.5881929
  14.8744988  69.9673653  54.7573709  15.2724922  71.3025761  55.3488016
  50.5913877  18.7673020   2.2043170  50.1804638  19.4160807   2.7756840
  51.5198565  18.7989199   2.4349155   2.8032193  78.2828379  42.1313429
   2.9639697  78.2849026  43.0749416   2.1952811  79.0086222  41.9903564
  18.9678121  16.7983615  40.5642700  18.4019780  16.7866218  41.3362312
  19.6121180  17.4814630  40.7499361   8.4880567  54.3967390  26.1647248
   8.9112115  55.1327658  25.7226396   7.7878815  54.7973061  26.6800237
  75.0244999  70.5103064   5.9537786  74.9604416  71.2710714   5.3763998
  74.8808098  70.8632612   6.8318498  71.6369820  11.4215326  65.2622843
  72.0856619  10.6909716  64.8366070  70.7376862  11.1151040  65.3788805
  78.6816359  78.1076479  56.0194445  79.3850613  78.5847902  56.4596272
  78.8964510  78.1691265  55.0886869  16.2968934  76.9794893  45.1395750
  17.2052789  77.2639513  45.2403021  16.2358546  76.6909170  44.2289543
  31.0530591  24.3546057  27.3228097  31.6647077  23.7350845  27.7206945
  30.8529878  24.9764752  28.0224395  12.0953631  33.8345790  61.2869787
  12.1141112  33.9409232  60.3358889  12.5102019  32.9858613  61.4413118
  44.3587399  74.9281883  20.2217007  43.6002636  74.3988371  19.9752474
  44.8630810  75.0152397  19.4128191   2.8225935  24.1441631  54.6175528
   3.2874745  24.7908187  54.0865612   2.5342372  24.6309304  55.3896570
  17.8869486  77.2606277  61.9876528  18.1043911  78.0998182  62.3934984
  18.1477427  77.3625278  61.0723209  36.6795850  20.2105904  14.5453465
  37.3964858  19.5861793  14.6566856  36.2062144  20.1825261  15.3768289
   1.3572775  51.5888739  13.2621741   1.6544646  51.6099787  14.1718256
   1.3713090  50.6611013  13.0270839  52.9031849  70.0523472  15.7337177
  53.8371849  70.2047920  15.5900645  52.8513145  69.1426563  16.0269916
  76.5594721  38.0986834  63.3899879  76.6863298  38.2446265  64.3274546
  75.8832788  37.4228835  63.3421469   4.9180534  73.3078003  23.9557123
   4.7363389  74.2382479  23.8235164   4.7445270  73.1595850  24.8853111
  48.8647699  31.8691874  54.2071533  47.9458094  31.8690252  54.4750071
  49.0998220  30.9426475  54.1571045  51.8062449  46.4216614   1.6030490
  52.6255131  46.7887020   1.2709202  52.0316553  46.0751104   2.4663720
  81.2318039  68.6982250  32.2759533  80.3627491  69.0027094  32.0146751
  81.4036846  67.9477739  31.7071724  45.9385014  14.3061566  52.7420378
  46.6833210  14.1466570  53.3217287  46.2413025  14.0224862  51.8794394
   4.1999191   6.3140160   6.3137209   4.3168911   5.3793377   6.4837974
   3.2543600   6.4513856   6.3709873  31.4625835  27.7471256  59.9650908
  32.2291756  28.1303215  59.5387936  31.0919762  27.1586061  59.3074274
  61.2276030  33.1815267   1.0930090  60.3794909  33.6021185   1.2345896
  61.1259651  32.7097535   0.2663691  81.5772724  58.6883688  21.8437600
  82.5012398  58.5459137  22.0492339  81.5202332  59.6196795  21.6301322
  71.3891459  59.0094662  29.3496108  71.6485691  59.8804569  29.6501184
  71.5615654  59.0197229  28.4081221  24.5494795  21.4949775  33.0687523
  25.1417303  20.7433724  33.0450392  24.8322773  22.0458722  32.3388386
  60.1567507  71.8459225   3.5467920  59.9962044  71.3160181   2.7659869
  59.5504618  72.5821495   3.4654221  61.0622120  54.6948719  26.8998861
  61.2797737  55.5941057  27.1454048  61.8803263  54.3357658  26.5564227
  25.7789373  26.3658905  36.1697030  25.9643793  27.2988343  36.0626578
  24.8341942  26.2924194  36.0344529  70.1032448   7.1344423  40.3304863
  69.7825956   6.8683016  41.1922169  69.5106363   7.8360218  40.0606108
  42.6385832  22.9081750  64.8217249  42.5905752  23.6647844  64.2373705
  41.9125795  23.0314016  65.4332495   2.3146066  61.7018700  49.4860554
   1.6415477  62.0724678  50.0569153   2.2179872  60.7547569  49.5853901
  31.7608047  18.0253649  46.8213320  31.1564398  17.5038803  47.3495626
  31.3066220  18.1467879  45.9875393   6.0016567  28.5545063  52.3293591
   5.6939048  28.0438375  51.5805340   5.5089003  28.2089591  53.0736828
  38.3154106  47.4833155  65.9146214  37.6769352  48.1955910  65.9498739
  39.0019155  47.8057194  65.3306723  71.1619520   9.5826030  58.1303549
  71.0088778   9.5821333  59.0752363  70.6296015   8.8584232  57.8011179
  49.9489546  17.4308002  10.5291390  49.4686270  17.0669949   9.7853893
  50.7582808  17.7714288  10.1480925  42.4309015  35.6030965   3.8248220
  43.1716824  35.0018954   3.9025059  42.5429058  36.2163019   4.5512289
  27.8212881   2.4714543  53.3137560  27.0087767   2.3645678  53.8083601
  28.4416962   2.8319246  53.9473104  66.9543648  70.3193569  52.7568817
  66.9861984  70.7540274  51.9046640  66.0317278  70.3544903  53.0093527
   8.9336973  73.9789391   5.4087824   9.5869249  73.2792807   5.4083282
   8.6580384  74.0498400   4.4948804  29.1159916  23.9036679  50.9837055
  28.7975931  24.7276592  50.6150723  28.5640359  23.2325482  50.5822420
  12.7719438  25.3786850  52.9563904  13.5959470  25.6897879  53.3311749
  12.1749973  26.1222672  53.0398893  72.0634651  46.3091135   3.4066021
  71.6894817  45.4281616   3.3896923  71.3232231  46.8871546   3.2218176
  18.8957906  61.6702366  18.2457614  18.5492456  62.4027395  17.7362776
  18.6223173  61.8530846  19.1446543  25.8406687  73.4736824  53.8692856
  25.0167966  73.9038229  54.0982962  26.2293053  73.2367516  54.7113419
  14.0076494  61.3611269   2.9699084  13.5716295  60.6246519   2.5412828
  14.9371290  61.1332369   2.9508379  56.9510365  31.8585587  66.7532635
  57.5015259  31.3206577  66.1841822  56.2557745  32.1803427  66.1794233
  24.2392278  63.7033129  47.9648447  23.5322666  63.3012819  47.4600601
  24.1625834  64.6395111  47.7807426  44.2213345   1.8765509  38.2592344
  45.0457573   2.1024330  37.8284979  44.3369150   0.9675620  38.5360241
  14.0437400  30.7902980  55.7634354  13.7019396  31.6790152  55.6655312
  14.6664488  30.8516240  56.4878035  37.3773146  20.1232338  51.7476273
  36.8720961  20.1760674  50.9363365  37.7197647  19.2294586  51.7587519
  27.2526741  25.5957150  66.6189528  27.9413867  26.2327361  66.4289236
  27.2604966  25.5117917  67.5724316  60.9979105  62.3495865  31.6940212
  60.1451302  62.2752857  31.2656832  61.4310837  61.5157557  31.5114903
  77.8281450  65.9272623  64.4749594  77.2285223  65.4332352  65.0340843
  78.5994816  66.0745764  65.0222874  16.3804877  58.8589716   1.4315864
  17.2481668  58.9667654   1.8211292  16.2238455  59.6798277   0.9648038
  74.8353243  59.4968939  10.8607686  74.3566561  58.9501572  10.2377188
  75.4612350  59.9815083  10.3226101  18.5103297  25.7135653   3.2267919
  18.4352839  24.7688293   3.3612382  19.2411733  25.8113194   2.6164281
  27.1831393  10.1536369  39.2209315  28.0686760   9.7971570  39.1503572
  27.2604346  11.0522366  38.9003444  59.9874067  65.8363342  36.5582609
  60.8909035  66.0916424  36.3718677  59.7233820  65.3178215  35.7982183
   7.8051251   0.5230875  12.1253753   8.5439718   1.0924202  11.9104397
   7.3892003   0.3419644  11.2825036  80.7077885  32.3820162  58.5052490
  80.3680038  32.6653695  59.3540668  80.1352787  32.8044772  57.8649473
  64.0186787  73.7522793  56.2753868  64.6490192  73.0589962  56.4709806
  64.5207024  74.3997908  55.7804775  41.0809565  27.6306558  43.1142569
  41.0276842  28.5850072  43.1653118  40.2042103  27.3558450  42.8458834
  71.4972115  34.5005655  40.7443905  71.6541958  35.1567960  41.4233208
  70.8172274  33.9350653  41.1105347  44.4855499   7.7749091   2.4490641
  44.5546722   8.1641358   3.3208191  45.3914690   7.6917708   2.1513626
  68.7385035  49.0030766  11.1281824  68.3153868  48.8169622  10.2899921
  69.4322157  48.3471537  11.1971569  26.6222191  63.9956045  28.4858847
  26.2289762  64.8628759  28.5830188  25.9886909  63.5023689  27.9647398
  56.4224577  68.0965567  17.2200263  56.9845009  67.3303032  17.3348975
  55.5538893  67.7992964  17.4910605  46.6772127  27.0020819  67.8205442
  46.7963791  27.6052856  67.0869398  46.1795378  26.2721729  67.4520540
  57.1664906   4.4837579  15.7755613  56.3999557   4.5236856  15.2036691
  56.8092585   4.2869163  16.6415119  55.0811291  14.2958283  45.6242609
  54.5216894  13.6158061  45.2489853  55.1806259  14.0443933  46.5424728
  82.1928501  47.0016146  18.1852758  81.5755844  47.4941730  18.7262058
  82.9900646  47.5313950  18.1887662  62.5941896  39.0259194  38.1198001
  62.5962496  39.5670509  38.9093590  62.8304243  39.6293068  37.4152803
  16.5793014  38.5387135   2.1608834  17.1940291  38.8243890   2.8367025
  17.0386815  38.6981606   1.3363963  49.5288086  13.1715131  10.6346786
  48.9654684  12.4907613  11.0027182  48.9244938  13.8644409  10.3684402
  82.3024845  24.5291638  53.9810610  81.7787075  24.1397452  53.2808924
  82.8531933  25.1744151  53.5376549  12.3519683  54.1591072  44.5234680
  12.0062900  54.6913338  43.8069010  11.5888417  53.9658499  45.0680065
  76.4446592  11.6362047  20.8018875  77.2352934  12.1164012  20.5558324
  76.7602348  10.9245896  21.3588858  23.3556890  36.7456269  68.3786869
  22.6292896  37.3528147  68.5197449  24.1110492  37.3099923  68.2138968
   6.4882183  62.2426558  11.1620772   6.8903124  61.4618778  10.7813668
   7.2050869  62.6827335  11.6188729  66.3451338  71.9715309  23.2950020
  66.4225245  72.9035997  23.4986854  66.7215157  71.8857193  22.4190998
  73.4907293  24.1042781  40.8331108  74.0006638  23.4919357  40.3027916
  73.9658260  24.9325275  40.7658958  70.5205965  60.8133984  44.8769188
  69.8170710  61.3330650  45.2658081  70.0869226  60.2887106  44.2039728
  27.6739359  27.4661565  64.7365952  27.2794485  27.8828788  65.5027246
  26.9964790  26.8735504  64.4108582   0.9382756  41.9045830   3.6520058
   0.3025477  42.4805975   4.0766072   1.5816548  41.7135525   4.3345034
  19.1106260  45.3103065   2.5120825  19.7215998  45.4246759   1.7841655
  18.2709527  45.6177998   2.1705738  66.1902714  54.3631840   1.1212243
  65.9905815  54.9424982   1.8565819  65.9298801  53.4932852   1.4240545
  33.2942390   5.7133311  19.6670234  33.4608603   4.8273334  19.9887037
  32.5965858   5.6061482  19.0204763  27.4885488   3.8949111  34.5613718
  26.9183803   4.4398418  35.1037669  26.9137526   3.5557368  33.8752222
  46.5295887  13.9562201  12.8603816  45.6590986  14.1210973  12.4980342
  46.4779329  13.0678117  13.2129347  39.6934199  78.5227537  34.8017359
  39.7072673  77.8115749  34.1612196  38.8437676  78.9443970  34.6731377
  64.5953798  21.8280768  13.8524795  65.0496292  22.3685884  13.2061565
  64.9570131  22.1062136  14.6939611  60.2028561   6.7405474  34.6924257
  60.4354572   7.0379734  33.8128424  59.2773676   6.5046978  34.6285796
  64.4591999   7.2464001  33.7731695  64.2490959   7.4816173  32.8694224
  63.7168694   7.5698602  34.2836118  36.3906121   0.7088805  58.5910797
  36.6971517   1.5774053  58.8517094  37.0205522   0.1046841  58.9839554
  71.1020422  46.8741941  10.9648943  71.4793873  46.1218929  10.5089498
  71.0597754  46.6021252  11.8816411  47.4680901  30.3970385  46.5705156
  47.5241375  29.6974015  45.9196711  46.5426779  30.4244375  46.8136215
  76.4048147  32.0967650  41.0920620  76.4110327  31.2161803  41.4672470
  76.8019581  31.9915676  40.2275181  81.4273834  66.4527369  25.3183699
  81.1877060  65.5847502  25.6430006  82.3263454  66.5817404  25.6207800
  48.6149549  66.7352438  19.9285448  47.7483463  67.1417093  19.9261177
  48.4491873  65.8165169  19.7171378  38.5379291  73.8091660   7.4892616
  39.0062594  74.6366262   7.3787963  39.1864014  73.1370687   7.2794938
   9.2897171  11.2739313  56.8884945  10.2008283  11.3154757  56.5980053
   9.2705315  10.5495977  57.5139570  23.9606547  16.0655117   6.7753661
  24.3366599  15.8057702   7.6164293  23.0216599  16.1400127   6.9455749
   7.6099628  13.9080441  11.1433971   8.4732729  13.8505983  10.7339740
   7.1045119  13.2044768  10.7362807  78.0619431  41.5856552  56.8553400
  78.3554459  42.4967098  56.8638229  78.5906935  41.1700106  56.1742401
  56.3545990  18.5667264  66.7240667  55.9387732  17.7116859  66.6134930
  56.0355425  18.8805985  67.5701904  37.6282620   3.0826187  59.0668869
  38.2044482   3.6693662  58.5770178  38.0877209   2.9301095  59.8926401
  25.3287053  38.7736917  68.2321739  26.1431098  38.7396002  67.7303600
  25.5258369  39.3510747  68.9697361  35.1262259  15.9665072  15.1387084
  34.2243695  16.0409749  15.4507065  35.5070591  15.2683151  15.6713676
   3.9396811  77.2725630   4.0981191   4.3826738  77.8775311   3.5031378
   4.0424657  76.4141893   3.6871904  74.9177694  61.9348431  19.1212296
  75.7769728  62.3356628  18.9895320  74.4466114  62.1048355  18.3055437
   9.7649868  68.0836312   0.2902061   9.4364126  68.3774106  -0.5594748
  10.6774576  68.3723180   0.3069860   4.4875818  43.0709648   0.8890399
   4.4515082  42.5603199   1.6978499   4.7456625  42.4389553   0.2180768
  61.1875010   2.6258007   9.5778841  61.4850092   3.4912902   9.2974389
  60.2397728   2.6435512   9.4447637  31.5698647  68.7059402  27.7036810
  31.1036944  68.0403137  28.2095027  30.9779787  69.4581556  27.6948094
  40.7299995  22.6945949   7.5187135  40.3272343  23.4599686   7.1085745
  40.0254965  22.0481157   7.5631189  76.9271183  65.7180405   3.1636989
  77.3561668  66.3138962   3.7777865  77.0228577  64.8532104   3.5626221
   9.8541248  18.6179984   2.1553633   9.9300718  17.6810634   2.3359640
  10.6406450  19.0012777   2.5435841  33.3176661  28.8458085  58.4253502
  33.0324984  29.2653322  57.6136208  33.8241148  29.5200229  58.8783169
  21.8315434   2.9051703  33.2041430  21.3275599   3.7176859  33.2494450
  21.7570019   2.5279003  34.0806937   5.2670676  13.9552498   0.6146371
   5.3974527  13.3626854   1.3549742   4.5820355  13.5383916   0.0919592
  58.5970736  21.4437127  41.1412525  58.8737154  20.7794285  41.7724657
  57.6779747  21.6071582  41.3528681   9.4514686   1.8112524  -0.2257338
   9.4933569   1.4202650   0.6469667   8.7449664   2.4543442  -0.1664073
  60.4399967  17.9238641  53.0612421  61.2943602  18.2886171  53.2920027
  60.2266502  18.3273435  52.2198582  11.9238603  18.7994039  13.7305856
  11.0415435  18.6544788  13.3889067  11.8200314  18.7710512  14.6817148
  38.6965013  28.4843349  48.1525183  38.0711436  28.4171700  48.8740778
  39.5447516  28.2917070  48.5520172  74.5774889   0.9800682  63.5182905
  75.5235672   0.8571771  63.4404278  74.2987633   1.2535746  62.6443720
   4.7821811  35.3579807  30.3725576   4.1100854  35.2740240  31.0489249
   4.9601772  34.4582057  30.0987816  26.8035197  17.2453368  49.0558910
  26.7994261  16.3175642  48.8204050  27.0430160  17.6968169  48.2465506
  76.1311483  12.1654642  59.4436121  76.1307621  12.0608711  60.3950834
  75.2987957  12.5965381  59.2497110  59.6533728  16.1925733  62.3894644
  59.7979450  15.2919018  62.0994282  60.5328131  16.5417135  62.5340796
  42.6196194   8.9739197  21.6258836  42.0436907   8.9219409  20.8631039
  42.9446602   9.8742205  21.6196752   2.5857002  60.7490778   0.8482777
   2.3577723  60.0535870   0.2313703   2.5132227  61.5554333   0.3376177
  52.2735596  22.0806503  57.2329283  52.3559380  21.1438322  57.4113035
  53.0808258  22.3085618  56.7718315  25.9327888  33.8493586  67.6901484
  25.5355525  34.4607353  67.0699453  25.2736378  33.1652951  67.8076601
   9.9084967  78.4392405  24.9237394  10.5530655  78.1911135  25.5864573
   9.2699474  77.7262068  24.9318933   3.5184744  10.9184992  30.0353646
   3.6938474  11.4732122  29.2752528   2.5853294  11.0401797  30.2104855
  63.3977842  70.0160027  30.9187603  62.8442574  70.3624725  31.6186166
  63.3608484  70.6820154  30.2322507  29.3918991  58.8264465  62.3471069
  28.6720800  59.4258833  62.5439978  30.1725221  59.3803883  62.3501253
  17.6810372  25.4240251  51.4345598  18.6052108  25.4907274  51.1943817
  17.3274028  26.2983727  51.2712002  80.1621819  49.5190191   0.1727909
  80.5586052  49.0583801   0.9123140  80.0890636  50.4268074   0.4674185
  30.9148145  22.2974944  47.8752375  30.9780478  23.0588627  47.2985649
  29.9954057  22.0357132  47.8263521  29.5426917  61.8335724  50.0967646
  28.8716292  62.5160933  50.0878859  29.6225071  61.5881443  51.0185146
  14.8034012  44.8469400  67.6612854  15.2756667  44.2530584  68.2448101
  14.0920794  45.1953888  68.1987190  17.6697206  19.7724545  67.2947025
  17.9832160  18.9028871  67.5433111  18.2653141  20.0520682  66.5994930
   7.8235918  11.0853934  14.8822594   7.3406434  11.8866897  15.0845373
   8.2681096  10.8608413  15.6997025  73.7330484  46.3336754  56.2908554
  73.5751772  45.3897905  56.3105488  73.0349636  46.7045832  56.8306160
  18.6193860   7.6110029  58.5834646  19.4560599   7.4547774  58.1455088
  18.8171923   8.2686627  59.2502403  25.4845381  11.4062548  27.8468561
  24.6073461  11.7087615  27.6117849  25.3377843  10.5784273  28.3044553
  12.9096615  18.3061659  45.8343077  12.6287556  17.4672997  45.4687548
  12.2430170  18.5179591  46.4877319  83.6580467  38.8602042  18.5928798
  83.2978249  39.0438628  17.7252734  83.7210846  39.7181773  19.0125728
  45.6567430  36.5453386  66.4876890  45.5626297  35.6412435  66.7876625
  45.0324965  37.0400405  67.0185518  81.6053867  38.1764650  49.3515205
  81.4375210  38.7865853  48.6333275  80.9662437  37.4753284  49.2245007
  23.8404536   3.9059898  28.8155198  24.0774632   3.2498732  28.1601048
  23.0399847   4.3058676  28.4755445   2.1710172  66.1251450   5.4999584
   3.0819076  66.0811138   5.7907701   1.6601864  66.1096430   6.3093054
  75.2941179  77.7919817  33.2998204  75.8838797  77.7199697  34.0503049
  74.9274969  78.6736250  33.3670402  70.9226274  25.9358168  58.6552429
  70.4816246  26.6670752  58.2227945  71.0618401  26.2371850  59.5530319
   7.6126361  60.8366966   2.2994198   8.5079849  60.9193850   2.6276675
   7.4031258  61.7044210   1.9538791  47.9408360  48.4483814   9.0774232
  48.0446005  47.6426983   9.5837218  48.2321262  49.1422129   9.6690148
  29.9079037  15.6171525  26.4160681  29.2514825  15.2644444  27.0168495
  30.3678465  16.2826645  26.9277120  58.9384508  36.9824171  53.4556484
  59.7745657  36.6043401  53.7280416  59.0974855  37.3001456  52.5668383
  13.8628280  68.4302330  25.7497001  13.9518321  68.4147215  26.7026258
  14.6835685  68.0586195  25.4264045  45.6355190  72.7528811   0.5576395
  45.5162096  72.9499340   1.4867076  44.8430300  72.2765064   0.3101404
  57.3248005   0.5996620  19.1762280  58.2184792   0.6920084  18.8460112
  57.4286175   0.1995248  20.0395608  55.1410627  15.9281886  65.6500959
  55.0675249  14.9850130  65.7958460  55.9736013  16.0352552  65.1900434
   9.2009526  17.9560792  18.4332776  10.0244665  17.6777267  18.8339984
   9.1289061  18.8846397  18.6542213  75.4474735  69.2550468   9.9301219
  74.6661234  68.7393570  10.1295781  76.1581516  68.7959909  10.3778207
   8.5261685  19.5431781   7.0592022   7.7267683  19.9381697   7.4073011
   8.2170165  18.8930809   6.4283061  71.6732788  62.9401541  36.1866117
  72.4464321  62.5648832  35.7651448  70.9757566  62.8418922  35.5385065
  58.1234169  23.2073021  64.5147181  57.9484034  22.2663355  64.5010948
  58.8434029  23.3260012  63.8952351  37.4574709   1.6303314  15.8064461
  36.6072893   1.3149850  16.1130095  38.0658460   1.3996637  16.5085161
  58.6719847  53.3902550  52.1233273  58.3309937  52.5060415  51.9886923
  58.7047958  53.4920502  53.0745316  25.2481747  14.9144602  27.7794695
  24.7382259  14.8575640  28.5875201  26.1224699  15.1784468  28.0660915
   8.5925335  45.7901907  40.5272722   7.8479499  46.0513544  39.9854016
   9.3116331  45.6740522  39.9062705  59.0166092  31.0508180  48.4709406
  59.8125219  31.1825800  47.9557753  58.3034515  31.1575389  47.8414631
   2.7759653  24.0991163  40.4560852   3.5497048  24.4469094  40.8994770
   2.6762477  24.6508408  39.6802688  47.3513985  68.9628077  36.2749290
  46.5866613  68.8526154  36.8399644  48.0183458  69.3437624  36.8461466
  17.4689698  55.3775644  26.4690137  16.5455866  55.1277876  26.5037727
  17.4715662  56.2235022  26.0211158  75.6417751  38.5914993  11.2377512
  74.9736357  39.2143226  11.5239537  76.4310122  38.8518119  11.7126977
  21.5602779  61.1175394  18.2540905  21.8465900  61.9456625  18.6394048
  20.6163812  61.2225866  18.1346869  68.9192009  69.8020411  24.4222713
  69.6480370  69.8883390  23.8077927  68.8660860  70.6555796  24.8522449
  72.7756643   1.2343931  48.8918829  73.2038450   1.8773249  48.3266115
  72.3914766   1.7543137  49.5977926  17.3600698  27.4898386  28.3446813
  16.5971613  28.0124879  28.0976105  17.5159085  27.7125335  29.2624784
  60.9228659  12.6740289  67.5626040  61.2750959  12.0919967  68.2359552
  60.7219744  13.4855855  68.0287075  26.8545246  19.8251176  40.5445957
  26.7216897  19.1904116  39.8405147  27.6737785  20.2655554  40.3186131
  67.7867222   4.7074267  62.8361034  68.4749746   4.7838327  63.4969425
  67.0896769   4.2170265  63.2718420  57.5299644  76.4656878  17.9813683
  58.4309959  76.4207697  18.3013082  57.5727654  76.1089230  17.0941710
  72.2800398  63.8824797   6.6772246  72.4106836  64.1840029   7.5762498
  73.0562210  64.1872168   6.2072158  64.4676781  12.0455277  61.3626003
  64.3170738  12.8087032  61.9203758  64.8658133  11.3982856  61.9446611
   3.0361742  70.8402920  21.0980988   3.8962471  71.1913919  21.3288260
   2.4379785  71.5791178  21.2100458   1.9563113  62.6974964  42.0905781
   2.3759516  63.5426760  41.9299412   2.1081159  62.1983433  41.2880611
  44.3413925  65.4180908  34.9695778  43.9309454  65.6612110  34.1397238
  44.3698406  66.2332106  35.4705787  63.1096506  57.1638107  13.9522982
  62.1528149  57.1513796  13.9289200  63.3485508  57.9938412  13.5397291
  12.5994408   1.3787556   3.2218751  12.0738959   0.5857580   3.3276561
  13.3515346   1.2464107   3.7989986  82.3560715  63.4351540  19.5636928
  82.4108505  64.1055393  20.2447319  81.9608498  62.6810551  20.0011563
  73.2392836   5.4352313  54.2435646  73.5021877   4.5314378  54.0695810
  72.5374794   5.3602767  54.8901606  28.8586116  70.4800224   8.5554570
  28.1184411  71.0494280   8.7655985  28.7755990  70.3161812   7.6160443
  62.4468946  15.9333360  54.1453552  62.0070601  15.0849605  54.0902615
  61.7423391  16.5575659  54.3190479  31.9747353  25.7887411  24.2629099
  32.5498152  25.1070952  23.9152431  32.4232531  26.1030817  25.0479269
  60.0021744   8.4429163  49.8750639  59.8482847   9.3865770  49.8297453
  60.1004267   8.1721544  48.9622307   6.7643231  52.7973986  32.4970078
   5.9469259  52.5182486  32.0844936   7.3043936  53.1099224  31.7711377
  70.2607107  65.8658457   4.9868414  71.0764456  65.8678102   5.4876465
  69.9032497  66.7455101   5.1078486  66.0452747  40.6445694  37.0696807
  66.1472368  39.7821116  37.4721742  66.8759823  40.7986403  36.6197753
  52.5428820   0.8898073  54.4240236  53.4469318   0.8499987  54.7360182
  52.5444603   1.5927397  53.7743187   5.7231337  64.5617485  45.3084898
   5.9386426  64.1632557  46.1516905   5.0350380  64.0023899  44.9481106
  56.5101814   9.5266056  43.8059759  57.1525860  10.2015841  43.5869932
  56.0863590   9.3200547  42.9729414  17.2987974  50.4866123  12.9398131
  16.9084001  49.6793652  13.2747364  17.4021828  51.0413933  13.7129641
  78.6428499  67.6175070  16.7994320  78.6091948  66.9917631  17.5229979
  79.5128345  68.0114841  16.8637633  66.6208744  12.2678173  59.1512585
  66.3413525  12.2820354  60.0666285  65.9891462  12.8271031  58.6992073
  38.3678365   9.8467952  21.9678330  37.8008652  10.5126286  21.5786767
  37.7743721   9.1322452  22.1990204  17.2622788   7.5601387  44.9711370
  16.4549339   7.3363346  45.4341030  17.9150212   6.9537640  45.3210926
  25.2272964  18.5861230  58.5029602  26.0337758  19.1010153  58.5296011
  24.7858620  18.8736343  57.7037668  54.3946505  19.8777974  65.2210140
  54.7093439  20.7813931  65.1942778  55.1025152  19.3900061  65.6419897
  52.3827028  26.0221243  57.2197151  51.8278885  25.4651213  57.7657509
  53.0436277  26.3650608  57.8212214  79.1942310  60.8322334  32.5709772
  78.9198399  61.6029930  33.0678368  80.0934887  61.0256577  32.3061156
  50.8281136   3.5421193   3.9621875  51.3074303   4.3495190   4.1481805
  51.2169790   3.2140976   3.1513748  27.9166651  36.7703319  52.2723866
  27.0386243  36.9347095  51.9285059  28.4722400  36.7164969  51.4947796
  23.0374050   0.9061775   6.7106390  22.9827952   0.9721105   7.6640022
  22.2134399   1.2790760   6.3971758  57.3639536  32.5471330  59.8674583
  57.1973562  31.6059422  59.9188089  56.6858864  32.8786254  59.2787600
  35.8474874  20.3946805  65.1346254  35.3288579  21.0519099  64.6706200
  36.6612339  20.3346729  64.6341801  16.7885077  77.1797037  30.5010033
  17.3393369  77.9207611  30.2487159  16.4779520  77.4001408  31.3791800
  57.7802944  53.8382196  13.0728018  57.2523355  53.4688473  13.7806535
  57.8902292  54.7587061  13.3112478  54.2868996  22.4347901  43.6484909
  55.0247097  22.3580790  44.2534590  53.9160442  21.5531921  43.6100245
  62.4430275  65.2111387  42.0417786  62.3280239  64.2859697  42.2587252
  62.7387047  65.6136656  42.8583479  28.4164166  35.3445077  54.5365620
  29.3011665  35.2064323  54.1983509  27.9156208  35.6493235  53.7799120
  31.5952182  16.7808306  18.1721282  31.1126280  15.9789407  18.3729017
  31.8970418  16.6596866  17.2718728  47.8542137  74.1722965  55.4619789
  47.7632141  74.7638083  54.7149420  48.0776882  74.7453451  56.1953974
  62.4645853  30.2975869  66.4489508  63.1224298  29.9167585  65.8671951
  62.5690460  31.2430644  66.3422346  29.9596429  30.8416343  58.0723381
  30.3933311  30.1159668  57.6233912  30.1030755  30.6677508  59.0026188
  80.6889534  46.8349075  48.6225557  81.2149048  47.6341724  48.6505222
  80.8365822  46.4816141  47.7452755  73.9358377  62.8721571   2.4884334
  74.4128418  63.1771088   1.7166139  73.0390453  62.7424002   2.1799648
  15.8454645  75.7860518  17.4689507  15.4520881  75.1824093  18.0991149
  16.6188383  76.1291790  17.9165983  55.0842047  57.2144222  66.2159157
  54.4878817  57.3163319  66.9577026  55.1512766  58.0922318  65.8401728
  64.4092083   2.2383969  59.9479151  64.6705437   1.3177943  59.9272203
  63.6375523   2.2556555  60.5140209  37.6064849   1.8967412  30.7973504
  37.9413223   2.3407063  31.5764594  38.3645487   1.8268935  30.2170992
  42.9329300  17.1842217  49.9325228  43.3085060  18.0490124  50.0977755
  43.1191540  17.0147073  49.0090418  45.9401131  18.1379879  54.2567921
  45.1664257  17.7259243  54.6412992  45.6360483  18.4812403  53.4165812
  48.1920481   8.0500954  45.6504154  47.8644037   7.1953464  45.3706264
  48.5750389   7.8892237  46.5127802  40.3364468   9.8895693  23.8349891
  40.2378750   9.0490961  24.2823362  39.6485925   9.8887241  23.1693411
  67.7530432  19.0360796  58.7736797  67.2355986  18.2352281  58.8580465
  68.6513948  18.7612355  58.9571476  70.8063269  75.0261974   1.6932510
  70.7431889  75.9667873   1.8591776  70.9935236  74.6437883   2.5505459
  78.1833076  69.0045595  -0.2419337  77.5280666  68.4865379   0.2255527
  78.9496040  68.9954233   0.3315964  10.7428062  18.7690091   8.5749948
  10.7386255  17.8159046   8.4866434   9.9911940  19.0606785   8.0590111
  51.7310095   2.3605400  27.1785641  51.9279099   2.8921038  27.9498625
  52.2588921   2.7473170  26.4800072  71.3326740  38.7254786  52.3184061
  70.8280659  39.3588305  52.8287649  72.0484686  38.4662390  52.8986311
  17.9676759  12.9924059  27.1147871  18.5662413  12.8340483  27.8447700
  17.6424527  13.8808525  27.2601318  82.2062492  69.8434448  22.2859073
  81.4171314  69.3367767  22.4777794  82.4284554  70.2643538  23.1163859
  39.1035366  18.6203742  17.2205675  38.6506248  18.1416714  17.9147911
  38.6899424  19.4835961  17.2157359  82.0856762  73.0943346  44.0354824
  81.8652344  72.8783751  43.1293917  81.3882446  72.6929426  44.5538473
  30.7900453  15.8223116  56.2927103  30.4457140  16.6525745  56.6218519
  30.1752806  15.5633593  55.6062412  13.1911349  64.2635012  65.7904243
  13.6268544  64.9004793  66.3566780  13.9063704  63.7603188  65.4012203
  52.5147009  59.0696907  17.5157166  52.7351713  58.7430763  18.3880389
  53.3333206  59.0091944  17.0233488  26.2946463  20.5016613  67.4497890
  26.2060547  20.2831697  68.3774996  25.4082537  20.7334113  67.1725988
  40.1541805  33.6645365  65.8543062  40.3497171  34.1709685  66.6426754
  40.2393723  32.7515268  66.1288738  16.6526127  48.9109945  28.1469512
  17.5707293  48.6810398  28.2898259  16.5873957  49.8231888  28.4295893
   4.8995110  73.1073093   7.6180410   4.3247426  73.3037376   6.8782514
   5.0960553  73.9617586   8.0021131  26.9843793  10.9885585  25.5765224
  27.9172873  11.0065627  25.7900405  26.5434885  11.0559678  26.4234614
  28.7942147  15.1387560  54.4270754  28.7601137  14.1967332  54.5933914
  28.1187034  15.2898574  53.7659502  11.8619251  39.9203634   3.6104909
  11.5083861  39.0438175   3.4591323  11.3474500  40.2632380   4.3412334
  68.1630516  21.3514304  53.9397907  67.3312044  21.3969398  53.4684181
  68.1093931  20.5385542  54.4423676  13.2076085  66.2777090  28.9714479
  13.1415677  66.9614220  29.6380830  13.9647782  66.5305376  28.4432411
  49.4001245  62.0926428  67.7257681  49.8127651  62.7945757  68.2290125
  48.6467934  61.8297768  68.2545614  48.0505466  21.2542462  58.4395409
  48.1421566  21.0865402  57.5016117  48.0682755  20.3855014  58.8410378
  82.3256302  38.9032841  38.4233570  81.4316177  38.6011147  38.5835814
  82.4770832  38.7220597  37.4957514  55.0422144  25.3937697  65.0806522
  55.9920883  25.2939844  65.1440191  54.9180841  26.1269283  64.4779062
  82.8674507  16.8496931  46.0817766  82.3910713  17.5348222  45.6128454
  83.0999184  17.2501087  46.9195414  78.7407112  44.4032097  56.9033909
  79.1930056  45.0978184  56.4246559  79.3863106  44.0890932  57.5364542
  36.1335778  12.7502108  56.8604279  36.5785193  13.5962009  56.8098402
  35.3475499  12.9235971  57.3784351  76.9599819  12.5705230  49.6362400
  76.3910103  13.3279908  49.4993448  77.6862335  12.7032745  49.0270042
   3.5483795  41.6892815  31.0136414   3.2519716  40.9877110  31.5934467
   4.0083954  41.2371874  30.3063703   4.4170377  72.6009417   2.8455785
   5.2547878  72.3472500   3.2329389   3.9351815  71.7785978   2.7572718
  43.9250135  24.3243790  55.8305454  43.3687496  24.4324565  55.0591040
  44.4688654  23.5629368  55.6288958  65.8490515  68.5614872  46.7154026
  66.5215540  69.1828251  46.9945335  66.3252354  67.7450037  46.5642881
  59.7731590  57.7729130  18.3809543  59.6780586  56.8280983  18.2605100
  60.6127644  57.9831648  17.9721820   6.3409674  28.8053083  45.5555582
   5.4765064  29.0042996  45.1959181   6.4598191  27.8700781  45.3898811
  62.8338814  20.9714437  59.5781803  62.4289560  20.9962940  58.7111998
  63.7478876  20.7428312  59.4091702  78.6372328  31.4284205  18.5800743
  77.7580690  31.3646936  18.2069182  78.6298084  32.2496915  19.0716958
  23.8275313  23.0742002  67.3101282  24.5743847  23.3246589  66.7663336
  23.5077262  22.2615719  66.9182205  50.4991102  69.6180439  23.2416821
  50.3469515  68.9873934  22.5378633  50.1129150  69.2099142  24.0166116
   6.1075246  77.7882767  10.3698635   6.4712125  77.5657940  11.2268734
   6.0418320  76.9499302   9.9125963  38.1194544  22.8178430  10.9403825
  37.5194287  22.4238110  11.5735817  38.5859013  22.0746565  10.5578494
  71.9528198  71.4322710  56.6989326  71.6085386  70.7840443  56.0845137
  72.8400278  71.6104603  56.3869381  48.3964157  56.7241764  44.7012329
  48.4178972  57.3500490  45.4251480  49.1160107  56.9934654  44.1303635
  49.1950893   5.4374057  27.4646997  50.0507498   5.8506668  27.5799775
  48.6038399   6.1628711  27.2638059  23.2265997  28.4805179   9.5048648
  22.3484468  28.1855893   9.7459042  23.4922552  27.8904343   8.7995559
  22.1218634  31.1720276   7.6169956  22.8957510  30.6119800   7.5563484
  21.5015078  30.7914972   6.9952345  76.0962772  42.5469303  41.5043640
  75.7895327  42.7220583  42.3940086  76.9435501  42.1177197  41.6232920
  34.5145226   4.0966976   1.6501439  34.6735287   4.3699181   0.7466506
  34.5237851   4.9117383   2.1519953  76.6392326  24.3961692  65.5519199
  76.1566448  25.1488519  65.2101469  76.4241171  23.6815071  64.9525738
  28.6120224   9.0283233   1.7146483  28.2049179   9.6805310   2.2848436
  28.6280918   8.2279980   2.2394843  12.9035246  30.0834346  28.4210110
  12.4065149  30.5435228  29.0974236  12.4039888  30.2271867  27.6172495
  47.9941511  19.4879699  46.2930965  47.8633308  19.6574116  45.3601408
  47.3156404  20.0045800  46.7278004  64.8516750  22.1236610  63.9713097
  65.4437971  21.5454721  64.4522715  64.8722744  21.7939568  63.0729198
   5.1353884  71.5922976  18.0428922   4.7108281  72.2832012  18.5514510
   4.4586915  71.2908125  17.4367404   8.0467445  77.7469778   0.9513265
   7.2302794  77.8519249   1.4397964   7.8537208  77.0675278   0.3053252
  69.9486017  32.4538374  58.8890314  69.1982985  32.3346305  58.3067369
  69.8438549  31.7758155  59.5565271  62.7940512  60.6111479  64.4492245
  62.4162912  61.4585257  64.2136765  63.4024048  60.4138327  63.7370443
  24.2127895  19.7721076   8.5428542  24.6485782  20.4731035   8.0581653
  24.7952914  19.0183234   8.4494114  18.7317479  10.9421027  16.5267980
  17.9281759  11.0051286  17.0430648  18.9964008  11.8507946  16.3837242
  17.8611970  64.8004770  35.9658718  18.7772679  64.8122454  36.2431931
  17.3985744  64.3712282  36.6855621  19.8946536  69.4008064  63.5247326
  20.4050803  68.8327217  62.9476881  20.5349016  70.0154114  63.8833046
  54.8822784   2.0360607   4.3862855  54.3482304   1.7075326   3.6630332
  55.0953913   2.9354280   4.1373822  30.1581120   7.7150416  17.0035338
  29.5474291   7.2476220  16.4336073  29.7539330   8.5726225  17.1355438
  32.1584296  18.2203567   7.8648317  32.3348093  19.0061939   8.3821154
  32.9823184  18.0422640   7.4112618  17.1095800  71.8280888   8.0991310
  17.8079224  71.9477415   8.7427396  17.0296597  70.8787727   8.0061269
  20.4864097  63.0585957  15.2828860  20.8819842  63.1213522  16.1522603
  19.5648158  63.2761240  15.4228115  65.3069162  22.4740267  10.2780056
  64.3530560  22.4130797  10.3296137  65.5992889  21.5689158  10.1706600
  41.8842411  72.9560900  17.3244822  41.9550323  73.5164118  16.5516567
  41.0260677  72.5403690  17.2411180  29.4140625  52.7991581  11.5122235
  29.6114540  53.6145926  11.9730210  28.7891912  52.3483419  12.0801413
  72.8183699  50.9547567   0.6492854  71.9111490  51.2565565   0.6034563
  73.1736040  51.3813686   1.4290547  61.1568117  44.7586203  57.7481699
  61.1161995  45.3050947  58.5329914  62.0536709  44.8623943  57.4302006
  38.0118322  32.3034334  36.2361503  38.0739713  31.6973591  36.9744205
  38.1185460  31.7501235  35.4623985  74.9123907  30.5513096  49.7158527
  75.8114004  30.3713441  49.9908543  74.8516798  30.1781678  48.8364697
  79.7113657   9.1994965  19.2657483  79.5497274  10.1124799  19.5035827
  80.2333260   8.8523537  19.9891305  80.8987427  31.2882638  47.9136229
  81.2350750  31.1347771  47.0306969  81.5504265  30.8901572  48.4907293
  46.7500210   6.4717197  38.2656050  47.6067781   6.0573757  38.3681726
  46.9483328   7.3912686  38.0885911  17.2970235  76.3615370  26.4229608
  17.9719126  76.0894728  25.8010769  17.0951235  75.5684662  26.9194579
  14.8347843   3.7754768  10.9499383  14.3728352   4.3389189  11.5707183
  14.1496348   3.4502628  10.3659546  21.0884190  20.2179837  26.7871952
  20.5520868  20.8851385  27.2155476  20.5570984  19.9217033  26.0481763
  62.5228119   2.6182857  22.0543504  63.2928610   2.6398540  21.4862037
  62.5295782   3.4657979  22.4992204  23.3478785   1.0844517  27.5442863
  23.4474611   0.5016829  28.2970786  24.2255950   1.4364351  27.3961186
  65.5069685  22.1460271  68.6944771  64.8287582  22.6436019  68.2376575
  65.8099031  21.5064549  68.0499554  20.3171206  38.6732292   6.8083000
  19.7365987  38.4690428   7.5414670  20.3226447  39.6294904   6.7662901
  58.0683470  66.8522692  42.4350786  57.3701334  66.2768698  42.7475739
  58.6100054  67.0130491  43.2077265  25.9932733  75.5910349  47.0110559
  25.6404781  75.1185703  46.2570381  26.1729312  74.9091291  47.6583290
  31.6579140   0.5295244   8.7782949  32.0210267   0.0373522   8.0419886
  31.7446737  -0.0606140   9.5269179  16.5952051  53.1704569  38.0197477
  16.9574356  54.0442228  38.1665373  16.8533862  52.9514551  37.1244216
  21.3923407   9.2880189   6.2155300  21.2763405   9.0006131   7.1211642
  21.9871807   8.6425513   5.8337313   2.7576438  25.4352832   7.0214868
   2.5942567  25.2872586   7.9529506   3.0295587  24.5805526   6.6872233
  61.1626387  47.2948456  53.9328194  61.9439173  46.8819237  54.3006897
  61.5018225  47.9949427  53.3750963  42.4017668  34.6164966  56.5259361
  42.1254444  35.4000401  56.0506105  41.6175127  34.3320370  56.9952583
  50.0410891  35.3268313  55.6336594  50.2500057  34.9625921  54.7734737
  49.1306639  35.6125760  55.5580664  44.9661207   8.7711966   9.7773921
  44.2234135   8.8709849   9.1818547  44.5943260   8.3583432  10.5568492
  34.9702430  54.2674541  21.5787196  35.5723333  54.4951773  22.2871423
  34.5150232  53.4863186  21.8930864  48.4181690  22.4608207  48.0134964
  48.8100767  23.2345104  48.4185171  48.7587070  21.7253804  48.5228062
  45.9641695  28.6224318  53.3071280  46.8833017  28.8840628  53.2525444
  45.7992840  28.5209918  54.2445469  72.9860640  37.7294588  62.5258636
  72.8394938  37.9991508  61.6192150  72.1073723  37.6495123  62.8970003
  81.2956429  34.9982691  52.8979111  81.8267250  35.6002998  53.4192038
  80.4059124  35.3450251  52.9640818  58.0708599  56.6475201   4.2700729
  57.6433754  56.0181427   4.8509130  58.7427378  56.1376905   3.8174227
  60.7272530  26.0683632  15.9977424  60.1673889  26.1647081  15.2273512
  61.6159964  26.1938500  15.6651509  47.6395321  18.7400877  62.1933413
  47.0031071  18.8341010  62.9021168  47.1073246  18.6792040  61.4000702
   1.5980595  35.9933162  57.0148611   2.3437904  35.8557343  57.5989771
   1.8079674  36.8000603  56.5443993  65.0782299  30.3777361  59.1679955
  65.5938673  30.3186774  58.3637190  65.1045275  29.4939971  59.5347977
  75.8616352  61.5024233   9.4051450  74.9837065  61.8516445   9.5584857
  76.1649990  61.9543171   8.6177492  14.5805132  28.2553577   6.9101948
  14.9388826  28.4816027   7.7684593  14.7209740  27.3116565   6.8331891
  65.3556633  50.8577728  47.1008301  65.4940891  50.2494669  46.3748550
  65.0305796  51.6564941  46.6853809  43.2916927  49.2681122  24.0481639
  43.7395334  49.0757847  24.8719859  42.3688936  49.3469858  24.2899346
  83.6047554   8.4971607  31.8094945  83.3719730   7.5806367  31.6610718
  83.5316753   8.6124378  32.7569127  59.7875261  24.2423058  39.9384618
  59.2182589  23.7714362  39.3298149  59.6510983  23.8066459  40.7797813
   0.5386535  22.6386619  56.8443966   0.5259467  23.5875082  56.9699478
   1.2815776  22.3377585  57.3676109  17.2566402   7.5494242   4.6414736
  18.0777490   7.9969031   4.4370854  17.1756399   7.6201564   5.5926138
  81.0990906  69.4844770  16.6748416  81.9575691  69.1307354  16.9074309
  81.1934948  70.4311371  16.7804575  31.8063831  31.2308002  62.8921652
  31.4368606  32.1134257  62.9177809  32.7117944  31.3416934  63.1822777
  78.2221270  69.9238443  37.9344988  77.8142643  69.4736576  37.1947598
  78.8565779  69.2945576  38.2775736  72.7805328  53.7433434  45.3516150
  72.1309614  53.2503462  45.8528519  72.7303553  53.3768845  44.4687653
  65.6185246  48.2977390  29.4697547  64.8831224  47.6916265  29.3800521
  66.3498545  47.7472353  29.7496414  70.8083630  30.1647925  39.8984408
  71.3427162  30.9450579  39.7505093  71.2099743  29.7395849  40.6561613
  36.9760060  26.0306525   4.9246612  37.1958876  26.9527102   5.0576699
  36.0998750  25.9369946   5.2986312  58.0733204  58.7691689  67.6420450
  58.7550640  58.1374073  67.4132729  58.5223770  59.4223213  68.1786728
  37.5638485  23.5233903  34.2044044  37.6767254  23.9820337  35.0369525
  38.0761194  22.7206898  34.3017769  39.8024321  28.8140273  64.4515038
  40.6878757  28.6879325  64.1104460  39.2685127  28.1808472  63.9716673
   5.4620814  18.9444757  60.3817081   4.9149749  18.2400751  60.0342512
   6.1224061  19.0911460  59.7044420  78.0962992  48.5137081  64.8466063
  78.6252356  48.9767408  65.4962683  77.7213717  49.2076969  64.3043470
  72.2963810  10.9401047   1.2283789  72.7600002  10.2121794   1.6424024
  72.9825401  11.5749300   1.0224246  67.5070095  41.9879818  57.7594995
  67.0409822  42.8076935  57.9241991  68.4285784  42.2420549  57.7106285
  78.4228563  71.8330526   9.3803036  78.1476974  72.2909737  10.1745522
  78.7671566  72.5229979   8.8131481  30.2523541   8.0796903  31.0842490
  29.6074152   7.8319597  31.7467570  29.7946835   8.7105519  30.5285645
  37.5141549   5.5929828  24.9700093  37.4276018   6.3750583  24.4249415
  36.7503428   5.0605315  24.7479343  22.9705453  16.0866725  21.5355015
  22.2203922  15.5342698  21.3156009  23.1112742  15.9383428  22.4706078
  76.5453386  37.8781080  55.3901625  76.5498829  38.4475064  54.6207476
  76.8106508  37.0213890  55.0556850  55.1928616  20.8500695  59.6662521
  54.5001364  21.1193252  60.2694654  55.8179045  21.5748835  59.6804428
  41.0619783  30.9663367  26.3431835  40.1244020  31.1589575  26.3518500
  41.1243439  30.0654101  26.6604733   6.0847116  37.6322675  31.0875154
   5.7799083  36.7730784  30.7957578   6.4468294  37.4745584  31.9594288
  66.5890360  42.3986387  45.7025623  65.6998730  42.7452183  45.6283903
  66.4883661  41.4539194  45.5859423  50.0303888  42.1324015   9.0204352
  50.0253534  41.2100601   8.7645298  49.1068983  42.3840904   9.0273458
  10.2310145  77.5855970  53.3023357  11.1333239  77.6940727  53.6028385
   9.7135419  77.5481415  54.1067314  65.1034784  59.3657541  18.4382081
  65.7493210  59.5487881  19.1205692  65.6151295  59.0023851  17.7154279
  76.2085819  13.8184023  56.7819452  76.3953972  12.9096830  56.5462303
  75.2758598  13.8231683  56.9969702  52.8143549   0.8132876  58.3434534
  52.9216909   1.6218805  57.8425646  52.2900200   1.0693810  59.1022158
  78.2183599  68.3765125  63.6014557  78.0837440  67.4629259  63.8533878
  77.3798132  68.8010120  63.7827682  56.6082907  48.3574438  46.8753576
  56.9341850  48.6444473  46.0223341  55.6632805  48.5034943  46.8322229
  24.9799442  75.2776480  26.7495346  24.7082734  75.3880644  27.6607084
  24.3446636  74.6625566  26.3830495   9.0427822  49.2251301   9.6555191
   8.3288109  49.7274351  10.0481606   9.2430121  49.6888781   8.8424516
  35.8239961  74.5632172  28.5667157  35.8912420  74.0367651  27.7701235
  35.4328895  73.9734554  29.2112660  11.9504344  47.1959734  57.5558853
  12.1381056  47.5609207  56.6911173  11.3240361  46.4919472  57.3879433
  18.1466281   3.3053726  34.8561883  17.3135066   3.7359312  34.6644640
  18.6744845   3.4441328  34.0698409   9.6470797  31.2962794  56.7566729
  10.1316142  30.4852796  56.6026020   8.8957816  31.2423134  56.1660242
  39.8718643  16.3216424  20.6495810  39.1094017  16.0496104  21.1603451
  40.3661823  16.8892467  21.2409401   0.5186594  57.2810602  12.0291293
   0.9863692  57.4991989  12.8352904   1.1259545  56.7229128  11.5434384
  34.2684174  57.9866171  27.6617765  33.5224700  57.9890299  27.0619512
  34.9679971  57.5539780  27.1722412  83.3766618  29.5242596  47.3663998
  84.2830225  29.2516208  47.2235394  83.0496177  29.7360659  46.4920950
  33.7717295  76.3240957  28.2350731  34.6415019  75.9476948  28.1007242
  33.1672549  75.6180668  28.0062270  64.2806196  62.2077370   7.8047407
  63.4806442  61.9482613   7.3476326  64.6314621  61.3896370   8.1566739
  24.6241140  20.6118083  41.9778919  24.2039585  19.7527933  42.0202398
  25.3011560  20.5145311  41.3082743  63.9361668  36.2207127  57.5726080
  63.5729933  36.8835807  58.1599236  63.1996393  35.6396151  57.3826599
  51.9960070   5.3907651  24.3706560  52.0367575   6.3464493  24.3354607
  51.7106342   5.1307863  23.4947538  81.1275768  66.4137077  62.2817278
  81.7982292  66.2258625  61.6250896  80.5755520  65.6317759  62.2907543
  62.3958206   4.7682914  41.9665098  62.5638962   4.7792614  41.0242462
  63.2171392   4.4642088  42.3527813  75.3712320  71.4634228   8.4818530
  75.4617977  70.7201529   9.0781558  75.8622074  72.1692324   8.9025819
  57.2877121  39.3144584  47.0412350  56.8191290  39.8994207  47.6366186
  56.5975142  38.8235784  46.5952539  24.8406029  32.1790552  56.5732050
  25.7007384  32.5989819  56.5809059  24.9219084  31.4784241  55.9261084
  62.4642944   5.1788646  13.2727420  63.0718470   5.5500031  13.9125586
  61.6906595   4.9441272  13.7852097  63.4354734  26.1441898  48.9300966
  62.6422358  25.8394766  49.3707323  63.4945631  25.6036258  48.1423616
  27.1690750  76.1702681  31.4018226  27.5181007  76.9009733  30.8914447
  26.3906670  76.5271044  31.8295813  78.0006266  10.9033632  11.4584649
  78.6463165  10.2510762  11.1867309  77.2629023  10.3884161  11.7853022
  44.6261740  37.4679852  63.2918406  45.5271339  37.7062225  63.5103321
  44.6732473  36.5405631  63.0596685  49.7838163  29.3365955  65.5664921
  50.0157070  29.4127488  66.4920521  50.1769781  30.1072288  65.1568842
  16.8462372  70.8019304  19.4496930  17.6870060  70.3450394  19.4740045
  17.0765328  71.7299080  19.4949472  34.9687290  15.3508258  25.0618887
  35.6170368  14.7075999  24.7751999  34.1269445  14.9096990  24.9477220
   6.0108393  50.7608938  54.4599771   5.8391839  50.2249384  55.2342606
   6.5973020  50.2268124  53.9242077  62.1519518  25.1802135  54.0138197
  62.9114580  24.6146297  53.8742018  62.0707417  25.6774282  53.1999350
  55.7787466  39.2757201  56.3149166  55.9984303  39.5371819  57.2091246
  56.4538908  38.6396408  56.0786581  27.0529222  40.2064419  64.1981983
  27.6037216  39.7964883  63.5312748  27.0439649  41.1345243  63.9640713
  81.7847252  46.5283680  33.8697267  82.6350975  46.8036413  34.2122436
  81.7996883  46.7935514  32.9501128   8.5281783  65.6255627   1.0824811
   9.0443641  65.6061506   1.8883394   8.9639223  66.2783909   0.5346010
  67.7369452  61.9322300   8.5925615  67.6243401  62.2679043   9.4818735
  68.6142540  62.2181082   8.3379430  -0.0642254  43.8614511  59.3340445
   0.5411147  43.9234591  58.5951614   0.0977652  44.6553516  59.8436642
  16.0005093   9.3400824  19.8871183  15.0797522   9.1029304  19.7766781
  16.2877119   8.8368922  20.6490541  59.7547054  22.9319549  53.7679243
  58.8722849  23.2836437  53.6500978  60.3122091  23.5011625  53.2374287
  15.6772840  12.6351619  15.9792626  14.9066675  13.1446302  16.2299085
  16.1029422  12.4206316  16.8093371  15.2453172  60.3556681  29.5456862
  14.4751346  60.7739639  29.9304962  14.8895526  59.6531057  29.0015602
  69.7718954  52.1526098  68.3212233  70.0006771  52.5802326  67.4959755
  68.8164282  52.1974373  68.3573723  21.8650436  12.9485726  12.0250475
  21.0243130  13.2485437  12.3706245  21.6442800  12.5155580  11.2004304
  24.0794969   3.0633399  15.6535554  24.5385838   2.2838297  15.3407705
  23.1801438   2.7695301  15.7987297  10.4112136   3.3586541   4.0282831
  10.4512143   2.7801907   3.2666981  10.3515577   4.2390832   3.6574495
  26.7130232  32.3792768  18.2676065  26.2132120  32.4850512  19.0770710
  27.1222305  33.2328534  18.1255126  16.0707009  55.5748129  58.0042934
  15.9512937  54.6282864  58.0821133  16.4318383  55.8409834  58.8498497
   1.4964828   7.2120500   6.2207377   0.9235585   6.6097552   5.7461530
   1.2537548   8.0792511   5.8962739  72.5088406  53.4094000  39.1892457
  72.2999191  54.2905951  38.8792729  73.4648800  53.3679962  39.1667962
  45.3939104  22.1006870  17.0174646  44.6661901  21.5089178  16.8264961
  46.1763811  21.5589857  16.9148481  63.5127401  74.0668869  67.6229048
  64.3805647  74.4606495  67.7127171  63.6499882  73.3130121  67.0492601
  50.6060457  73.4237146  46.8788576  50.2452993  74.2641068  46.5963030
  50.6726313  72.9090643  46.0745382  53.3593750  18.7917387   2.9059669
  53.3541632  18.7618303   3.8626853  54.0546036  18.1851363   2.6511589
  47.0929813  30.1604891  57.6340246  47.8388405  29.8501325  58.1474447
  46.6635799  29.3614984  57.3283100  79.1500807  66.0705328  19.2290938
  78.9426279  65.1363516  19.2067313  78.8218021  66.3685417  20.0774217
  40.4990435  78.0608559  49.1152573  40.9776163  78.8895082  49.1383028
  40.7548809  77.6595306  48.2847691  20.6929517  56.3258696  33.6087751
  20.0890660  56.3472176  34.3511343  20.2636409  55.7601595  32.9669833
  69.2665005  40.4250050  45.2915192  69.9964476  39.9766970  44.8644018
  69.6450090  40.7911587  46.0908270   7.0200133  42.5775385  66.0202646
   7.5271064  41.7696762  66.1005878   7.5308317  43.1224442  65.4216194
  57.2377443  43.3568573  53.2594395  57.2002125  42.5444269  53.7641954
  57.9960346  43.2475090  52.6856184  47.1604443   7.1616387  21.7665172
  47.7055502   7.2325253  20.9828925  47.5428391   7.7873886  22.3816919
  39.6975088  43.6905241  22.5617576  39.0221786  44.2572117  22.9346180
  39.7757983  43.9778185  21.6520500  17.3627460  75.7682657  21.0856581
  17.0293081  76.3264799  21.7881131  18.3093214  75.7461739  21.2261558
  23.4732842  23.0907035  25.4112649  23.8325500  22.4062157  24.8467851
  23.9646292  23.0094123  26.2287021  71.0292053  39.9700999  49.8471928
  70.9898090  39.8150301  50.7909250  71.8980503  40.3446436  49.7020769
  56.4598370  27.2079110  51.3434696  57.3117352  27.5748682  51.5797663
  56.5387011  26.2742019  51.5389252  69.4561386  14.6876514  18.5867608
  70.2591228  15.1264262  18.3058274  68.9574528  15.3677106  19.0396023
  71.6782379  20.4391766  43.2413054  71.9669867  20.4262829  44.1538239
  72.4869967  20.3757119  42.7332544  81.5471458  32.7020621  51.3455439
  81.3246822  32.0788121  52.0371342  81.6722298  33.5333061  51.8033838
  74.0057182  16.0378683  53.5075998  73.4073687  16.6669512  53.1045294
  73.4650278  15.2657092  53.6739016  67.9076862  62.4462938  43.7033224
  68.4417820  63.2303047  43.5756302  68.1983566  61.8442822  43.0182552
  64.3334961  27.5675464  60.2965403  64.7555780  26.7099166  60.2460194
  63.6498499  27.5378394  59.6272278  56.7386723  59.2051792  62.5880384
  55.8275461  59.3413639  62.8479004  57.2329760  59.8405075  63.1059694
  65.6440020  33.6845922  33.4046936  66.5447950  33.9785528  33.2690835
  65.2613401  33.6725712  32.5273943  11.4720690  73.3259916   1.8271361
  11.7178404  73.7775469   1.0197150  11.1705685  72.4648523   1.5377097
  42.2963047  13.4394801  65.8624792  42.2099829  13.6983430  66.7799568
  41.7702293  12.6433074  65.7877398  48.9100027   5.6205606  10.6989884
  49.2827225   5.0071365  11.3322532  49.4646311   5.5312181   9.9239796
  27.2859192  62.6933193  18.6174083  26.4660192  62.9268074  18.1821144
  27.1583247  61.7872286  18.8983941   1.2840891  54.5807076  57.0943213
   1.6319609  53.9144182  57.6870108   0.4124702  54.2616463  56.8604136
  49.5656586   8.3513087  11.9293380  50.0347376   8.0618829  12.7119160
  49.3530083   7.5420064  11.4645362  20.8287406  57.6603127   3.1772691
  20.5947971  57.7719498   4.0987027  21.7841959  57.7166128   3.1642213
  24.0088773   7.8037906   7.6269132  24.5588255   7.1577299   8.0700755
  23.1702900   7.3593873   7.5023711  51.1889553  17.8008723  59.5976210
  50.8157444  17.9353344  60.4687500  51.6402054  16.9588566  59.6577358
  39.2187095  23.4097481  19.0747428  39.5222282  22.5394917  19.3331277
  39.9747539  23.8091302  18.6444855  63.7581825  66.5273952  51.2759590
  63.2515669  66.7445564  50.4933882  63.2889843  66.9561911  51.9916534
  11.1334884  73.6529064  49.6283054  10.4037845  73.2007980  49.2047930
  10.7170630  74.3130445  50.1824141  57.8193426  48.3917952  53.0854654
  58.0043650  47.7271557  53.7489796  58.4912252  49.0598059  53.2217312
   6.0829914  33.2178783  37.8482533   5.7225496  32.3712635  38.1119943
   6.5311462  33.0402613  37.0213056  61.2374115  15.6887615  25.3848696
  61.2390757  16.1665988  24.5554709  61.6007519  14.8303092  25.1674414
  51.5012932  12.7893376  58.5381556  50.6818485  12.7953327  59.0328360
  51.3957453  13.4870613  57.8914118  82.3712730  20.6403852  11.4978611
  81.8138313  19.9316275  11.8190408  81.8399715  21.0812759  10.8348608
   8.5082841  13.3105958  20.9879422   7.6804811  13.2511318  20.5110383
   8.2501155  13.4296489  21.9019485  29.6274972  31.3986731   5.8311188
  28.6919069  31.5855718   5.9084034  29.7888970  31.3699222   4.8880625
  43.8475752   7.0458508  11.7745948  44.6107674   6.4720285  11.7075706
  44.0917492   7.6928353  12.4364269   9.3813062  46.6553354  43.1976509
  10.3203714  46.5424585  43.0505228   8.9694631  46.2648392  42.4268532
  23.9507651  33.1653929   6.5279126  23.6635113  32.2608352   6.6523850
  23.3687067  33.6805534   7.0865262  79.3577957  37.7172899  57.0682621
  79.0092802  38.0403852  56.2373734  79.2765760  38.4597230  57.6669502
  54.8612928  60.1240540  66.1681509  55.2474737  60.9554386  65.8926630
  54.8311996  60.1787806  67.1233130  25.2566838  15.1989257   8.9717847
  24.7733140  15.0507236   9.7845709  25.6051517  16.0861933   9.0587354
  77.5201845  42.7640009  62.5727654  76.8658257  43.3815908  62.2462273
  77.4231958  41.9938707  62.0126581  66.5323019  12.2523332   2.1678621
  65.5841398  12.3729777   2.1161743  66.7110586  11.5097535   1.5909290
   2.8778079  29.2802882  24.7634172   3.3333436  29.9803948  24.2959023
   3.5764664  28.6996984  25.0651169  18.8377154  61.2594414  30.5599380
  18.5385454  61.2082481  31.4677429  19.1297925  62.1648979  30.4547095
  12.1632671  77.6277161  55.7515144  13.0847943  77.4198675  55.5971766
  12.1609819  78.5602236  55.9675169  21.5558910   6.8346298   7.4697155
  20.6969762   7.1782947   7.7154690  21.3811159   5.9403408   7.1765733
  76.4003658  55.6558323  55.6492853  75.5815792  55.7781982  55.1688194
  76.8107986  56.5205669  55.6472397   6.9729465  44.8740196  29.3746376
   7.2892755  45.4719162  28.6973739   7.7656102  44.5785666  29.8225474
  67.7763939  61.7416906  39.3193698  67.4156857  61.3021946  38.5493279
  68.6782646  61.9501591  39.0756512  70.4038095  41.5774155  59.4556332
  70.4520273  41.6684151  60.4072762  70.1447868  42.4449301  59.1448927
  27.1111202  75.5365086  68.2939434  26.8156695  74.6260548  68.2912731
  26.9060779  75.8574295  67.4157619  16.2411463  28.3478069  62.4815893
  17.0254624  28.7471032  62.8579426  16.1203444  28.7986135  61.6458797
  16.7793286  68.8532829  16.1037350  17.3883462  68.4446192  15.4886532
  17.1742260  68.7086058  16.9635940   9.0958756   9.6509874   6.7186201
   9.8360348   9.0492916   6.7983603   8.3652806   9.0968901   6.4439589
  67.8031349  51.9503212  60.1379633  67.4053621  51.2152052  59.6714687
  67.1333361  52.6339769  60.1232147  68.9323997  69.2044687  58.6746597
  68.7335253  68.9585686  59.5781040  68.7501431  70.1433706  58.6363268
  48.2764816  73.9600325  65.4306984  48.1128931  73.0256462  65.5587196
  47.4236298  74.3216896  65.1897144  32.9409122  46.8712044  10.1538193
  33.4178114  46.0486031  10.0436926  32.0584846  46.6039038  10.4109251
  32.8546238  23.2457781  17.5051773  33.2458591  23.3486676  18.3726919
  32.6079559  24.1338325  17.2468221   1.1381510  34.5667553  53.4233093
   0.5658017  35.0834727  53.9904499   1.9438881  34.4605064  53.9290047
  50.4866934  22.0983124  46.0373831  49.6718645  21.7307067  46.3796520
  51.1753273  21.6652250  46.5418148  71.5432549  63.0104399  57.5962400
  71.1984730  63.6000586  58.2668447  70.7780170  62.7662086  57.0756721
  39.4364858  74.7548485  48.3365726  40.2254629  75.2125454  48.6268425
  39.7636747  73.9840794  47.8727865  68.0375385  34.1589427  62.0154524
  67.6469278  33.6530566  61.3028955  68.8390875  34.5228028  61.6394806
  25.3262043  28.3870888  28.5397363  25.4250693  28.9064145  27.7417660
  25.0706983  27.5182056  28.2299113  57.8990936  12.0160079  17.8904378
  57.2802162  11.5294504  17.3459363  58.2363939  11.3670838  18.5079789
  10.9460413  25.7426333  10.4440868  10.5451894  26.2184572   9.7166646
  11.7061102  26.2715983  10.6864190  32.8573155   7.1326476  16.3428319
  32.0721173   7.3783541  16.8320382  32.9018760   7.7667904  15.6272137
  82.9551506  59.0684271  62.5130939  82.9386902  58.1247139  62.6723623
  83.2789326  59.4438982  63.3318853  53.4279299  65.8320379  54.4943380
  52.4879551  65.7073116  54.3634653  53.6159515  65.3864336  55.3203630
  57.9369402  66.2645102  63.0176592  57.9620123  67.0291996  63.5928583
  57.8449488  66.6296673  62.1376419  81.3330173  40.2719593  67.0181227
  80.8900261  39.7991467  67.7227020  82.2540379  40.2820969  67.2786188
  44.1544771  49.6517086  13.2681763  44.7210407  49.8920012  14.0013134
  43.2917213  49.5262241  13.6633265  68.9396381  70.9677219  29.9461579
  68.3201265  71.3465309  30.5698061  69.7171354  71.5218782  30.0142884
  60.5564928  33.2135558  13.7150073  60.8712626  32.9684687  14.5851123
  60.7401609  34.1506505  13.6490345  30.1115704  50.1135397   4.1650277
  29.3676949  50.6381607   3.8689607  30.1837349  50.3064060   5.0998145
  54.1793346  48.4024096  57.0535469  55.0863600  48.3876753  57.3590422
  54.1474390  49.1304350  56.4329052  80.2623844  46.3352633  58.9677429
  80.9153175  46.8896818  58.5405111  80.4846382  45.4464293  58.6905909
  48.0428123  38.9461851  19.6886504  48.6861897  39.4209385  20.2148676
  48.3217382  38.0317974  19.7369111  52.1257210  59.8355007  50.3279209
  52.8217983  59.9007702  50.9817171  52.5530577  60.0559855  49.5002747
   5.9720355  66.9143677  40.5442333   6.6517329  67.0714569  41.1996460
   5.9394205  65.9617472  40.4565811  48.0863619   7.3912621  30.2817583
  48.9973259   7.5715393  30.0496578  47.6539469   8.2439232  30.2346396
  72.6682281  45.4491329  64.7171926  71.7619371  45.2651739  64.4701624
  72.9292870  46.1732769  64.1482496  82.0659065  74.8703384  62.2926140
  82.9776478  74.7210503  62.0422649  81.6488457  74.0137386  62.2002840
  14.7444630  41.5148354  20.9867144  14.5750880  41.4422131  20.0474215
  15.4707086  42.1349573  21.0518885  77.3952293  76.8480110  30.1714349
  77.0353985  77.6278782  30.5940080  77.6407957  77.1425629  29.2944098
  48.5773611  22.0731235   8.8687712  47.9282522  22.3706150   8.2312882
  49.0675402  22.8627515   9.0977794   6.8127406  62.0337009  46.8553972
   7.5106841  62.3658180  47.4200249   6.1459744  61.7125559  47.4624538
  38.2691312  11.1245942  19.0691602  37.4986625  10.5571461  19.0938652
  39.0084815  10.5303216  19.1973531  14.9984622  22.0158458  62.6469755
  14.3567157  21.5585852  63.1903982  14.7654319  22.9406953  62.7281141
  68.4114170  58.3335400  57.4829340  67.8935957  59.0575266  57.1308899
  67.7709532  57.7696896  57.9166460  20.6449962  29.0237045   3.4411630
  21.2978697  28.4362078   3.0605900  19.8369336  28.8214040   2.9696310
  75.9136105  26.2352586  55.0872135  75.8694410  25.4160619  55.5803633
  76.3955641  26.0100865  54.2914438  60.4919958  10.9660697   3.7821758
  60.3591251  10.9991503   2.8348202  60.9146118  11.7983997   3.9939663
  55.9208393  34.5276594  45.8487463  56.4605236  34.4875789  45.0592136
  55.0349188  34.6911550  45.5252504  77.0296526   2.0612939  32.4156356
  76.4540577   2.7888814  32.1799707  77.3559189   1.7329335  31.5778041
  80.8125877  25.7518053   5.1232219  79.8941898  25.8219671   5.3836983
  81.0795212  24.8813605   5.4186910   5.2865666  49.6198368  65.7074690
   4.5762411  50.2496338  65.5849028   6.0101259  49.9708605  65.1883602
   7.1201026  72.0089054   1.0967125   6.8268126  72.2750139   0.2252775
   6.7411864  71.1388206   1.2216277  71.4816999  27.2731757  64.1967344
  70.8255911  27.4385834  64.8737812  72.0591927  28.0357575  64.2314434
   0.4622141  75.1895809  14.2561162   1.3912794  75.1836634  14.0258241
   0.4033961  74.6276617  15.0287867  59.3811131  65.1433277  31.3802409
  59.5650625  64.7711277  32.2427130  58.4338570  65.0521660  31.2771153
  38.2798982  23.2489157  14.9535620  38.3361340  22.7647090  14.1297829
  37.5131392  23.8121796  14.8484409  16.3015246  22.7876258  41.0691118
  16.4771068  22.4433398  41.9448233  16.6102207  23.6931062  41.1014080
  50.3717136  11.3256729  47.3100328  49.9002028  11.3593674  46.4776993
  50.6236744  12.2334349  47.4794865  54.2618036  54.6521282  44.2870998
  55.1682568  54.6689987  43.9800358  53.7962246  55.2393484  43.6915874
  19.1275299  51.4483356  57.8941298  18.8277912  51.0370541  58.7048340
  19.4525242  52.3063898  58.1668043  11.6919053  75.4546690  63.6216021
  12.2069252  75.8901787  62.9423952  11.4434493  76.1578512  64.2216301
  21.4381528  22.3414135  11.0286367  21.1404753  21.4382005  11.1373830
  22.0807052  22.4675298  11.7268169  68.1878090  48.2302284  41.4183903
  68.7158966  47.5475264  41.0045433  67.7891207  47.7993298  42.1744394
  56.1180019   0.0747786  32.6040292  56.4808083   0.8611277  33.0117774
  55.3297806  -0.1166376  33.1122565  15.2485716  23.9344215  36.4172387
  15.0512850  23.0815172  36.8043613  16.0378993  24.2273426  36.8726397
  54.1461325  52.7965832  38.0635262  54.0416670  52.5174856  37.1538997
  54.7553062  53.5336018  38.0194688  61.8397331  28.8943410  17.2160161
  62.7246380  28.6919785  16.9123209  61.2851954  28.2399678  16.7911470
  37.2229218  17.9593027   1.9897269  37.2494149  18.6425459   2.6595843
  36.6540599  18.3151042   1.3070607  60.1793098  53.5885620  42.0569944
  60.1668787  52.8084421  42.6115179  60.8682203  54.1376019  42.4314070
  69.4867325  45.8348131  52.4778938  69.3909121  46.7870235  52.4964237
  68.5905886  45.5051708  52.4108601  32.3575497  26.7735696   5.3773969
  32.7160978  27.4564147   4.8104778  32.0627832  27.2413254   6.1587739
   9.0614051  65.5717373  47.1257782   9.8528135  66.0663843  46.9131088
   9.1017592  64.8005342  46.5602255  64.3591309  53.1331301  45.8308840
  64.0242338  53.8729191  46.3376284  65.2533054  53.3856106  45.6008101
  71.6188097  40.0677252  66.0500669  71.6766310  41.0228252  66.0241079
  72.3354053  39.7690821  65.4901266  63.7704611  51.2826443  65.0696993
  62.9882002  51.1921453  64.5255423  63.9453125  52.2236443  65.0831509
  68.5991383  43.8846684  67.0291853  69.0603256  43.2175159  67.5375652
  68.1850576  44.4433117  67.6869774  72.5358582  54.8120213  28.0173802
  71.9141579  55.4075813  27.5990129  73.3069229  55.3525877  28.1890726
  80.5344105  40.3025293  58.9913225  80.9514332  39.7045779  59.6116304
  79.6467495  39.9596095  58.8879299  77.3250818  42.4010992  65.3056669
  77.5444746  42.6383066  64.4046497  76.4908600  42.8398275  65.4724884
  75.4824924  54.8160124  21.6508293  75.6913280  55.6270695  21.1873579
  74.6772957  54.5044756  21.2374997   4.8603043   0.9341715  28.5360909
   5.2044469   1.6275164  29.0991807   4.5327586   0.2718782  29.1446233
  79.8966408  43.8793230  62.8400803  80.4144955  43.5332060  63.5668993
  79.0997219  43.3490849  62.8399515  73.9081478  51.6954279  66.1143589
  73.7373400  50.9318972  66.6657877  73.7505770  52.4452734  66.6880608
  67.8201485  27.9137135   4.4256866  66.8893147  27.7882409   4.2412025
  67.8620958  28.7513208   4.8870802  64.4396210  63.0226803  33.8815784
  64.7455359  62.1399689  33.6730695  65.1670504  63.5931492  33.6333013
  54.2014599  42.2087812  55.7270813  54.3461561  41.3559246  56.1368799
  53.2663774  42.3757505  55.8452940  57.0331192  44.6214533   0.1101961
  56.8587160  45.5252743   0.3727246  57.9738617  44.6002960  -0.0652786
  56.8699169  58.1171131  43.1829596  56.1683655  58.4834766  43.7213278
  57.1370411  58.8389969  42.6139593  21.8857121  26.7950368  16.8545866
  21.9424224  26.6887355  17.8041744  21.1083508  27.3371577  16.7202652
  21.5949655  35.0282073  64.6319485  22.4015546  34.5784974  64.8837566
  21.8461394  35.5693793  63.8834333  39.4785142   2.2131826   7.0132279
  38.6223245   2.5214651   6.7163575  39.3097734   1.3387313   7.3640752
  48.7291241  29.3394327  52.6812458  48.5561800  29.5416236  51.7617655
  49.6167469  29.6631193  52.8348112  54.7854567  13.3416224  66.4066792
  55.1442051  12.4705982  66.2368345  54.5683289  13.3336222  67.3388958
  34.0787935  73.9091730  19.8581290  33.9723229  73.4517097  19.0240884
  34.9720263  74.2521286  19.8308718  29.9622416  53.5633612  62.4980974
  30.3921437  54.0031195  63.2315969  29.8709989  54.2437935  61.8310738
  44.6993732  14.2708361  26.5224147  45.1863337  14.7561502  27.1884251
  43.8127995  14.6291363  26.5653229  60.8503675  25.2434254  12.9926634
  60.2257347  25.9470010  13.1688738  60.3377151  24.5770407  12.5351131
  18.8529491   1.2519997   9.8496181  19.6005201   0.8171906   9.4393605
  19.1499698   2.1497372   9.9982065   0.2287442  44.0399933  29.4627643
   0.4406518  44.3679380  30.3367066   0.8958294  44.4247866  28.8942909
  61.0696507  33.2087588  39.1358018  60.2764750  33.2620168  39.6689653
  60.7613087  32.9240060  38.2755280  47.4843788  23.7882876  56.2163115
  47.3804140  24.0231538  57.1384048  46.7196083  23.2474446  56.0192108
  50.9521770  10.2172673   7.3864138  50.3038931  10.9076023   7.5257093
  51.7105675  10.4935360   7.9009515  47.7305937  43.3591032  62.7469015
  47.8462553  43.4009838  63.6961651  48.3677244  43.9836788  62.4001980
  58.6671209  33.1549358  40.4867506  57.9857826  32.5752878  40.1461267
  58.9399195  32.7468944  41.3085222  36.1961102  21.7595291  12.5362611
  35.2404904  21.8110585  12.5554585  36.4251089  21.2642169  13.3226836
  63.3814669  59.7884417  13.2557142  63.0234146  60.5985212  13.6187553
  63.7687349  60.0508547  12.4206126  41.9546223  15.5646384  10.5937123
  41.1677980  15.6462276  11.1326766  41.7103958  14.9458456   9.9054688
  18.5158324  53.6369371  24.2948365  18.1957281  53.9612007  25.1366305
  17.8212714  53.8564062  23.6738300  80.3296852  60.1658201   9.8744673
  80.3716660  59.2253351  10.0475454  80.8059025  60.2794838   9.0519547
  50.6829071  63.1107330  21.1091375  51.3916540  63.7263012  21.2961888
  50.6993914  63.0084705  20.1575589   5.8886003  24.7673225  11.0314012
   6.3856113  25.5393648  11.3018823   6.4680523  24.3111229  10.4211962
   0.4994849  43.2063246  17.3815644  -0.0562157  42.7793550  18.0335784
   1.2038431  43.6058950  17.8919137  29.0383601  10.3646791  16.3311493
  28.7770271  11.2851512  16.3569891  28.4985900   9.9817765  15.6395817
  72.8916550  29.0944386   2.7521646  72.5419903  29.9657965   2.9384527
  73.8307524  29.1722274   2.9203123  14.5935678   1.2224977   5.4581743
  14.0903068   2.0051649   5.6826562  15.3183270   1.5486130   4.9246895
  47.9710627   9.2131275   5.1890528  47.9108524   9.8201346   5.9267181
  48.7609959   9.4830126   4.7206542  33.5101008  67.0046854   1.8863541
  32.5901628  66.9891500   1.6223370  33.9533877  66.4520836   1.2426489
  47.2858191  20.7925224  12.5947332  47.2139359  19.9305379  12.1847999
  46.3855791  21.1155939  12.6325154  29.4572401  52.0321512  65.1297092
  29.2031169  52.3162413  64.2516756  29.9665833  52.7630281  65.4798794
  54.8281050  70.3516769  38.9615798  54.5299149  70.7895327  39.7588229
  55.6613684  70.7743216  38.7535501  69.6400452  44.7175694  59.7529459
  69.8069286  45.3211737  59.0290356  70.2854109  44.9570179  60.4180765
  65.9211779  73.6406183   2.9091108  66.5282536  74.1283703   2.3525247
  66.2010765  73.8413334   3.8021967  76.8661928  20.4410982  58.6278152
  76.9186211  21.2484860  59.1392899  77.4818659  20.5737948  57.9070044
  53.8372183  40.4379320  49.0538025  53.6937428  41.2876177  48.6370564
  53.7233543  40.6075478  49.9889469  83.6363602  29.1947961  21.1045241
  83.0710793  29.9628329  21.1870408  83.1559277  28.4951377  21.5471172
  62.3375320  77.7466011  14.0068984  63.0703974  77.2734070  14.4008863
  62.7503109  78.4111500  13.4553361  79.9707508  66.9941854  36.5647840
  79.5978737  67.4508953  35.8107185  79.4449997  66.1985254  36.6468883
  39.2379141  59.5957232  39.7908640  40.1823902  59.4889021  39.6777892
  38.8583875  58.8167286  39.3842196  42.3270607  12.3270118  16.5833664
  42.0039892  12.7765524  17.3642445  41.5745831  11.8278372  16.2658203
  24.1535521  33.7822938  47.2736502  24.7819257  33.2930160  47.8046751
  24.1629958  34.6649075  47.6439714  68.4819698  57.0652246  15.1678395
  68.0809498  56.3335562  15.6369638  68.5179853  56.7745399  14.2565572
  39.4724107  25.1033378   1.1656956  40.0730610  25.1571202   0.4223516
  39.0525460  24.2481494   1.0729744  41.0581923  55.4891777  21.6472697
  41.2461853  55.8418703  22.5170374  40.2110863  55.8683491  21.4130187
  11.4778733  11.7432761  31.7851233  12.1183276  11.8332815  31.0794687
  11.9969916  11.4922559  32.5491500  44.6194792  68.1996536  47.0935774
  44.9474478  67.5799370  46.4419413  44.1852951  68.8803959  46.5794754
  22.7908278  41.2390041  10.3474116  22.6561451  41.8037319   9.5863777
  23.4894061  41.6668749  10.8425343  63.9101839  50.5132246  26.7003655
  64.0228176  49.7878504  26.0860586  64.6053171  50.3898239  27.3467350
  52.6771688  54.5555162  63.6029243  53.4438038  54.0433455  63.8601875
  52.8742838  54.8518610  62.7143526  33.4789872  17.9776955   2.1929678
  33.8884377  18.2666135   3.0085099  33.7286139  18.6424112   1.5510403
  54.3440008  33.9659381  67.9917383  53.4723234  33.6268497  68.1952858
  54.5951891  33.5130858  67.1867132   2.8943089  61.9212675  35.8022165
   3.0170512  61.9400692  34.8531032   3.2069325  61.0561943  36.0670614
  42.9557085   5.1623321  21.2267852  42.4103594   4.5059738  21.6603971
  42.6807642   5.9944314  21.6118145  10.2657938  70.7654285  58.8272858
  10.5737877  71.3808489  59.4925880  10.8561921  70.8990192  58.0857897
  28.3338571   3.9974859   2.4948069  27.5041747   4.1288847   2.0359030
  28.4820390   4.8197269   2.9619199   4.2485148  13.2753766   7.3060441
   3.8003117  13.3682179   6.4653742   4.9738538  13.8983309   7.2608393
  14.7239745  40.1006460   3.9887035  15.1493955  39.3410587   3.5908654
  13.8258421  40.0721979   3.6588854  78.6337805  64.6439362  57.6633883
  79.2465734  64.2276907  58.2695723  79.1311932  64.7451925  56.8518734
  27.9167461  15.6476843  15.1478457  27.9278111  15.9563458  14.2418456
  27.9991078  16.4436615  15.6730783  10.2942145   1.3896762  16.2546253
  10.7279885   0.6745271  16.7200649   9.6538913   1.7289032  16.8800390
  49.6423197  31.3998938  15.0195920  49.5146608  31.0523796  14.1368854
  48.9109516  31.0448766  15.5248559  14.9103761  65.8605528   7.9628986
  14.5586550  66.6154099   7.4909741  14.8729384  65.1435947   7.3298067
  78.5965300  19.3386114  60.5332422  79.4638300  19.0701318  60.2300310
  77.9975319  19.0201855  59.8579359  23.1154585  76.0560942   6.6255641
  23.0225992  75.1773262   6.2576342  22.2213936  76.3209534   6.8417287
  12.4003065   2.8776667   5.9746188  12.6964140   3.7829059   6.0699821
  11.9229150   2.8679585   5.1450199  73.4728098  33.6076260  64.2683935
  72.9783297  32.8383160  64.5510340  73.7914944  33.9995146  65.0814724
  37.6096630   6.0071248   4.2944002  37.7546477   6.9172227   4.0356860
  38.4532690   5.5791998   4.1479665  34.0733242  11.0961723   8.8459283
  34.4538569  10.2257419   8.7285501  33.2027459  10.9301949   9.2075640
  47.0044899  18.1880128   4.1322500  47.1982336  18.9620483   4.6609887
  46.3288546  18.4792173   3.5199177  29.4321966  33.7312150  57.7968884
  29.6885872  32.8550482  58.0846834  30.1020694  33.9796662  57.1598816
   0.1156067  63.3489037  66.2190962   0.7214984  64.0612841  66.4231491
   0.1554086  62.7742529  66.9835711  15.7881117  24.6085453  49.4004297
  14.8959565  24.5490909  49.7421265  16.3471437  24.4783545  50.1664352
  46.7816687  30.4524064  62.1688175  46.1984682  30.6052589  61.4253473
  46.2206125  30.5524755  62.9378653  14.1318536  49.5413017  15.0941360
  15.0042570  49.9270868  15.1735914  13.7139273  49.7185564  15.9368396
  67.7245092  67.8749847  53.3861589  67.4737549  67.9858637  54.3032551
  67.7133083  68.7617302  53.0258989  40.6204271   2.4962522  16.3192475
  41.1916399   1.7303956  16.3776445  39.8385596   2.2501421  16.8135643
  49.2840528  24.9132562   5.5294001  49.1554832  24.8510742   4.5829147
  50.1001120  24.4400859   5.6918561  11.4120746  44.4516993   9.7344548
  12.2385287  44.9339724   9.7095764  10.7474637  45.1231766   9.8882258
  24.8438740  70.5782938   8.4781891  25.3260660  70.0361681   7.8538352
  24.8812032  71.4603567   8.1083179  26.8660855   1.4203861   0.7288411
  26.5118599   0.8121172   0.0801777  27.0951271   0.8673581   1.4757895
  40.7360172  16.6400206  17.8692186  40.3782558  16.4821374  18.7428951
  40.0539207  17.1367133  17.4172556  76.5894890  13.4498191   5.8185512
  76.0082388  14.1808224   6.0283476  76.1090469  12.6724458   6.1033261
  60.4800367  61.9161892  54.4845486  61.0449696  62.4691677  53.9448309
  59.8830843  62.5296307  54.9130011  56.2608624   6.3306499   9.9131829
  56.9600296   6.9825512   9.8639685  56.5447140   5.7263184  10.5990720
  71.4304399  16.5415263  24.3698263  71.6347218  15.6536603  24.0762377
  70.4739380  16.5773404  24.3768716   4.9346718  73.6993790  59.4428253
   5.3437066  74.5640802  59.4080210   5.1922119  73.2793903  58.6221457
  76.9486713  57.4658251  26.1705899  77.3528481  58.3335066  26.1717081
  77.5518513  56.9199848  26.6750312  58.4125280  62.9488039  15.3522289
  57.7415228  62.5567341  15.9110332  58.8670778  63.5686493  15.9226751
  82.3309898  14.3132651  35.3714395  82.2424221  14.6364415  36.2680697
  81.9379425  13.4407151  35.3914189  54.9578667  14.0369785  23.4019446
  55.1227140  14.8781228  23.8280106  54.2111540  13.6707437  23.8757873
  73.9108372  20.9422445  41.4032984  74.3297863  21.4154601  40.6844234
  74.0415001  20.0182724  41.1901379  11.9019079  43.4606314  63.8869953
  11.7906582  44.2852211  64.3601847  12.2428083  43.7198400  63.0309391
  10.2190566  21.7470360  32.8231335   9.7680902  21.2587619  32.1343303
  10.7165039  21.0832644  33.3008194  10.3797054  59.4557095  51.4712381
  11.1649525  60.0021791  51.5026569   9.6698672  60.0674105  51.2758303
  49.3439341  10.1162446  59.3209743  49.0520144  10.9874260  59.0525389
  49.8028946  10.2617836  60.1482630  66.0513878  43.0310345   8.8847965
  66.0328674  42.6658297   9.7693944  66.5769148  42.4101210   8.3802891
  45.9840822  14.6822441  17.9791415  45.5920362  14.0169466  17.4135351
  45.2746630  14.9471462  18.5646164  16.1575234  27.4047637  68.2284212
  15.4935360  27.9982233  68.5793638  15.6948209  26.8932223  67.5647497
  53.8690186  16.4175236  44.3533230  53.8441849  16.0929859  43.4531593
  54.2859316  15.7136440  44.8502827  36.2001491   5.5879653   7.7701420
  35.5461168   5.0715834   8.2411242  36.9920039   5.5149531   8.3029336
  37.8564572  42.4218321   4.0381226  38.4490395  41.8436003   3.5577828
  37.9689288  42.1717548   4.9552065  77.5110435  49.7306824  55.5799055
  78.4057570  49.4951487  55.8253431  76.9899797  48.9601851  55.8058739
  62.7194500  39.4491529  41.1604261  63.5964775  39.2072582  40.8628750
  62.8711653  40.0280094  41.9075155  61.7511988  38.5737181  56.0599089
  62.4006796  38.5960698  56.7626953  62.0737219  37.9039192  55.4569340
  37.0919704  52.7173615   8.6554867  37.1389198  51.7642689   8.7305993
  37.1491694  52.8866100   7.7151072   2.5497910  56.1418962  32.2178531
   3.4254920  56.0498571  32.5932312   2.3921342  57.0859528  32.2063684
  65.3347683  60.0807428  59.3475103  65.7056236  59.9640179  58.4728241
  66.0140705  59.7595644  59.9404907  31.6719484  41.9775009  12.6193011
  32.3969221  41.3534021  12.6532209  30.9239936  41.4598036  12.3213363
  35.5363894  38.3510590  25.6545258  35.8426285  37.6951718  26.2808323
  36.3102102  38.8820553  25.4661798  16.9114399  34.7155118   9.4255966
  17.7333891  35.2038240   9.4723028  17.0241058  34.1278338   8.6784869
  -0.0072702  18.4831250  30.0180173  -0.2152683  18.5481548  29.0859556
   0.7582164  17.9095149  30.0531411  50.3580236  26.7378998  14.6717882
  50.0884438  27.3463535  15.3597879  50.1661062  25.8711910  15.0298631
  24.3139982  38.2118726  14.2808104  23.5265064  37.8130317  13.9106584
  24.8127794  37.4748135  14.6332181  79.5485258  27.0176768  67.9380798
  79.3156290  26.0936093  68.0280304  78.9070368  27.3672485  67.3195934
  37.3104739   0.3013545   5.5024481  37.6276326   0.7456671   4.7161725
  36.4984632   0.7571596   5.7240558   1.9160780  19.8334157  15.9684324
   2.2738302  20.7209992  15.9894419   0.9926295  19.9525797  15.7464540
  71.5112448  40.7779264  56.7266750  71.8450928  41.6725731  56.6604567
  70.8973360  40.8050776  57.4605751  47.8280735  11.1887598  14.3807733
  46.8776798  11.1195147  14.2902541  48.1704903  10.9102249  13.5314202
  61.9788837  60.5502844   6.8024606  61.9767952  59.6146822   7.0046389
  61.5167141  60.9549809   7.5365263  17.6477337  51.5363169  50.1959658
  17.2624528  51.0137653  50.8993340  18.0279076  52.2937298  50.6409597
  35.2168298  76.0992765  46.0503149  35.7115006  75.3060150  46.2559080
  34.3626618  75.7801628  45.7591152  14.4573641  60.9813166  57.9197788
  15.1615274  61.6253138  57.9949665  14.6138716  60.3701448  58.6396456
  53.0433321  58.9981079  11.0320723  53.9463711  59.1718721  11.2977016
  53.1035757  58.7914038  10.0994015   6.1531174  63.0510569  65.0461054
   6.4066303  63.9529085  65.2426386   5.9294754  63.0625153  64.1154671
  19.9364257  24.2593503  58.6014557  20.4938269  24.7762609  59.1831255
  19.5410347  24.9033260  58.0139256  10.3142989  77.1892881  34.4137907
   9.6514368  77.7488899  34.8183846  10.7726145  76.7884779  35.1523876
  52.8170252  46.2299252  12.4105358  52.1530485  45.6637621  12.8040183
  53.5027075  45.6286478  12.1197808  34.7255325  33.8499665  22.0869780
  35.2860951  34.6162939  21.9655657  35.3045177  33.1031251  21.9345522
  46.2259626   8.3433735  18.8719594  45.6399775   7.6043117  19.0351856
  46.3312912   8.7590659  19.7277260  44.6039724  24.8341537   6.0694569
  43.6659956  24.9212050   5.8995926  45.0223112  25.1316977   5.2615654
  13.5559177  44.6071577  35.5008650  13.3422494  43.7082148  35.7508135
  13.4441948  45.1126146  36.3060117   1.8751778  74.2687845  57.0961189
   2.5351518  74.9474001  56.9541836   1.4227960  74.1951418  56.2557840
  25.8725333  43.1784058  57.1232700  26.3136625  42.6095486  56.4923668
  25.7431746  42.6260471  57.8942394  75.8608961  74.0593004   1.9986393
  76.0881186  74.5566702   1.2129987  74.9753046  73.7373066   1.8304813
  75.4091454  60.4825592   6.6254675  74.8558950  60.1891232   7.3493719
  75.6479979  61.3805342   6.8553072  37.1657872  70.1731110  27.6186490
  36.8960500  70.3773069  28.5140681  38.0558896  69.8326731  27.7083850
  18.7985003   5.6651032  46.3529539  18.8017118   4.7101718  46.4187336
  18.7060392   5.9671146  47.2565413  47.8718424   5.6464684  41.4422226
  48.5004044   6.2466508  41.0410738  48.0682659   4.7960734  41.0491848
   2.5486866  62.6368952  63.9828157   1.8464062  63.1189394  64.4194698
   2.2164479  62.4775028  63.0993891  64.6088648  12.3898435  41.8821478
  63.7921286  12.1189761  42.3014450  64.9153280  11.6060948  41.4260244
  74.3426561  25.6594110  10.6342494  73.4608889  25.6630445  11.0066772
  74.8242283  26.3041401  11.1525571  27.5229812  63.4166908  52.2315073
  26.9216990  63.9595985  51.7216587  27.6040220  63.8714695  53.0698633
  76.2840621  78.5707884  47.7990532  75.8010928  79.0769929  47.1458101
  76.3666908  79.1621587  48.5471773  36.0551929  18.7561584  61.0671663
  35.8224607  19.5780897  60.6353140  35.2406621  18.4600902  61.4735079
   7.1123362  28.4241319  55.5877161   7.7421743  27.7036405  55.6084108
   6.2571746  27.9958987  55.6270361   5.0701374  33.1692910  19.1979039
   5.0029081  34.0354872  18.7961352   5.8558249  32.7851439  18.8088572
  52.8363991   4.9578184  61.0686827  53.7217045   4.9529254  60.7047462
  52.8403139   4.2541736  61.7176056  75.3245878  55.5479383  62.3312092
  75.8772802  56.2743092  62.0428467  75.4119730  55.5442286  63.2844019
  44.5004797   5.7773662   5.3506672  44.4959354   5.7418054   6.3071954
  44.7308826   6.6835475   5.1457709  69.0698004  31.6540718   1.4206897
  68.9306545  30.7179022   1.2776636  69.8909712  31.8460917   0.9678775
  45.5503750  12.9525924  40.4801989  45.2372837  12.7662277  41.3653421
  46.4788818  12.7208841  40.5008316  29.5165038  67.9062891  20.4162240
  29.7817588  67.0019293  20.2488804  28.6747336  67.9955864  19.9693680
  58.9141607  59.8415470   9.1690773  58.1373835  60.3955984   9.0924066
  59.2335081  59.7512388   8.2712507  52.4112177  13.6446261  48.3471680
  52.3909760  14.5475686  48.0301285  53.3301020  13.3862233  48.2756948
   6.1823380   1.0662497  49.4997406   5.3230900   0.9166422  49.1053534
   6.0429704   1.7904140  50.1099825   4.4979334  68.1404734  50.3759003
   5.2623773  67.6540279  50.6844950   4.8454037  68.7374210  49.7132206
  63.7136936  12.8911602  64.8842049  63.4054947  11.9970131  64.7367334
  63.6359072  13.0184305  65.8297157   5.1971227  69.2779922  30.7213569
   5.0587660  70.2180052  30.6053281   5.8602303  69.0512228  30.0693631
  32.8170204   6.7343616  64.7113466  33.4434843   6.0217834  64.8378706
  33.3222222   7.4237061  64.2802906  41.4705896   4.6400514  45.7607365
  41.7740488   5.3010309  46.3830280  40.5164289   4.6627668  45.8334875
   4.8546794  46.1048651   5.4435074   5.0037605  45.6773090   4.6001792
   5.5321783  45.7464027   6.0168600  67.2101593   7.0446038  59.1097403
  66.7341280   6.9358307  59.9330235  66.8013191   7.8043979  58.6952543
  75.9883547  16.0045278  45.5569315  75.2245283  16.5329790  45.3255510
  76.2689447  16.3477135  46.4052963  79.0985918  74.6123219  38.2638431
  78.3639097  74.0121460  38.3913636  79.4541645  74.3769693  37.4068666
  41.9443226   2.0690969  59.4762659  41.7510700   2.4143328  58.6046600
  42.8981209   1.9912037  59.4969702  21.7299843  75.0709009  50.0242138
  21.1686397  75.0249195  50.7981682  22.0314670  75.9790754  50.0006104
  56.3890266  30.7234740  56.9755411  55.4509306  30.5798006  57.1003056
  56.8079853  30.0767851  57.5434256   5.7120538   0.9237548   4.9817622
   6.2971455   0.3764318   4.4579905   5.0184274   0.3287139   5.2664381
  58.9672899  52.4446535   8.7735373  58.9740181  53.2203722   8.2127815
  59.6262693  51.8660498   8.3898759  74.4583321  60.3980446  56.3264132
  74.0896177  60.1963234  57.1864033  74.7893953  61.2921286  56.4114904
  69.0960026  42.3626089   9.4126397  68.5384846  41.7912579   8.8844657
  69.9724627  41.9873810   9.3274468   0.6334427  11.9844377  17.5732517
  -0.0743438  11.3669443  17.7575660   1.0126000  12.1770787  18.4307837
  42.9692030   2.7085477  10.8250904  43.3902454   3.1448945  10.0844419
  43.6863995   2.2731130  11.2858045  36.4620876  17.6082540  24.9421954
  37.0725274  17.7464986  25.6664085  35.9662867  16.8286216  25.1923656
  13.6288464  57.7119493  35.5912113  13.4034097  58.4889174  36.1028004
  13.8028455  57.0360422  36.2462735  74.9454308  24.1380763   8.3121967
  75.0403261  24.6392298   9.1221786  74.0838003  23.7274170   8.3841825
  71.6796064  71.4973211  12.1587062  71.0871887  71.0759592  12.7813864
  71.7175531  70.8927822  11.4175427  24.9640632  47.2210646  56.0884142
  25.5701256  46.7419672  55.5232716  24.5905972  46.5513468  56.6613293
  21.1455774  64.8332357  53.3994007  20.9266639  63.9031839  53.4569263
  20.3165698  65.2616882  53.1863070  18.4063244  58.5640430  64.2567587
  17.6619208  58.1747246  64.7155905  18.9298880  57.8153181  63.9712286
  68.0012083  54.8339176  65.4909611  67.9678106  55.7903433  65.4718018
  67.5581264  54.5626354  64.6870232  54.8888206  65.6516361  28.7379146
  54.7638559  64.8282099  28.2661247  55.7502365  65.9602928  28.4569716
  38.1831980  75.8236885  35.5487871  38.2762027  76.2835312  36.3831306
  37.6637244  75.0478220  35.7595277  57.7920389  12.1696389  54.1805887
  58.4904051  11.5804434  54.4658375  57.8950548  12.9467654  54.7298574
  28.5795403  28.0550909   0.9009789  28.7605762  28.7506413   0.2687864
  29.3421078  28.0528498   1.4795269   3.5352877  26.3572025  46.7383528
   3.8740602  25.6938076  47.3394966   3.1238255  25.8551860  46.0348511
  52.2527695  70.8635616   5.8611518  53.0115652  71.2288904   5.4061890
  51.5121269  71.0598707   5.2874428   6.1170721  69.6905708  48.9638233
   6.4455378  70.0074148  49.8052216   6.6741461  70.1176548  48.3130503
   9.8553550  15.4518664  63.7735271  10.4868114  15.0058460  64.3379354
   9.4048190  14.7443879  63.3123064  49.0436554  31.6292763  61.5048838
  48.1584978  31.3700056  61.7608261  48.9183617  32.1746540  60.7282925
  27.2226381  69.8115778  61.2731266  27.4090576  69.0271425  60.7572317
  26.4461017  70.1902962  60.8610630  30.1921558  20.6328630  26.6609263
  30.7954574  20.2969098  27.3237944  29.8010516  19.8495519  26.2740254
  16.2687337  50.3971291  48.0538702  16.8704033  50.7113600  48.7287664
  16.6688395  50.6727648  47.2291422  62.3131466  76.8683624  28.9134288
  62.7725983  76.0550976  28.7042999  62.6215553  77.4932480  28.2571983
   7.4590617  49.3282080   4.7500563   7.5930148  50.0545740   4.1412187
   7.1624815  48.6046076   4.1980809  11.4169872  73.0506182  32.0300889
  11.1410904  72.6110125  31.2258148  10.9168303  73.8666821  32.0406628
  15.1739132  75.7167625   3.9981788  15.3570628  76.6528177   3.9176366
  14.2185044  75.6599998   4.0124327  63.4186172  63.7382984  39.9523592
  63.5538864  63.5270500  39.0286112  63.1677151  64.6620274  39.9525595
  79.2686462  61.4323044  15.8328533  79.6410561  62.2634745  16.1273015
  80.0011730  60.9742546  15.4207563  51.4242744  77.7368402  24.9991965
  52.1648788  78.3320427  25.1152587  50.7770586  78.2510900  24.5166111
  55.4553461   5.0323164  60.2914190  56.0658836   5.7203031  60.5562735
  55.1899385   5.2760035  59.4046211  18.1780076  65.9073210  23.3392668
  18.5488617  65.7314396  24.2040014  18.5065055  65.1965475  22.7886987
  53.6738205  65.2740097   8.5028994  53.9521742  66.1862755   8.5836816
  52.7274275  65.2989674   8.6441445  42.0091438  33.7755466  59.3409681
  41.2006474  33.9923143  58.8766670  41.8569517  34.0721560  60.2382374
  35.9008098   4.7038209  48.5618353  36.7602563   4.3287778  48.3696699
  36.0217071   5.6472480  48.4543133  39.9498463  24.4836998  49.1389322
  39.9385142  23.5766816  49.4445848  40.7302618  24.5409393  48.5876560
  56.2751198  26.9175458  58.0649614  55.6606531  27.2569036  58.7157297
  55.8863354  26.0919309  57.7761078  82.2420025  50.0881386  56.4755154
  82.5297928  50.9740639  56.6958380  82.2125149  50.0768614  55.5188322
  16.1183679  24.3977809  33.7754059  16.2769842  25.3397632  33.8365984
  15.7835793  24.1547012  34.6385741  42.1023893  69.6547651  62.7804184
  42.5461674  70.0854063  63.5110664  42.1360064  70.2944803  62.0691776
  33.4214401  10.2771318  50.7831526  33.7768841  10.7679105  51.5241194
  34.0302467  10.4523969  50.0656128  55.0112581  21.9652796  56.8691778
  55.0406408  21.4740729  57.6902056  55.7924938  21.6833735  56.3933229
  63.9886045  51.3936758  60.7927179  64.3868494  50.9595346  61.5471411
  63.0974531  51.5974665  61.0765219  47.9755735  30.4108095  50.0952387
  48.8927078  30.4783130  49.8296356  47.5621414  31.1928558  49.7295713
  29.8988700   9.9856758  38.8518643  29.8608470  10.8029759  38.3550692
  30.5752802  10.1377976  39.5118356  11.3725305  69.4981718  56.2969017
  11.2832880  68.6323977  56.6952753  11.4223397  69.3252516  55.3567696
  75.2363205  61.8778658  15.6777000  75.5715275  61.5133190  14.8585713
  74.4888258  61.3223886  15.8989012  19.2022550  38.5937047  67.4288273
  19.7056484  38.0670357  66.8079853  18.6213386  37.9663944  67.8592348
  13.3918989  52.0551252  42.1939468  13.8293159  52.0097208  41.3437510
  14.1046691  52.0229292  42.8320360  19.1717196  59.7759247   7.4308628
  18.8433230  60.6220102   7.1266848  19.3651378  59.9134111   8.3581805
  54.6381474  21.8692279  50.4309320  54.9062967  21.2609935  49.7421789
  55.3144360  21.7834139  51.1028719  67.9540586   8.6150390  63.6880922
  67.5262499   7.9963678  63.0960989  68.8361883   8.2626885  63.8061142
  39.1186070  71.0565186  53.1069279  38.3127165  71.0101032  52.5925207
  39.1131806  70.2570295  53.6332512  78.1295061  78.9110804  18.9555836
  77.2447062  79.2664766  18.8715959  78.1784248  78.6015320  19.8600268
  41.2660551  19.3532336  15.8544135  40.9757900  20.2274394  16.1146867
  40.6615973  18.7582064  16.2980449   6.3718790   5.4415876  53.0230570
   6.6936994   5.6022882  53.9100981   6.1124599   6.3053071  52.7022409
   5.1130545  61.3134050  18.6471701   4.9418116  62.1258450  19.1234553
   6.0655820  61.2847614  18.5571504  51.5167999  77.3897314  66.8366861
  52.0153236  77.7884865  67.5499153  50.8063745  78.0081320  66.6660690
  55.4440737  26.6818118  41.8977070  54.5670033  26.3009953  41.9419909
  55.6688690  26.8720078  42.8084898  28.8797665  41.4844608  12.1472156
  28.9361811  41.6720676  11.2102783  27.9452205  41.5397596  12.3467088
  16.6268981   8.9917040  30.7978463  15.7099736   9.1661423  30.5855894
  16.6310990   8.0898750  31.1186576  37.6273823  61.3126040  25.3622818
  37.1372533  62.0933104  25.6201601  38.0527043  61.0197401  26.1682391
  63.3363152  48.8372993   4.6309015  63.1666183  48.6331320   5.5505484
  63.4400654  47.9833174   4.2111629  32.6393056  20.5913663  46.0072470
  32.0980287  21.2817311  46.3901901  32.5363183  19.8485613  46.6021109
  40.8803558  72.9364777  10.8692884  40.6989050  72.1941423  11.4457011
  41.6512537  72.6685238  10.3691411  37.5866485  10.7918811  45.4799891
  37.5278091  11.1338329  44.5878935  36.7770481  11.0807478  45.9011030
  43.0005836  38.8663864  20.3014660  42.4374485  38.5397172  19.5997536
  43.8253260  38.3944654  20.1860094  31.9998407  10.9745455  40.4743576
  32.1850491  10.1038957  40.8263493  32.8591585  11.3887680  40.3954649
  12.4180663  35.5353808   8.3639854  12.9585481  34.8948240   7.9016006
  11.5801430  35.5201125   7.9015106  59.2309093  53.4402180  35.3355742
  59.8539686  53.6871862  34.6521711  59.7668266  53.3352757  36.1217117
  15.0354576  56.5071821   2.2861375  15.6223154  57.1095753   1.8290246
  15.5352449  55.6939554   2.3576380  44.3313265  54.5515299  17.7403557
  43.8306570  55.2643156  18.1372142  45.1187801  54.4824648  18.2801497
   9.3782145   8.4982920  46.6819286   9.5180768   9.1658074  47.3535633
   8.5309041   8.7205994  46.2960815  76.1810923  71.8060875  -0.0563579
  75.6804800  71.0262442   0.1833569  76.7007542  72.0058250   0.7222861
  28.2165885  31.4376545  64.0734911  28.2429743  31.1610198  63.1575203
  27.2891402  31.4025450  64.3076706  79.3319225  53.1462622  16.2426674
  78.4322023  53.4498119  16.1218607  79.6098852  52.8676224  15.3701258
  35.1549649  51.4577723  35.6257987  35.6311727  51.8364668  34.8868489
  35.4169631  50.5371523  35.6330967  68.0525970   5.2566689  54.1527653
  68.5530186   6.0324043  54.4058323  67.3167658   5.6009519  53.6465502
  55.1718950  34.9832249  48.7176132  55.2453566  34.7624707  47.7891159
  55.2013588  34.1389084  49.1675997  76.6787958  62.6767206  62.8961182
  75.7748032  62.5286770  62.6184273  77.2094965  62.3301411  62.1788549
  59.9473858  42.0632648  44.7242403  59.6153545  42.0468855  45.6218576
  59.2937660  41.5805817  44.2182446  32.0352125  11.8845630  43.4618425
  31.6703773  11.0883522  43.8480759  31.6868520  11.8997049  42.5704145
  57.2147465  41.0349083  61.5848923  56.8662453  41.7615986  61.0684681
  57.9687786  41.4064217  62.0427656  28.8550544  19.8472917  51.9517183
  28.6815691  20.4958344  52.6340151  29.7506356  19.5550108  52.1212435
   7.1749234  42.9834843  22.7089739   6.3194853  43.4000254  22.8136301
   7.2977424  42.4827003  23.5154247  71.1933851  68.3966112  27.4711132
  72.0079756  68.5692263  27.9432201  70.7909441  69.2585564  27.3647356
  24.5193076  70.3237104  51.3181210  24.5271850  70.8050394  52.1454620
  23.6005497  70.0901031  51.1856699   4.0904486  69.4077682  45.0065660
   4.1876736  68.4817934  44.7844219   3.5840443  69.7758913  44.2824984
  72.0195675  64.4555855  17.8495479  71.8474817  65.1188326  17.1811736
  72.8494596  64.0586805  17.5850308  84.0287489  60.0016689  25.9225059
  83.7105999  60.4357481  25.1309347  83.5070042  59.2014456  25.9830070
  19.2752957   1.2663065  42.2278595  18.4582675   0.8558010  41.9446993
  19.2967069   2.1028000  41.7630482  29.9266410  54.8040724  45.6274891
  29.8431659  55.5351448  45.0152779  30.8561349  54.5766783  45.6036854
  31.0896826  15.6685686  59.4341230  30.1833582  15.3666854  59.3735075
  31.3802004  15.7383919  58.5247517  55.3213882   9.2917246  56.9785929
  54.3908405   9.2669129  56.7556620  55.7482195   9.6229625  56.1884499
  72.4805737  15.3326130  27.7787948  73.2491636  14.7984791  27.5782800
  71.8311024  14.7068763  28.0995369   8.0144221  36.9785237  12.8442395
   8.8336968  37.3279572  12.4936426   7.6355785  37.7059007  13.3378327
   8.4926909  29.4745827  47.2607756   7.9286158  29.3505502  48.0241060
   7.9708451  29.1581106  46.5233803  36.5448284  22.1892047  31.6405964
  36.1719346  22.9989243  31.2919736  36.7268491  22.3855615  32.5595880
  23.2733989  27.7396798  52.7530289  22.9688239  27.5034165  53.6291838
  22.5193620  28.1640458  52.3436737  50.4857302  44.1906071  61.3476372
  50.9771299  43.7194061  62.0204830  50.3466415  43.5440254  60.6556702
  25.6243539  14.3036199  36.9679260  26.2751293  14.7056031  37.5433636
  25.4258466  14.9806595  36.3210535  26.6225910  77.9921293  50.7448721
  26.6523838  77.0382357  50.8185244  26.6051745  78.1591702  49.8025227
  75.5875492  69.2751694  64.8436022  75.9728622  68.7139654  65.5165195
  75.8919382  70.1557589  65.0630093   5.4615742  22.0484400  49.0124607
   5.9035057  21.7391920  48.2217026   6.0968238  21.9042206  49.7138071
  59.8734426   9.6683091  38.4389067  59.4000864   8.9310944  38.8244987
  59.1950607  10.1916409  38.0121136  40.3320980  15.7825470  48.4196663
  39.7077441  16.2606347  47.8739119  40.7678747  16.4609575  48.9355040
  32.8110409  30.3432608  35.9558487  33.7139559  30.0314260  35.8947229
  32.8544521  31.2584639  35.6788039  13.6852348  77.6698637  50.7294798
  13.0010343  78.1688166  51.1757421  13.2965529  77.4296808  49.8883677
  23.8159776  17.2119033  48.0703115  24.3393207  17.9310238  47.7164650
  22.9119229  17.4497867  47.8645706  48.9326143  28.4621310  59.0119505
  48.6464071  27.5619245  59.1666889  49.5447636  28.6447167  59.7248125
  39.6445584  77.6222849  42.6642656  39.8114038  76.7815018  42.2382641
  40.2332783  78.2350492  42.2236300   5.7023931  10.2661943  48.4203577
   5.3830051  10.2525735  49.3225956   5.1824576  10.9464979  47.9924726
  47.7686596  26.0910916  58.6848021  48.0042124  25.3776288  59.2778587
  46.8230724  26.0015702  58.5661030  39.4325042   8.5291082  27.9208851
  39.3051553   9.4773591  27.8920102  39.3989754   8.3111978  28.8523483
  64.8790836  35.0721097  54.0709686  65.2437067  35.0149179  53.1877851
  64.4599342  35.9321070  54.1018152  59.8809004  48.2175732  58.3392191
  60.5637169  47.6701403  58.7269163  59.8338413  48.9831829  58.9118052
  66.6694403   6.9895428  43.7315702  66.7490005   7.8365463  44.1703033
  66.6780901   6.3494420  44.4432116  74.7313261  41.6292715  29.8163700
  75.5783844  41.9504929  29.5072651  74.6072626  42.0576954  30.6632996
   8.2249016  18.2045722  24.7928190   7.4810231  18.1167257  25.3887725
   7.8388488  18.5071683  23.9708495  36.5469050   1.5790695  12.8646028
  36.9232869   1.5637676  13.7445664  37.1236825   1.0167037  12.3475885
  61.9749689  21.4267969  43.1561041  62.4362135  21.8751121  43.8649750
  62.6708889  21.1093092  42.5806665  32.0755768  25.3418231  36.5536404
  31.3628650  24.8844481  36.1074567  32.0091748  26.2460256  36.2466502
  54.1011524  35.8908582  61.0032511  53.4535360  35.2337551  60.7482195
  54.0112114  36.5827394  60.3479338  35.7861018  72.9004383  11.4668989
  36.5696621  73.0522442  10.9384859  35.8324432  71.9740629  11.7033470
  75.1891756  48.3638144   0.8415031  74.7047567  49.1888905   0.8129179
  75.8504200  48.4977007   1.5205190  78.6323166  22.1588469  64.0027237
  78.3705425  22.6913714  64.7538042  79.4768953  22.5211215  63.7349892
  44.6530962  29.1125488  18.5343170  44.0596104  29.1835737  17.7866781
  44.2874575  28.4039664  19.0638947  24.1504693  28.2038379  25.7239652
  24.0692830  27.2813320  25.9660912  23.3098388  28.4204912  25.3206873
  83.3451080  29.9124885   3.4765086  84.0616512  29.5801711   4.0172088
  82.8824139  30.5286670   4.0443760  63.7260008  73.2385635  17.2611463
  64.5440292  72.7426147  17.2280145  63.6969948  73.5936356  18.1495786
  22.6686430  50.6907034  53.5938025  23.4761596  51.0935116  53.9130068
  22.1784663  50.4754210  54.3872833  28.5598993  12.5523424  54.7150469
  28.8393712  11.6389477  54.6530962  27.7495766  12.5209141  55.2235937
  23.8315725  47.6664352  53.4190893  24.1603065  47.2234726  54.2013597
  23.5297775  48.5180759  53.7350845  19.2675734  28.5753322  60.2128363
  19.9272549  29.0957427  59.7543335  19.7731566  27.9975796  60.7845163
   4.6845990  35.8492970  58.0953169   5.5479836  35.8539557  57.6820612
   4.6483180  36.6718149  58.5835552  38.1079721  68.5400629  32.4975419
  38.9699578  68.1243849  32.4769092  37.7306676  68.2676649  33.3340073
  48.1698847  54.4741297  29.4285917  47.9482031  54.6826267  30.3361273
  47.5037766  53.8420105  29.1584849  64.3045378  66.1373901  13.4963822
  63.4014177  65.8697939  13.6666656  64.7213697  66.1356783  14.3580568
  82.3436260  75.6221247  24.1791177  82.8809452  76.0361958  24.8544478
  82.3449516  74.6927929  24.4084001  13.2667935  13.3115947  38.6535573
  13.5489833  14.2247999  38.7050986  14.0729499  12.8203642  38.4953284
  69.3759584  24.9264908   2.6366642  69.0792704  24.3067241   3.3030725
  70.1879025  24.5466971   2.3009092  55.0150967  27.3609710  63.0648661
  54.2569208  27.8866553  62.8098011  55.7703066  27.9006886  62.8312063
  21.5359998  64.3586540  66.6210461  21.9039726  64.6759701  67.4457502
  20.9678769  63.6317730  66.8762207  23.7755179  34.8210025  29.5832896
  23.9314032  34.7286439  30.5231833  23.0233073  35.4097748  29.5219803
  41.7044640  17.9281318  32.1580362  42.2064257  17.1736026  32.4661756
  41.6120434  18.4859204  32.9304099  13.7502694  61.8559217  46.4473009
  13.2270932  62.2227049  47.1600342  13.1478322  61.8147707  45.7045984
  72.0388603  59.1777134   4.8550212  71.7549181  59.2377281   3.9428762
  72.9401445  58.8592815   4.8048535  77.4808836  26.1708426   9.6091092
  78.3511400  26.0293388   9.2364722  77.2114420  25.3076100   9.9228984
  69.1114283  27.5952888  49.0032244  68.1779385  27.4524546  49.1595316
  69.4577074  26.7243791  48.8087034  43.3946562  24.7429562  34.3537426
  42.8599024  24.5386481  35.1208997  43.4571028  25.6981158  34.3528032
  77.2845030  34.1313148  48.7978840  77.7227116  33.3940244  48.3729029
  77.4697638  34.0152192  49.7297812  28.9326167   4.8311558  30.2070332
  29.1333675   4.6287915  31.1208057  28.0065966   4.6089512  30.1103711
  75.4399014  55.6572151  11.0078752  75.3964853  54.7209072  10.8137691
  74.8849535  56.0655546  10.3434038  63.5081673   0.0891108  43.4110737
  62.9257965   0.8133885  43.1819391  63.5458851   0.1054433  44.3673897
  62.7555990  32.1447730  49.2449760  63.3581018  32.1153021  48.5017729
  62.4655628  31.2391376  49.3542385  78.0447245  75.7980108  10.6843781
  78.3263254  75.5766869  11.5720439  77.9821157  76.7531586  10.6841159
  23.8009667  20.5407810  60.5459976  24.6286392  20.0704336  60.6458044
  24.0059042  21.2627673  59.9518824  71.2355328   0.6189676  32.4950480
  70.8511400   0.4101522  31.6436553  70.8615685  -0.0290418  33.0920959
   1.1448862  40.7793427  50.8301735   1.3357161  40.0526667  51.4232588
   0.7818709  41.4610243  51.3956499  78.4093046   2.4837399  49.8958969
  77.7657700   2.6709828  50.5792904  78.9764118   1.8139321  50.2779722
  21.6453314  72.8369379  52.8760052  21.0402536  72.9132700  52.1382475
  22.0689726  71.9876766  52.7514362  51.8733311  33.6870694  51.0875845
  52.0675230  34.5219278  50.6615162  51.9592285  33.0367279  50.3905106
  27.7692389  76.6568899  36.0509396  27.2069359  75.9356213  35.7684159
  27.2694325  77.4461269  35.8422899  63.8182068   7.4560362  62.9515028
  63.5838747   7.2637594  62.0435667  63.3602476   6.7893505  63.4633970
  63.0105495  38.0608988  50.9266043  63.8633442  37.7698874  51.2495470
  62.6675224  37.3084760  50.4445076  43.9993668  33.6825037  65.3480101
  44.5812416  33.4440565  66.0696745  43.6454439  34.5360923  65.5977297
  66.0202599  35.8403921  39.7996378  66.8796206  35.6908154  39.4054818
  65.4018974  35.4530907  39.1800761   8.4066087  73.4558105  21.8092585
   7.7222878  73.7240219  21.1960721   8.5987234  72.5486183  21.5719295
  67.2240496  60.0108719   0.7438367  67.2433519  60.6278944   1.4753735
  66.4071751  60.2081919   0.2855661  12.7703094   3.9866737  43.6740398
  13.3765817   3.3976799  43.2248735  12.1903074   3.4045514  44.1649199
  73.2836628  38.1903672   3.6367446  72.3598671  38.4334278   3.5754651
  73.4331369  38.0510139   4.5718753  64.0870762  26.4158988  42.3207951
  63.5060263  26.1034155  43.0143166  64.4222784  25.6181312  41.9116068
  54.3795204  66.1622763  45.1196909  54.1307354  65.5941820  45.8488035
  55.2342987  66.5128422  45.3700638  68.9142036  35.0332236  39.5911765
  68.9092350  34.1766095  40.0182819  69.6700478  35.4841137  39.9675155
  56.9379616  29.0041924  62.1373558  56.9807768  29.3616247  61.2504292
  56.7334414  29.7585297  62.6899719  38.2751131  44.2713642  17.3308158
  39.0503430  44.0113688  16.8331683  38.3657360  45.2182198  17.4379861
  68.8594961  58.1986332  52.1346140  69.6415567  57.9069281  52.6031446
  69.0305233  59.1184902  51.9325161  21.0520339  19.7942519  50.4083538
  21.4146948  20.0549412  49.5617437  21.4491940  18.9418113  50.5868006
  70.4995155   4.1602448  24.1308451  70.9736204   3.6003375  23.5160613
  69.5858669   4.1031551  23.8511658  15.0421631  31.4047265  66.6204309
  14.3522537  31.7611694  66.0607815  15.3482056  30.6254268  66.1564636
  71.3743591  67.7929640  66.9225264  70.6873226  68.3430815  66.5462637
  71.8589878  67.4637318  66.1655760  72.8742599  43.1908321  11.1615789
  73.1732273  42.4221992  10.6757224  72.5656414  43.7955713  10.4868364
  35.1957941  68.1902456  26.3267779  35.7172799  68.9838076  26.2062025
  35.8409333  67.4847984  26.3754964   9.6044701  74.7237635  10.7298803
   8.7380373  74.5491314  11.0973454   9.8704058  73.8920450  10.3377628
  65.4333925  68.5171652  67.4232244  66.1664915  67.9068518  67.5026703
  65.2539253  68.7941885  68.3217144  78.7819004  13.3224404  47.2356844
  79.2907667  13.6761129  46.5061569  77.9252386  13.1253505  46.8568468
  16.8375528  10.9479272  57.8897285  15.9945834  10.7658947  57.4743986
  16.6113448  11.3986528  58.7033033  38.6009669  20.0329328  46.4273977
  39.5008469  19.9667680  46.1079121  38.1999326  20.7049680  45.8762407
  68.6436033   1.5293325  63.5173798  69.4192648   1.8244810  63.0404472
  68.3881664   2.2831343  64.0491390  47.3240852  70.2423477  57.6022053
  47.8041506  70.0271082  56.8025589  47.4009943  71.1933517  57.6790953
  64.1241074   9.0532041  36.1176777  63.2105970   8.8827622  35.8881593
  64.5618057   9.1849101  35.2766633  75.4192209  11.5290046  51.8404007
  75.8779192  11.7976046  51.0443592  76.0126877  11.7700183  52.5516987
  53.2556486   9.5544159  52.3532677  53.9260387   9.2945093  51.7213964
  52.5048065   8.9970720  52.1487379  37.9317260  11.3417661  48.2654238
  38.6972094  11.9151902  48.3035278  37.8224349  11.1497450  47.3340702
  73.7339878  23.3694839  54.6947241  74.6568012  23.2563257  54.9224138
  73.2893705  23.4644747  55.5370522  58.7444067  69.9864244  48.1931400
  58.3435917  70.2088165  49.0334463  58.9705038  70.8314610  47.8045130
   9.7403830  71.9183493  16.5958667  10.3188467  71.1616421  16.5009928
  10.3192186  72.6752377  16.5047288  26.9496822  28.2151842  61.8961287
  27.3178506  29.0897894  61.7706251  27.2278595  27.9622674  62.7763987
  13.5089016  29.6410823  46.5380955  13.5377073  30.1705146  45.7411623
  12.6333380  29.2542768  46.5371561  79.2484188   1.8252634  12.8481662
  78.7023306   2.3428598  13.4398723  79.3946457   1.0026548  13.3152461
   0.4132603  71.7880774  13.1006718  -0.5002549  72.0372343  12.9605186
   0.7102271  71.4759302  12.2459149  57.9274273  16.5981734  64.6700907
  58.2640791  17.2804368  65.2509642  58.6773682  16.3538420  64.1277552
  56.7350101  45.4696417  67.5087786  57.2303009  45.2857828  68.3069706
  57.2567511  45.0789261  66.8078041  77.0061779  18.8255441  51.5760756
  77.7599001  18.8308668  50.9860659  76.8267584  17.8975141  51.7270708
  33.0003214  62.9077578  65.8527946  33.1260514  62.0316029  65.4884148
  32.8013396  62.7565908  66.7768002  59.4103432  13.1379330  65.3945255
  60.0975275  13.7838769  65.2309275  59.6576405  12.7301133  66.2244415
  67.2886944  13.2927394  50.9113693  66.5301037  13.1358278  50.3491020
  67.9868269  12.7642155  50.5247116  44.2856550  20.9582281  31.0910225
  45.0512791  20.3865719  31.1481619  44.5463514  21.7546606  31.5535855
  64.1033077  45.2974272  57.6949358  64.9527931  45.0521469  58.0615950
  64.1511345  46.2481833  57.5948763   4.2363840   3.5667804  45.7222843
   4.1540927   2.6338232  45.5246687   4.0185335   4.0058783  44.9001122
   5.1532978   0.2613558  34.0971160   4.2163405   0.4562972  34.0786481
   5.2617300  -0.3224011  34.8479176  50.7473040  21.4407921  60.3488016
  50.6704807  20.4904151  60.2644587  50.6718016  21.7676854  59.4523239
   0.4759587  58.4520626  30.9574461   1.3450173  58.8257027  30.8112955
   0.0605030  58.4675360  30.0952482  13.7821662  28.7566471  59.4331980
  14.7321677  28.6407614  59.4504976  13.4390438  27.9909062  59.8937798
  64.1344547  40.1770258  53.4760284  64.4296360  40.5124998  54.3225241
  64.3777847  40.8590555  52.8500462  42.7268934   3.4153664  43.5902691
  42.1358728   3.8014656  44.2366838  42.6597548   3.9924368  42.8295326
   0.8017465   2.0936602  50.3356695   0.8645726   2.6099801  49.5321178
  -0.0718786   2.2860172  50.6762743  48.0568027   7.8034431  58.0562162
  48.7825727   7.3609835  58.4963512  48.4758902   8.4801114  57.5245047
  40.6542635  30.3394485  43.1777430  40.4544210  31.2590003  43.3530045
  40.6288004  30.2664399  42.2236681  55.8652544  18.5813868  44.3816996
  55.6195450  19.2152083  45.0555897  55.0905180  18.0287337  44.2788076
  83.1303692  26.6607118  26.7254353  83.8560486  26.7696762  27.3400426
  82.7816391  27.5442934  26.6075110  75.0287962  46.1890745   8.8321012
  75.4718018  46.2536144   9.6781588  74.9899006  47.0905828   8.5127234
  35.0055194  50.8741093   5.1970530  34.5444536  51.0669279   4.3806762
  34.7941136  49.9588680   5.3811049  75.7748652  54.7158289  17.9357755
  75.3538656  53.8569641  17.9724574  75.6257534  55.0175858  17.0397079
  55.4360247   0.4485182  48.0305481  54.9898005   1.2787268  47.8636026
  56.3670397   0.6706156  48.0198097   2.8839320  39.1815758   7.8931272
   3.3475944  39.2630529   8.7265605   3.3624905  38.5020947   7.4182379
  68.8022137  29.3680668  38.2913303  69.5934010  29.3164825  38.8276076
  68.6182451  30.3051043  38.2253766  65.7212687  25.0421214  60.5423021
  64.9415016  24.4872618  60.5242348  65.9363604  25.1227665  61.4715290
  83.1901836  26.5333581  52.4389601  83.3859158  27.4703217  52.4433422
  83.2420826  26.2821436  51.5167713  51.2834024  42.2903585  15.4165912
  51.5533876  43.2043171  15.3270388  51.5443754  41.8815660  14.5913565
  81.0538292  25.3052163  25.5656362  81.4316368  24.8790336  24.7963119
  81.7396736  25.8986664  25.8716965  62.2880077  44.3605804  49.1233683
  62.6966667  45.0714970  48.6295843  61.3891220  44.3274546  48.7960434
  11.1784875  25.6224108  14.9598515  11.1618209  25.0889921  14.1652334
  10.3124249  26.0286260  14.9938452  32.8628778   0.1785268  61.2360048
  33.1208014   0.9389344  60.7149601  32.3591375   0.5456539  61.9624329
  82.5865173  31.6905379  28.5931611  82.3996353  31.1955619  29.3908477
  83.4101868  32.1415520  28.7785840  55.9514141  33.4994698  57.7008009
  55.6597233  33.9299631  56.8971682  56.6597700  32.9206729  57.4189234
  70.0387144  22.4655056  55.7531738  69.3805075  23.1292009  55.9593391
  69.6140575  21.8990517  55.1089430  16.2595665  53.3207655   9.6687686
  16.3290751  53.8982630   8.9085740  17.1664643  53.1395912   9.9156415
  78.1636572  29.3128014  58.1298447  78.3552933  29.8291135  58.9127398
  77.4089146  29.7487855  57.7342272  12.8267193  77.0352316  33.1209183
  11.9659650  77.0977640  33.5349536  13.3162105  77.7788830  33.4725046
   9.3966538  26.4254904  35.6518459   9.8603576  26.8307257  34.9190450
   9.2516595  25.5213666  35.3729749  73.9312553  26.0028005  48.1694794
  73.1435204  26.3360143  47.7397394  73.6854696  25.9222889  49.0910769
  82.3963833  73.2748842  25.3405809  82.7988625  73.7413073  26.0731745
  82.9776669  72.5311613  25.1817989  15.7736051  17.0025659  11.8969488
  14.8894465  17.0955312  12.2517061  15.9159315  16.0570168  11.8532073
  18.2022119  73.6978722  48.2165098  18.3421946  73.5091496  47.2885990
  18.5541940  74.5797729  48.3373165  42.0625019   7.0518780  56.9470978
  43.0082273   6.9067574  56.9749594  41.7699146   6.5757561  56.1699677
   0.0561489  25.8207560  40.4855204   0.7119531  26.2264729  41.0525703
   0.4829513  25.0313902  40.1523924  21.5370107  58.3490944  47.5475693
  21.9620037  57.7362204  46.9475698  22.0233488  59.1663980  47.4393129
  38.5917234  27.9256201  56.3489723  37.8324008  28.2688355  56.8199921
  39.1440916  27.5436378  57.0310354  42.6474190  72.1736670   8.6181360
  41.8645954  72.0434856   8.0829102  43.2889509  72.5511837   8.0163449
  49.0861225  11.6371858  63.4295845  49.8509789  11.8924773  63.9453888
  49.3888998  10.8982027  62.9018879  37.4866629  13.1732392  51.0516357
  38.0292821  13.8094366  51.5175200  36.9995356  13.6952269  50.4140854
  66.4272738  78.4925127  28.5100603  66.3317966  77.8517675  29.2147326
  67.3075199  78.8494062  28.6285019  39.6430373  30.8669686  57.6679754
  38.9730740  30.1933908  57.5510359  40.3960609  30.5442953  57.1729279
  14.0017915  36.8894482  22.7279019  14.5765722  37.0110536  23.4835935
  13.5626042  37.7334213  22.6227593  83.4557724  26.3148403  49.7271490
  82.8054428  26.7060494  49.1438341  83.7594604  25.5366826  49.2597294
  11.3086152  78.0447102  29.5036125  10.5615032  77.9679775  30.0970507
  11.7923236  78.8057518  29.8246598  70.8239651  56.5948868  17.8691316
  71.3050270  56.4440584  17.0554626  70.0365639  56.0571432  17.7850401
  30.1653981  75.7850122  52.3428202  30.6362057  75.2895594  51.6726732
  30.8010960  75.8954573  53.0498743  72.5895071  41.9777155  63.2129192
  73.1048727  42.2823811  62.4660540  71.7404127  41.7432690  62.8383398
  40.8811569  43.7061167  64.5069170  39.9571109  43.5682821  64.2986488
  41.3246918  43.6768627  63.6591816  63.6233759  16.8823624  56.7249298
  63.0342293  16.2299263  57.1036959  63.2771635  17.0360482  55.8458662
  72.7921152  21.9509697  49.5783615  73.4677696  21.2954473  49.7516108
  72.7103138  21.9643664  48.6247587  20.8017802   0.3989976  30.9411287
  21.3742375   1.1563114  30.8186531  19.9221826   0.7325596  30.7642794
  63.5520840  74.9052048  19.4417524  64.1652918  75.1373005  20.1391339
  62.8236532  74.4805622  19.8948467  54.3532705  10.9961712  62.0856333
  54.4552946  10.0950396  62.3918772  54.4021416  10.9319782  61.1318398
  80.7311440  74.3337011   2.9779294  81.1282921  74.6307087   3.7966412
  81.0374260  74.9600554   2.3221052  11.0025024  37.3927498  38.3513403
  10.8725870  37.7470636  39.2310071  11.1537468  36.4577484  38.4896564
   4.5646709  17.2964907  50.8714247   5.4949665  17.4486971  50.7052422
   4.5433336  16.5002966  51.4023209  17.4696982  10.4468095  41.3909483
  18.3567011  10.7588851  41.2118769  16.9864154  11.2324977  41.6466093
  44.2048883  12.5110698  30.0656986  44.0219688  11.6104758  30.3334737
  43.5878229  12.6792181  29.3535304  50.1391792   9.7321808   3.5118905
  50.3111076  10.3168178   2.7737367  50.9996700   9.5804763   3.9027506
  26.1404562  53.6611462  42.4857759  25.2627397  53.6819696  42.1044445
  26.3552833  52.7300406  42.5416756  48.8667488  17.1044159  55.7961464
  48.0312061  17.5714171  55.7992697  48.9498234  16.7561936  56.6838837
   1.6304989  16.0311937  66.2188911   2.2940117  16.7051971  66.3662100
   0.8071063  16.4450598  66.4776802  24.8946786  71.0141182  34.1913819
  25.8283758  71.2120771  34.1189027  24.8266745  70.0895214  33.9532065
  17.7847064  28.0746889   4.2586434  17.9712617  27.2191882   3.8719341
  16.9398820  28.3269072   3.8859648  22.0733047  23.7586212  64.2973614
  22.6438737  23.1060553  63.8913631  21.9945121  23.4744811  65.2080154
  64.2788649  65.9984350   4.0140626  63.5369349  65.8508778   4.6005780
  64.8085260  66.6596699   4.4595492  57.8999519  18.3119428  35.6613064
  58.3755302  18.4867620  36.4734006  58.5573387  17.9381609  35.0744820
  46.9341803  23.9105535  62.6608658  47.3930931  23.4409618  61.9643593
  47.2126722  23.4755921  63.4667683  22.5911927  56.2441969  30.3360152
  22.8692102  55.3934526  30.6753874  22.4765706  56.7873049  31.1158395
  70.5583096  36.4017987  32.7925420  70.4380035  36.4601040  33.7403584
  70.0596619  37.1398234  32.4419665  16.6486919  58.3656311  16.3247859
  16.1043620  58.0836535  15.5896497  17.3525620  58.8731670  15.9207952
  25.3480816   4.3419477  13.1426907  26.1758494   3.9685965  13.4454107
  24.8835325   4.5772576  13.9458442  36.7383409  13.4654129  23.8643885
  36.6797018  13.1069779  22.9787707  36.7625165  12.6958680  24.4331145
  48.7127209  32.3212123  58.4315681  48.0387831  31.6883135  58.1836271
  48.5658550  33.0675054  57.8504419  70.8408833  63.6315536  13.6071038
  71.6992235  63.2079792  13.5985935  70.5532885  63.6083603  12.6944232
  32.6876545  75.0995445  37.9495263  32.6958776  75.2793455  38.8896513
  32.9402733  75.9293509  37.5447536  18.6281832  63.4465973  -0.0963133
  18.9685352  63.2915155   0.7847912  19.0693672  64.2449920  -0.3864067
  78.4322023   9.8120147  65.0458145  78.8301992  10.0029433  64.1964769
  77.7424192  10.4689193  65.1401854  52.6002169  19.4999552  57.7206373
  52.0957327  19.1846561  58.4705162  53.2582760  18.8208961  57.5720978
  80.2647495  13.5447180  60.0370359  80.3061295  12.6636171  59.6653128
  80.5176067  13.4303081  60.9531164  27.6597857  23.0244875  41.2137032
  27.4680257  23.1099033  42.1475983  28.5409641  23.3853769  41.1161423
  70.5755329   1.4849772  53.3452082  70.5521917   0.6127127  53.7387085
  69.7206974   1.8634254  53.5507822   3.6401337  42.4947405  21.8812561
   3.7911218  41.5881443  22.1486807   3.7613359  42.4877357  20.9317851
  56.2304926   7.2445780  61.3983679  55.5703354   7.6163810  61.9833326
  57.0165730   7.1719956  61.9397068  55.6046391  59.4848013  12.0158577
  55.8222198  59.0633059  12.8472602  55.5478382  60.4166126  12.2273719
  79.3724918  69.1442537  41.1086750  78.4520149  69.3961239  41.1829519
  79.3508673  68.1990051  40.9594440  62.2746515   2.4199191  43.2052422
  61.9722986   3.2363302  42.8073835  62.2553253   2.5908214  44.1468620
  58.2538539  78.9557637  33.4468412  58.3431044  78.0366133  33.1949902
  57.4262416  79.2325853  33.0535722  28.1746483  34.0929651  64.5293760
  28.2587171  33.1849480  64.2384005  28.1190753  34.5998859  63.7193298
  25.0546765  72.5263643  38.7634039  24.6905875  73.4096527  38.7044501
  24.3352675  71.9928122  39.1010427  71.1466980  43.3908558  17.1978676
  70.5637026  42.7701187  16.7607963  72.0166969  42.9999447  17.1171236
  24.8989296  67.5215626   1.7080596  25.7643652  67.5967455   1.3060659
  24.3233848  67.2581053   0.9900279  62.7413034  40.8630466  46.0803556
  63.0521441  39.9701190  45.9310532  61.7895222  40.7789183  46.1374760
  13.8925457  12.8642809  52.1333075  14.5847893  12.3954558  52.5993919
  13.3306420  13.2120562  52.8258038  16.6353512  40.9012747  66.2272978
  17.5039828  41.2769175  66.3708353  16.5327775  40.2595901  66.9301176
   3.7701973  31.6635394  62.3141479   2.9212064  31.8785858  61.9278812
   3.8440517  30.7141709  62.2168064   4.4435698  38.7008762  25.1320815
   5.3244275  38.6690116  25.5053186   3.8679427  38.4514594  25.8550453
  56.4610624   6.8840957  64.9273252  56.1887312   6.2953472  64.2234468
  57.1876764   7.3832726  64.5543861  59.1468096  50.8835173  58.7411118
  58.5335350  51.6144800  58.6648035  60.0113630  51.2873554  58.6657047
  57.4732494  56.5970993  55.6997728  56.5560913  56.4578295  55.9356976
  57.4731588  57.4223423  55.2148008  56.2208796  28.6524439  66.6940355
  56.8411207  29.3266916  66.4166927  55.7835197  29.0288830  67.4577379
  25.1361513  77.6195765  59.9568081  25.5452442  78.2260561  59.3395090
  24.3966246  78.1082010  60.3181648  36.0995817  26.0155487  64.6724415
  36.0884237  26.7300773  64.0356064  35.5493045  26.3267016  65.3911972
  62.7139854  36.6042089  42.5917673  62.0516872  37.1616840  43.0001974
  62.8977203  37.0261550  41.7524624   4.5870215  63.8694811  28.2548380
   4.1725132  64.4792509  27.6444292   5.5201221  63.9202881  28.0475354
  58.8670444  59.3236351  15.6998348  58.8077211  59.5512676  16.6276801
  59.3790770  58.5150576  15.6838548  64.8535109  15.4365289  46.6207838
  63.9055347  15.4533029  46.7523003  65.0301647  14.5669484  46.2618208
  56.2200975  26.1519408  37.5035429  56.4500427  25.2822399  37.8306103
  56.6499424  26.2082577  36.6501403  74.7520924  53.4803820  42.6310062
  75.1374102  54.3033361  42.3301697  73.8145733  53.6633444  42.6928043
  75.3407145  19.1551328  14.5928705  75.8312464  18.9310884  13.8020384
  75.3912258  18.3691049  15.1367819  49.7300386   1.4520802  50.0078917
  50.2403879   2.2616169  50.0284863  48.8613033   1.7086811  50.3172302
  43.1497622  27.1934128   0.9858211  43.2243824  27.6282382   0.1363558
  44.0383625  26.8963504   1.1817068  77.9533005  52.7849340   3.3412617
  77.9010391  53.7388611   3.4005874  77.6323938  52.4743652   4.1879010
  44.1645813  22.2765422  49.4435692  44.3026161  21.7304802  50.2175140
  43.9512682  23.1408739  49.7952223  16.4356995  20.6037951  55.7093906
  15.8814740  21.3710427  55.5665636  17.1554959  20.7091236  55.0872707
  11.8787944  30.1717520  17.0245504  12.2766364  29.4038463  17.4347627
  12.5942707  30.5810189  16.5379012  71.3069534  58.7413359   2.0419261
  71.8910122  58.0727482   1.6840215  71.4393950  59.5024586   1.4767869
  66.5973520  17.4657500  42.4704361  66.3763618  17.5840974  43.3942270
  66.6491699  16.5168023  42.3562288  65.8963108  41.1839485  10.8665216
  65.0982189  40.6618595  10.9483886  66.6076326  40.5530453  10.9770608
  46.9297600  18.3640933  58.4144402  46.3017654  18.0181038  57.7802944
  46.3891363  18.7970006  59.0751553  78.1759453  78.1602859  11.8600833
  78.7492609  78.3610487  12.5998354  77.3251581  77.9779720  12.2590184
  66.2781143   9.5801324  58.2974243  66.4758873  10.5148447  58.2388449
  66.0991240   9.3161684  57.3949146  27.5202131  54.1766024  68.4364271
  26.8411708  54.6459007  68.9210844  27.7400446  54.7579575  67.7084637
  47.4965811  27.3341918  41.9302797  46.9259644  27.6817036  41.2448120
  47.0540142  26.5404081  42.2307301  35.6345654  21.1567402  45.4272366
  35.8882236  20.6013060  44.6900940  34.6963048  20.9999108  45.5335522
  46.4832640  20.0967407  50.5088139  46.9912148  20.7145119  51.0347176
  46.9382906  19.2613018  50.6147575   8.4393585  71.8455935  13.3124959
   7.7437168  72.2382355  12.7851009   9.2454553  72.2354650  12.9742038
  33.1601453   8.0488050  52.5836802  33.8147116   7.3659742  52.4370003
  33.3888173   8.7377834  51.9597816  65.8895302   6.6456825  50.8546400
  65.9782171   5.8780390  50.2897596  65.1455402   7.1258688  50.4911423
  24.3178821   6.9506592  64.7640228  24.5767283   7.8167415  64.4491720
  25.1254439   6.4371836  64.7436476  65.7202721  49.4138336  36.6490173
  64.9810028  48.8666296  36.9141221  66.2905121  49.4347429  37.4175358
  76.2848282  40.4742146  37.1001935  75.5074692  39.9380827  36.9436479
  76.5835047  40.2143049  37.9716706  73.5220194   3.0770695  35.7793140
  73.3712196   4.0087104  35.9391165  72.7740955   2.6400667  36.1865902
   4.0409264  43.7384796  49.8274565   3.3195046  43.8359451  49.2059422
   3.7609532  43.0329943  50.4106760  67.3548698  40.4976940  54.0498877
  67.0656776  41.3333845  54.4162512  67.0123434  39.8396468  54.6547699
  73.3385229  34.4505692  55.5400801  72.8260136  33.7762308  55.9859848
  73.8656330  34.8481941  56.2331057  52.2827005  73.7347174  26.9166970
  52.7165222  73.0345011  26.4291215  52.6930571  74.5385027  26.5976906
  55.5346489  38.6847878  59.2387247  55.0887251  37.9325414  58.8494730
  56.0711050  38.3100653  59.9373102  60.1663160   2.6541334  47.7367496
  60.1935196   3.3900249  48.3482695  60.7575130   2.9092869  47.0285034
  61.1858845  68.7755871  47.2468233  61.2031937  68.8492680  46.2926197
  60.3339815  69.1317272  47.4991322  12.2044337  51.4950132   1.9719429
  11.6779494  52.2928667   2.0217447  12.0280755  51.1458206   1.0983329
  41.9952917  27.3832536  46.9923735  42.2673512  28.0137444  47.6592302
  41.4190245  27.8813887  46.4127064  63.7863350  18.6635554  18.3057022
  64.5079136  18.7622118  18.9268494  63.0178499  18.5064054  18.8543069
  40.4784155  18.6592245  48.4534121  40.9303617  19.5029807  48.4605503
  40.2768803  18.5032654  47.5307560  24.1969299  73.5978794  59.9860382
  24.6884727  74.1919994  59.4189024  23.7232733  74.1753531  60.5847073
  50.2954102  18.3104324  47.1164036  49.4101667  18.6469197  47.2555351
  50.3245020  18.0906653  46.1852264  36.2020564   2.0451924  62.9884624
  35.8578992   1.1522675  62.9667330  35.7582164   2.4905773  62.2667503
  75.6415749  26.0885882  51.2058830  74.8726940  25.5410290  51.0470438
  76.0334826  26.2079167  50.3407812   8.1836313  74.8938513   7.8627485
   8.4095472  74.7720718   6.9405973   8.6679232  74.2068720   8.3207345
  68.9740181   6.1594391  67.7222347  69.7842884   6.6608191  67.6310635
  68.2959843   6.8220019  67.8545666  80.8193302  32.9016924  61.2946844
  81.6597271  32.4857354  61.1024904  80.3121185  32.2225928  61.7394304
   4.0788436  30.4241276  44.1565514   3.8120121  30.9687209  44.8971272
   4.0603453  31.0163713  43.4047985  44.6080160  17.3685122  40.1278877
  44.1785336  18.0162787  40.6866169  45.5394363  17.4582684  40.3294659
  67.7244997   5.9543842  15.0780058  68.3382177   6.5804690  14.6938205
  67.8099394   5.1710141  14.5346248  81.0167408  42.9618120  65.0818157
  81.1125565  42.3675489  65.8260632  81.6860390  43.6315298  65.2223539
  20.8106232   9.2710596   9.0217340  20.6861091   8.7196040   9.7941488
  21.0068464  10.1384449   9.3758136  69.8214293  54.7664976  52.4013042
  70.6565380  55.2322674  52.4446440  69.1723919  55.4119205  52.6813173
  72.0032692  56.6736698  56.7748022  72.2164345  57.2652483  57.4964905
  71.7522955  55.8548975  57.2024155  70.2877235  52.3322201  53.6617279
  70.4161215  53.2684278  53.5092068  71.0664606  51.9196653  53.2880974
  58.6303854  18.4972012  59.2733622  58.3175850  18.5354340  60.1772022
  57.8555918  18.6851108  58.7436199  26.5506411  72.2805691  11.8138945
  26.4911819  73.0404186  12.3929691  27.2331667  71.7347145  12.2043240
  55.5888844  72.5291729  12.1992552  54.8977280  73.1253815  12.4874747
  56.1706448  72.4534178  12.9555941   6.8721241  33.7206411  60.7962275
   7.7372849  34.0598249  60.5667019   6.4718455  33.4971142  59.9559641
  73.2286263  36.0918593  38.1015396  74.0761518  36.3613605  38.4555197
  72.6521921  36.0516310  38.8646507  16.1023962  54.0953875   4.2017072
  16.4661062  54.9674892   4.3546036  16.8290806  53.5943651   3.8313815
  48.7678003  59.3454504  -0.2454453  49.2095709  60.1940155  -0.2772731
  48.4386826  59.2802429   0.6510256   4.7314435  62.2105885  25.1011086
   5.1627058  61.4251328  24.7645044   4.8890147  62.1845341  26.0448885
  30.8937597  21.6731453  11.8211567  30.2920675  22.3636079  11.5428388
  31.0874748  21.1868787  11.0197520  75.9019852  51.0010529  57.7344799
  75.5467224  51.8658018  57.5289869  76.2714195  50.6912136  56.9075871
  79.8490143  39.8456979  64.8188448  80.3622723  40.0526094  65.5998659
  78.9662790  40.1539612  65.0237370   8.0723196  65.3036165  44.0649319
   7.1960044  65.0175238  44.3227196   8.6644101  64.7533560  44.5776463
  67.0357847  17.4545586  66.0653448  67.8962469  17.7761734  66.3344240
  67.2263908  16.7474186  65.4490232  52.0167732  59.0953350   2.5949851
  51.8759918  59.9982643   2.3101422  52.1409273  58.6045170   1.7826347
  46.8679571   2.5582576  59.2493153  46.5533638   2.5247899  60.1527214
  47.1671104   3.4600556  59.1331244  44.9827003  17.6673698  15.0121760
  44.2995071  17.2438061  15.5318618  44.5456648  17.9131484  14.1968071
  20.1521087  78.5302496  23.8099146  20.7588792  77.7906322  23.7777948
  20.6595182  79.2709112  23.4779668  79.9165154   7.2757244  32.4460006
  79.1526842   7.8323984  32.5973701  80.0058746   7.2455078  31.4934587
   1.3832599  43.6729956  48.7196922   0.6835014  44.1874361  49.1220903
   1.3427751  43.8991213  47.7904701  78.8835239  24.5204329  66.9916010
  78.4387350  24.9020314  66.2347794  78.2507277  23.9001989  67.3536968
  47.4012661  28.3094096  44.7597456  47.5510693  27.9790330  43.8739443
  46.6502476  27.8086901  45.0783062   6.9758409  59.5069408   6.1974996
   6.6385716  60.3957081   6.0853398   6.5474552  58.9994335   5.5081868
   5.7827932  20.6844234  34.0636539   6.7114627  20.6636667  34.2946815
   5.4341948  19.8581707  34.3983483  20.8692265  68.6846304  15.4378092
  20.5266023  69.2095184  14.7143924  20.8348298  67.7834082  15.1171148
  55.2742815  41.4080095  65.4935408  55.3154993  41.4228010  66.4497375
  55.4843855  40.5041647  65.2587032  56.4138556  55.5957127  42.4806070
  56.6270924  56.5148258  42.6418304  56.6241503  55.4595423  41.5567732
  73.7121916  38.4322286  53.7788105  73.6864471  38.6694336  54.7057962
  74.5825720  38.7027597  53.4864378  24.0815616   1.7422849  66.4450979
  23.6460757   2.5859201  66.5670204  24.9686360   1.8804574  66.7771149
  76.1786652  51.7753124   1.3578793  75.3890276  51.8495178   1.8937853
  76.8962669  51.9711065   1.9603293  63.8139248  51.2263680  36.2097096
  63.1572199  51.0096025  36.8715096  64.5188475  50.5956030  36.3561797
  58.1275702  39.4141483  51.8677998  58.9398146  39.8434138  51.5990591
  57.9382277  39.7794127  52.7320671  50.0618839  73.4322977   4.7154057
  49.5041704  73.5296822   3.9435852  50.4315662  74.3040705   4.8553130
  -0.2122190   7.2958219  49.3031597  -0.2253034   7.0312148  48.3833551
   0.6470797   7.0177203  49.6201849  82.7064705  29.3471313  59.5344734
  82.7830410  30.2937555  59.6539402  82.1356201  29.2472649  58.7726450
  44.5928240   4.8224837  50.9969044  44.1753626   5.6820822  51.0520983
  44.0361261   4.2514271  51.5262508  56.1254835  30.5061173  52.6321840
  56.8241215  29.8520994  52.6522779  56.2646437  30.9801197  51.8123102
  19.8640907  71.0512066   2.9101375  20.6934786  71.5199566   3.0029893
  19.1940415  71.7257595   3.0207804  80.3720951  45.5230045  30.8312082
  79.6772766  45.5421495  31.4893103  80.8723831  46.3238955  30.9877491
  75.7411957  32.5662589  55.6255531  75.4709625  31.6618276  55.7843256
  75.0451994  32.9318428  55.0795031  61.5868616  20.7214808  28.5644984
  61.2851334  21.0139513  27.7044678  61.4598560  21.4804721  29.1337395
  63.6598921  43.1069899  31.0818458  64.3962002  43.2483339  30.4867768
  63.1451941  43.9117670  31.0214067   6.1389261  40.3216553  54.2222786
   6.4818752  39.5645928  54.6971226   5.8697355  39.9702287  53.3735943
  82.8817081  12.9545677  49.7342634  83.7882137  13.2172370  49.5745897
  82.4097061  13.2337952  48.9497423  72.6294470  32.6024771  57.6034117
  71.7630672  32.7418017  57.9857826  72.7429104  31.6520333  57.6072311
  74.8689699  34.0164685  42.5987291  74.2056894  33.6408448  43.1776905
  75.1528597  33.2835174  42.0524502  58.5472822  72.2698116  44.4642735
  59.1849279  71.6175938  44.1740084  58.7457609  72.4028492  45.3911686
  61.4676476  36.4340830  38.0304861  62.0776510  37.1715784  38.0457163
  60.6335878  36.8072033  38.3157229  27.5021815  39.7950077  52.6858139
  27.4594426  38.9012241  52.3458719  27.6456666  39.6870518  53.6260223
  67.5063419  51.7562485  62.8698730  67.8749418  51.8029308  61.9877243
  68.2230616  51.4262724  63.4117746  11.4937508  26.5358257  33.4726930
  11.8626654  25.6530333  33.5012293  11.9850314  26.9784594  32.7806306
  58.7460518  35.8368397  41.9588757  59.3344641  36.4214253  41.4811087
  58.5963583  35.1055908  41.3596296   3.4275517  31.4081359  54.3086529
   3.1933489  30.5561304  53.9405966   3.6190632  31.2270570  55.2288532
  27.7762890  68.8618088  10.7911754  27.7419448  67.9052925  10.8026445
  28.0699921  69.0803385   9.9067473  78.5708427  30.9651804  51.7859936
  79.4223309  31.0634875  52.2120571  78.3290195  31.8541145  51.5260839
  69.1111040  54.2712164  32.4680495  68.5730076  55.0478315  32.6215005
  69.8339272  54.5842886  31.9242263  69.9639559  28.3376408  46.3193369
  69.1805840  28.8834047  46.2507629  70.1086712  28.2435822  47.2608471
  81.3742352  23.3026075  51.6856623  80.5992126  22.7499413  51.7863464
  81.4059639  23.5025001  50.7501030  14.9839318  57.8792477  13.6815536
  14.4742692  58.3746195  13.0403996  14.3850219  57.1991253  13.9897299
  81.3080883  72.6360321  33.4841609  82.0659924  73.0604982  33.0821276
  81.6674328  71.8578625  33.9102530  13.1482482   9.6951717  22.5358081
  13.6850333  10.4872274  22.5085783  12.2784674  10.0039065  22.7895713
  23.1411505   0.8330111   9.5735097  23.3397722   1.4610410  10.2680314
  22.8489494   0.0480250  10.0368094  80.6175518  24.8787808  13.8906634
  80.8462143  25.6442595  13.3634186  81.4424419  24.6125960  14.2967772
  39.3138075  69.7911501  61.7104006  40.2328777  69.5584106  61.8422127
  38.9578223  69.8716021  62.5952959  43.7305737  30.1323247  68.2199049
  43.8105440  29.9731374  67.2794294  43.8031816  31.0825992  68.3090067
  15.3073597  18.5988796   1.2554443  16.0236430  18.0735064   1.6120294
  15.0943041  18.1791019   0.4220024   7.0570505  29.5070219  35.2310252
   6.2886691  29.5926285  35.7953787   6.6974419  29.4227481  34.3479562
  78.5031939  48.8221455  47.1374321  77.8446531  48.8264418  46.4427853
  78.6132336  47.8970957  47.3574305  34.0732145  49.0158081  60.5802822
  34.8889279  48.5239267  60.4859781  34.3504071  49.9300051  60.6406593
  81.5207481  39.6962476  47.0642853  82.1383095  40.2305508  46.5649223
  81.2686634  38.9959764  46.4623690  32.1291018  66.1186123  29.3759775
  32.7180552  65.4111576  29.1135383  32.6416516  66.9168329  29.2480469
   1.6064346  64.9682951  54.5925903   2.1354000  65.6667519  54.9780607
   2.2449875  64.3736553  54.1990328  77.8000116  55.0718784  43.8798380
  77.4513245  55.0390387  44.7706652  77.5649500  55.9438562  43.5626173
  45.3470182  77.7776670  52.9044247  45.4169893  77.6545477  51.9577599
  44.4066620  77.7487803  53.0808496  75.3702307  52.0174265  26.8695688
  75.1549673  52.8286362  26.4093256  75.4073381  52.2683191  27.7925587
   2.2411981  67.9130363   9.9532008   2.5314027  67.2528028   9.3238306
   2.9121041  68.5945129   9.9119318  54.1692209  31.2825918  54.4818735
  54.5640182  30.7817006  53.7681007  54.2115116  30.6966805  55.2376223
  40.5386019   5.3017485  48.9514637  41.1631727   5.4320270  49.6650267
  40.5924749   6.1065525  48.4360790  45.9394741  35.2869439  21.6874075
  46.4636898  34.7815752  21.0660911  45.1312160  34.7833514  21.7840719
  62.0553112   7.9077590  51.6305971  61.8795490   6.9757766  51.5011787
  61.3997841   8.3520436  51.0928917  10.5106449  56.5004110  45.7670498
  10.0176501  57.1545410  46.2623262  10.1334071  55.6625557  46.0352373
  55.1440239  35.1412177  55.7203865  54.6867800  34.7785926  54.9616623
  54.7611618  36.0106277  55.8377600  83.7232208  68.8093662   7.9755270
  83.0222225  69.0690756   8.5733348  84.4316864  68.5178900   8.5494173
  69.6812296  67.0008135  25.6965017  69.1922998  67.5154066  25.0543380
  70.1100540  67.6534700  26.2500191   5.6256652  30.0468183  29.0505862
   5.4543978  30.3238559  28.1505013   6.0716707  29.2046046  28.9612055
  72.1131563  48.2818794  32.5616693  72.5497961  48.5085106  31.7405629
  72.7905464  47.8496265  33.0817938  21.8212891  45.5710840  18.3598220
  21.9199681  45.7342529  17.4218082  21.8830204  44.6197033  18.4452331
  54.0991640  30.6917882  42.9567003  53.3470058  31.2109017  43.2413292
  53.8769531  29.7936487  43.2020617  58.0153942  52.5569677  32.4782062
  57.4855280  53.3541012  32.4854779  57.6451921  52.0169163  33.1764364
  33.6808062  53.7213898   3.3174756  33.3105564  52.8549719   3.4861737
  33.3048201  54.2792511   3.9984009   8.1275439  57.7257633  62.3680639
   8.9119750  58.0687475  61.9399738   8.0472934  58.2419682  63.1701374
   7.4735606  70.1008081  18.3618057   6.9832969  70.9225225  18.3360684
   8.2080358  70.2784252  18.9493692   8.7839156  54.4867182  22.3602366
   8.7227172  54.8571014  21.4797211   7.9231787  54.0984488  22.5171089
  36.5252924   3.5876930  55.0431681  36.9704437   4.2934862  54.5742035
  36.7290163   2.7996689  54.5394373  59.3177700  42.5443935  47.7223587
  60.1322746  42.1257067  48.0007744  58.6746359  42.2776175  48.3791971
  60.4111767  20.9279060  25.8500171  60.7445621  21.6493034  25.3164744
  60.3255653  20.1969767  25.2379370   0.4436282  55.7558823   0.3965765
   1.3069731  55.5795908   0.0226943  -0.1484641  55.7517672  -0.3555148
  53.7878942  77.7911997   5.1175672  53.5133600  78.5834789   5.5792564
  53.3170128  77.8239250   4.2848435   1.8303911  20.7398987  54.6495962
   1.1425363  20.8540869  53.9938164   1.6438751  21.4063430  55.3108788
  83.0406570   2.0926523  29.5083976  83.1583786   1.7058876  30.3760314
  82.2260284   2.5905991  29.5766640  60.1644897  18.5275126  65.2045250
  60.5215406  17.7607095  65.6525850  60.8209753  18.7456036  64.5429420
  51.0624981   2.1233730   9.1354597  51.3289595   2.8393194   9.7122186
  51.6896343   1.4234152   9.3171048  83.8763810  49.4682980  42.2541428
  83.6451247  48.7973881  42.8965044  83.0375644  49.7485876  41.8880033
  58.1177235  54.3978357  29.5058537  59.0215588  54.3391466  29.8154831
  57.8756094  53.4947062  29.3009949   7.8278518  64.7226143  20.1350164
   7.0399749  65.2648544  20.1731849   8.0708027  64.7179890  19.2091727
  11.5311766  40.2545786  61.0023355  12.1126497  40.0386190  61.7313671
  10.7018566  40.4891253  61.4188099  52.3000288  51.8235445  66.9652843
  52.8499269  52.5022411  67.3567152  51.9563532  51.3334227  67.7122116
  20.2560377  46.7338896  53.4398317  20.4776502  47.2365761  52.6559782
  20.1016831  47.3962164  54.1134262  76.0619164  64.5930910  37.5913048
  75.9270859  65.4142809  37.1183324  75.5819893  64.7075367  38.4115505
  15.2742004  32.5558114  49.1513920  14.5743394  31.9176006  49.0131426
  14.9472451  33.3606482  48.7494326  44.6528769  47.0617962  34.1197348
  44.2963648  47.9340506  34.2879796  45.5971861  47.1616650  34.2402864
  63.1494856  44.3591118  67.6758146  63.1922817  45.2917004  67.8871918
  63.8417053  44.2284012  67.0277548  41.0383368  42.9640579   6.1284596
  41.1064434  43.1158781   7.0710868  40.9418154  42.0154047   6.0450059
   4.5317411  26.9679666  38.5748768   5.4079473  27.1908140  38.2605004
   4.5506841  26.0170674  38.6828756  50.8531332  10.6749249  37.8317261
  50.8182430  11.6040945  38.0590105  50.0999546  10.5406177  37.2564769
  60.8327436   4.4665498  15.2169609  61.4797592   4.8864961  15.7837486
  60.6072330   3.6548138  15.6713390  60.5057812  30.6184268  46.0700178
  59.8169470  30.3004313  45.4863930  60.2527618  31.5195513  46.2704849
  35.1859450  32.9336667  10.5283594  35.3966141  32.4985862  11.3545287
  35.1707244  32.2271848   9.8826927  50.0765371  30.5457568  47.4329853
  49.2438269  30.7239866  46.9958878  50.4197407  29.7710204  46.9877577
  60.3592396  57.5733423  61.6188717  60.7024670  58.1525707  60.9384871
  60.1771259  58.1536531  62.3579979  82.3449230   6.7700255  15.9978521
  82.3840523   7.0841390  16.9011986  83.2007027   6.3688147  15.8465052
   9.4339919  64.4793320  34.0246630   8.9698923  64.3556023  33.1966925
  10.1700568  63.8690329  33.9801717  77.7221727  40.0790310  39.4581127
  78.4028006  39.5167828  39.0881753  78.1929207  40.8526707  39.7681284
  54.0558624  22.4347067  67.6439905  53.2038641  22.6135254  68.0419302
  54.6717453  22.4571633  68.3763885  77.8643608  33.6522150  51.4923000
  78.2799816  34.3541598  51.9930649  77.1531296  33.3455014  52.0547104
   4.8725036  26.9252610  55.3763151   4.8321947  26.4307880  54.5577145
   4.3885887  26.3888240  56.0042429  57.4870443   8.1840950  57.8804398
  56.6658211   8.3945602  57.4359941  57.6802206   7.2853303  57.6137257
   3.4600767   9.1501212  34.1323972   3.2206368   8.8864076  33.2439423
   3.7919950   8.3494776  34.5386386  41.6608953  77.5580311  59.7091103
  42.5063181  78.0064583  59.6889782  41.2557554  77.8473043  60.5266809
  63.8429451  10.2039468  63.6409330  63.0494928  10.0830615  64.1625261
  63.8673830   9.4420671  63.0619907   0.8214577  10.8880663  30.5818629
   0.5446508  10.1051021  31.0578632   0.5820474  10.7123089  29.6719027
  61.3658381  24.2521548  49.8528099  60.7918644  24.6878529  50.4828501
  60.9410858  24.3905616  49.0062523  63.4931469  15.3134739  63.6683464
  63.7117481  14.4996488  64.1223669  64.3069267  15.5726290  63.2361031
  67.9178762  27.7500248  61.9753742  68.4053326  26.9671941  62.2318888
  67.0109510  27.5556588  62.2118855  62.1345711  33.8439894  58.8873100
  61.4534187  33.7742448  59.5561838  62.2406626  32.9509616  58.5594749
  36.0365796  70.6709290  29.8234606  35.4487920  71.3921213  30.0484419
  35.4861760  69.8893070  29.8719811  29.7547174  35.4541230  10.5892706
  29.9818349  35.7954144   9.7243029  30.0230479  34.5356965  10.5623925
  58.3228016  65.5394793  66.9957781  57.6964712  65.7236242  66.2957573
  58.8051176  66.3587379  67.1072435  50.9061623  67.3784828  37.6225591
  51.8527603  67.4481344  37.7463913  50.7251120  66.4404917  37.6827693
  56.2262678  17.1285880  22.1010375  55.6846762  17.0614243  22.8874230
  57.1038532  17.3223889  22.4304533  65.9531546  53.5813999  53.5924339
  66.1600685  54.2963171  54.1943598  65.0080490  53.6486912  53.4565163
  82.2482491  63.9154863  48.9707088  81.8258762  64.6795750  49.3631315
  82.9499435  64.2802715  48.4314632  32.2788191  32.7501178  65.9660769
  32.7890444  33.0748487  66.7080021  31.7123985  32.0760536  66.3416290
  18.7664878   8.9362603  52.5689793  19.4414842   8.2586533  52.6072025
  18.0815017   8.6256516  53.1610537   7.9544014  25.5729246  60.3170204
   7.8777623  26.4180732  60.7598305   8.3846831  25.7758689  59.4864130
  53.1704473  25.1778078  42.4303675  52.2289848  25.1975679  42.6021099
  53.4174395  24.2614412  42.5548601   1.4951004  70.4028130  33.1624007
   0.9023665  69.8569679  33.6790752   2.0405342  69.7780991  32.6844192
  52.0788860  51.8032980  40.6529713  51.3092232  52.3688459  40.7162380
  52.1188736  51.5556812  39.7292161  27.8067970   4.4042921  18.6421347
  27.4372244   5.0692856  19.2230225  27.4314570   4.6007296  17.7837849
   1.7878342  37.5935769  29.7813725   1.0187979  37.0300865  29.8667765
   1.8174902  37.8190398  28.8515782  53.8167286  59.0046978  53.3440924
  54.2954063  59.8334408  53.3273888  53.2934141  59.0464592  54.1444874
  24.3539357  55.3454494  11.1663342  24.4305801  54.4147968  11.3766778
  24.9535179  55.7785034  11.7739511  18.7360108  59.4650793  57.6977444
  18.0860841  58.8695335  58.0707741  19.5630336  59.1993237  58.0997896
  79.8937941   3.6413449   9.7630185  79.2214823   3.9414537   9.1513294
  79.8458052   2.6862305   9.7219658  73.8495684  30.3377175  44.0867281
  73.0351162  29.8513365  44.2145109  74.0062904  30.2987742  43.1432486
  64.9388838  51.1015844   4.4401434  65.3201199  50.7639551   3.6296499
  64.4082069  50.3785563   4.7745800  56.3388300  23.2738280  41.5285015
  56.3927555  23.4551167  40.5901718  55.4091167  23.3652735  41.7370653
  52.8514290  77.5347519  47.2616625  53.2728529  76.9763994  46.6083097
  52.1787500  78.0092239  46.7731857  18.6468387  40.0819731   3.8619566
  19.5779943  39.9272275   3.7031037  18.5393810  41.0270500   3.7546593
  21.4019752  42.7235508   1.4730254  21.1186743  42.2646046   2.2638103
  21.0819435  43.6183405   1.5877663  10.5628431   7.7442759  29.6221256
   9.8219424   8.2974821  29.8696351  10.3298342   6.8735999  29.9444008
   4.0044323  59.5364141  13.2338655   4.0978745  58.8270092  12.5980616
   3.8405401  60.3149700  12.7016819  55.0572157   3.9191547  17.6949990
  54.3757105   4.2599696  18.2743323  54.5886707   3.6560711  16.9028592
  78.5212612  43.4766150  45.6569862  78.8391161  42.6423359  45.3117657
  78.1127691  43.2500648  46.4924765  54.8234749  28.3460903  55.0121307
  54.3788242  28.1075001  54.1987467  55.7552767  28.2675242  54.8076487
  65.8100986  51.3736963  51.8397760  66.5169716  51.0593653  51.2760735
  66.2502956  51.6538620  52.6422501  72.7737236  37.1610498   6.4460129
  72.0059586  37.4236345   6.9537729  72.5658083  36.2796617   6.1359227
  62.3944807  14.1494775  49.2593956  62.9748774  14.6150601  49.8615646
  61.5646076  14.0810215  49.7314692  57.3854351  37.6247334  43.4286880
  56.4884043  37.2978449  43.4973288  57.8552961  36.9375110  42.9562569
  77.3407793  47.6168537  50.8188963  77.8701830  48.4022808  50.6808043
  77.9214525  46.8925476  50.5855846  63.8032675  43.6962843  51.2675381
  64.0024567  42.8507376  50.8655357  63.1988764  44.1160727  50.6553936
  27.2222590  12.7146447  58.7296057  27.7784133  11.9614625  58.5305071
  26.9732237  13.0615962  57.8729630  41.3141346  65.9976482  40.1150942
  41.3172054  66.0540152  39.1595626  41.4746046  65.0724840  40.3009653
  60.8313227  25.1444626  29.4148111  61.6847563  25.5776954  29.4011068
  60.8598375  24.5357513  28.6766434  70.1744938  43.1342936  43.5574102
  70.8407259  43.2628822  42.8822565  69.9799061  42.1975899  43.5265636
  43.2179880  66.4777231  32.5893569  42.6776409  66.3879681  31.8043733
  43.4019518  67.4152708  32.6475835  53.0532551  62.2064447  45.7073355
  52.9191780  61.3324165  46.0738420  53.8736916  62.1381283  45.2190256
  12.0833409  11.2266064   4.2343044  12.4905527  11.1522782   5.0973719
  12.2302425  10.3734684   3.8258848  45.5773830  30.8847928  59.6878767
  46.1007929  30.8330774  58.8881254  44.7340298  31.2342429  59.3999958
  76.5012503  46.0487747  25.7282043  77.4191236  45.7978582  25.6243563
  76.3059092  45.8674049  26.6475415  25.6718087  27.8846478  22.9950976
  25.6489992  28.2328796  23.8864136  26.1390042  28.5500169  22.4898815
  71.3389730  10.0570822  52.7543688  71.5810251  10.1194489  53.6783552
  70.8284092  10.8491600  52.5865364  78.0753279  61.8692780  12.2625840
  78.2205391  61.0215235  12.6826560  78.8690090  62.3696232  12.4522018
  30.1437140  63.5383797  13.5555184  29.7934747  64.4262266  13.4827435
  30.5439901  63.3681679  12.7028537  22.0904279  53.3743668  10.4683208
  21.4775610  52.6435947  10.5495763  22.6708055  53.2854080  11.2242842
  13.5131466  11.3966894  33.6539602  13.0016196  10.8784318  34.2752361
  14.3373132  11.5706384  34.1086268  53.1145048  30.7263494  64.0221405
  53.2106352  29.9823904  63.4275723  52.1769190  30.9189916  64.0151024
   1.9158888  58.3334398  44.7546434   2.1761875  57.8921270  43.9461184
   2.7377582  58.6484528  45.1308537  69.9102402   7.5477326  54.0355873
  69.6203947   8.3404064  53.5840464  70.5488539   7.8577799  54.6776724
  51.5003490  57.0419788  43.9566278  52.3526573  56.9341421  43.5345221
  51.3144970  57.9782486  43.8852978  47.5467682   0.1974462  63.1821489
  47.6477003  -0.1789971  64.0564108  48.3376694   0.7211970  63.0541229
  80.3832245  59.0530968  55.4644823  80.1472378  59.4043636  54.6059084
  81.1433983  59.5688105  55.7335615   3.2585382  28.3424783  68.1229448
   3.3701009  29.2820859  68.2676029   4.0069962  28.0930710  67.5808811
  55.8742809  57.5471544  35.9372997  55.9863329  57.5719213  36.8875957
  56.5708590  56.9675255  35.6290174  77.0393610  64.3152666  68.2412481
  77.0965862  63.4485054  68.6433506  77.0131063  64.1415215  67.3003149
   2.5202933  59.3098450   7.5700605   3.4083533  59.4949245   7.8755552
   2.0219043  60.0963783   7.7918905  57.6446390  48.7946606  49.3609238
  58.0770636  48.1525850  49.9239302  57.5684023  48.3569527  48.5130835
  62.2057343  34.5614719  35.9619021  61.5219259  33.8931108  35.9179115
  61.9429731  35.1254487  36.6893053  77.4829578  42.6043034  48.2158613
  78.3084869  42.1387148  48.3498955  76.8364429  41.9114923  48.0807257
  53.3243990  60.2447796  39.6258593  52.6484299  59.5673418  39.6451735
  54.1313314  59.7846127  39.8568106   0.7278649  40.0360107   1.3393462
   0.6621350  40.8400154   0.8240929   0.6788987  40.3298283   2.2490188
  75.2001572  55.0029039  46.2860441  75.2345562  55.8635569  45.8685255
  74.7023726  54.4599009  45.6748247  56.4684010  28.7434268  47.9899740
  56.0697794  28.8769293  47.1300268  56.0109472  27.9839253  48.3507109
   0.7532051  41.2779617  46.0244322   1.3360018  41.1486197  46.7726612
   1.2965132  41.7185020  45.3709984  23.0938125  77.7767944   4.5119861
  22.9267049  78.6996937   4.3207541  23.0657053  77.7212143   5.4671574
  14.0662086  48.4774351  47.6894331  14.3031728  47.5500584  47.6824617
  14.8658848  48.9269257  47.9627609  81.5929031  73.6538076  51.7958736
  81.0544682  73.6014080  51.0062075  81.5161324  72.7876520  52.1960163
  69.7449207  51.7917204  31.6244578  69.8905659  51.4826584  32.5186062
  69.3420601  52.6533890  31.7315102  70.9620667  48.4812784  28.1627154
  70.3518820  47.9795742  28.7032676  70.8079815  49.3928576  28.4107304
  64.8952341  58.8200188  43.9648533  64.6822023  59.7344828  44.1508913
  65.8144236  58.7321377  44.2170382  18.1435180  57.6473284  59.9555016
  18.3684969  57.1768951  60.7581902  18.9001822  57.5200748  59.3832254
  70.6777954  53.1909847  22.7234149  71.2927914  53.4618759  22.0417762
  70.2359819  52.4250889  22.3567605  31.1327267  22.1641994   2.9656899
  31.0517073  22.9984093   3.4280336  31.6062951  21.5977478   3.5748640
   3.8993976  57.1878672  21.8018293   3.5898355  57.0556641  22.6978898
   3.1916159  56.8519354  21.2518954  48.7107515  53.2945108  34.6391010
  48.6572123  54.2292213  34.4398975  48.8053989  52.8726530  33.7851048
  53.1501770  43.1655645  47.7459860  53.0826616  43.1469488  46.7913532
  52.2477436  43.2688141  48.0479574  53.5561514  64.4069290  61.7881632
  53.3316660  64.7584438  62.6497173  54.2069101  65.0178146  61.4423847
  74.3835402  28.7305641  13.1628060  75.1504469  28.3375669  12.7461016
  73.7743330  28.0015135  13.2793653  31.0248780  65.1058626   6.9584382
  31.7026448  65.7512379   7.1593308  31.3761425  64.2789412   7.2886527
  24.2227221   6.2262827  32.8236604  24.4648838   5.3018749  32.8789783
  24.1895390   6.5200776  33.7340546  17.6740181  37.1429825  53.2353878
  17.4927902  37.5175786  52.3733759  16.9552636  37.4521279  53.7867975
  33.4602404  47.7822304  25.1570749  33.1440806  47.5192642  26.0214376
  32.7519155  47.5421190  24.5597029   8.6687779  70.6853676   7.6898986
   9.1439933  71.5156174   7.6569062   8.8400108  70.3461361   8.5684383
  42.9299736  28.6599183  52.3165417  43.7596321  28.6335945  51.8398809
  42.3151159  29.0650558  51.7049503  46.5150738  12.1343660  63.9643860
  46.4863539  11.9185758  64.8965025  47.4485826  12.1779335  63.7572765
  54.9688625  53.1147385  64.5024872  55.4356146  52.5335455  65.1029778
  55.4537201  53.9391232  64.5417213  29.8430562  27.0615292  19.1909695
  29.8558211  26.2509489  19.6999156  28.9144778  27.2279572  19.0288639
  27.2767282  55.2169800  50.5595970  27.7847004  56.0059452  50.3705692
  27.8006315  54.5023441  50.1975775  23.5692358  54.0095663  40.9988546
  23.8658786  54.9169540  40.9290075  22.9106617  53.9191914  40.3101301
  20.2619815  23.0916572  49.4713974  20.8791828  22.7700162  48.8142490
  19.9940765  23.9517045  49.1476965  64.0533876  44.7432947  61.5821266
  64.4761848  44.6891594  60.7250738  63.9426231  43.8317966  61.8525553
  55.5580711  37.6698470  52.1129894  55.1439762  37.9597616  51.3001490
  56.4462852  38.0239010  52.0688248  73.8225889  15.4345548  64.8109388
  74.1931438  16.2076426  65.2366781  73.9951849  15.5684900  63.8790035
  81.5631485  49.7271538  41.0303593  80.9436989  49.1440058  41.4690447
  81.0846996  50.5495167  40.9253168  82.8324986  31.9559860  42.8280878
  82.6089668  32.8340387  42.5194025  83.4207058  31.6088629  42.1574593
  51.5817356  63.7077284  48.1363297  50.7858276  63.1794834  48.1973791
  52.2498178  63.0987549  47.8216124  46.4964581  69.2623997   3.4281042
  47.0194674  69.2063046   2.6283854  47.1078300  69.0399170   4.1302148
   0.8114274  59.3420172  36.1876249   0.5393968  59.2615223  35.2734303
   1.7582461  59.2026711  36.1689353  67.8171206  43.3952236  62.1220493
  68.6787510  43.4953213  61.7173195  67.5038338  42.5457478  61.8114519
  13.9499331  64.3762016  11.0619533  13.2929313  63.9850998  11.6378212
  13.6314583  65.2649546  10.9040868  62.3510599  39.0236306  61.8624926
  61.7409182  38.3024478  61.7080402  62.2495556  39.2283225  62.7920294
  16.2658477  71.4558411   2.8164229  16.6589499  72.0581436   2.1848115
  15.8402514  72.0251989   3.4574595   1.7392565  14.5558119  13.5225272
   2.1423262  13.9347899  14.1292393   0.8663997  14.1986203  13.3589208
   2.2295387  77.4493170  50.0533342   2.9773456  76.9364405  49.7467852
   1.4662008  76.9164515  49.8306179  73.3759737  62.0622587  21.4529133
  73.3374357  63.0055809  21.2951279  74.0001011  61.7362690  20.8045101
  67.0424223  67.3507214  42.7618265  66.2438202  67.6979828  43.1591558
  66.9397306  66.4002228  42.8091383  37.5288892   3.0928904  10.7540989
  37.7032804   2.2036678  10.4457116  37.0802641   2.9724735  11.5910399
  32.6871991  51.1356068   3.8793272  32.9761720  50.7121181   4.6876499
  31.7315221  51.1263227   3.9324895  61.8850613  56.7694950  56.2052679
  62.6843214  57.2385311  56.4448929  61.3205862  57.4395466  55.8197403
  16.9768214  52.1430683  20.7284856  16.4338887  52.1978712  21.5149021
  16.3663518  52.2872353  20.0054526  39.8391247   1.1406785  56.9958067
  39.1588235   1.4664525  56.4064884  40.5109501   1.8224312  56.9861555
  52.4633455  31.3422418  49.0848303  53.2873869  31.4167142  48.6035395
  51.8396759  31.0058665  48.4413099  80.4081154  46.9837379  66.9212580
  80.9612179  47.0210361  67.7015877  80.2428627  47.9004240  66.7007732
  59.8332739  10.8261263  14.8160338  59.1695213  11.3920605  14.4218433
  59.4548988  10.5612123  15.6544161  72.7038240  31.2115526   7.2675574
  72.1736050  30.5114055   6.8869042  72.9022455  30.9072614   8.1531465
  17.2660911  46.0246372  52.3964787  17.4792409  45.3298998  53.0194855
  18.0063415  46.6291714  52.4493647  65.2557707  51.7887878  38.7973475
  64.4118977  51.7415762  39.2466545  65.4002333  50.9027195  38.4653068
  30.7600617  51.8854237  31.4022613  30.9080791  52.8029108  31.1730528
  31.5745783  51.4440012  31.1615491  62.6144791  67.6778316  29.1654992
  62.3581362  68.3319378  28.5153723  63.1807613  68.1533670  29.7732997
  17.7835858  46.1033010  28.8204479  18.4564853  45.5135489  28.4804010
  17.8499603  46.0193205  29.7716427  55.4289913  50.3294134  59.4974327
  55.9778738  51.1070633  59.5985699  56.0015106  49.6845341  59.0820026
  73.4925699  64.9289227  21.0822105  73.9299965  65.6281090  21.5680385
  74.1135788  64.6908379  20.3938103   0.7607157  34.0946102  41.9717121
   1.4577135  33.4540629  41.8298531   0.9549612  34.4740820  42.8287458
  49.6672106   1.2127423   3.9973655  48.7117338   1.1935832   4.0514868
  49.8982859   2.1265124   4.1642791  55.6969547  17.8483856  52.5476027
  55.9635258  16.9588530  52.3154306  56.2515879  18.0777037  53.2932711
   8.3511370   4.7555813  10.2274585   8.8949120   3.9700180  10.1688814
   8.7629855   5.3772575   9.6273494  65.7398224  56.1649704  67.0017242
  66.3452768  56.8116570  66.6391611  66.0139465  55.3350258  66.6114950
  11.7348111  34.2520094  49.8458576  12.2138464  33.8167477  50.5510569
  11.2638044  33.5452175  49.4044638   0.9075558  24.0775132  32.5333190
   0.3285088  24.1816020  33.2883692   0.4960575  24.5968318  31.8425131
  12.0752239  38.2936478  56.8466139  11.2474966  38.6794710  57.1333885
  11.8317318  37.4359775  56.4982700  83.5533524  46.5726423  36.8696761
  82.9118729  45.9564829  37.2233415  84.3961811  46.2508440  37.1895385
   2.5203374  31.7154527  45.8842707   2.2121993  32.5016212  45.4334688
   1.8019065  31.4785480  46.4707565  64.8127747  24.5970106  53.9004707
  65.5446053  24.8557544  53.3403730  65.1092768  24.7951889  54.7887564
  22.8183413  61.2785816  58.8957214  23.0045891  62.2171593  58.8708925
  21.8975282  61.2238026  59.1513252  78.9154768  20.8075881   6.7845744
  78.5422277  21.6842461   6.6929841  78.2720661  20.3264999   7.3049653
  36.4733267  19.2514706  18.6021233  36.7853451  19.6496749  19.4147182
  36.0427046  18.4434712  18.8812912  52.0986748  55.7145309  23.2641435
  51.2414169  55.3177834  23.1094670  52.1138000  56.4824247  22.6928759
  51.9423532  30.0021815  53.0378199  52.2701073  30.8767939  53.2472467
  51.5701675  29.6827030  53.8597918  65.3300142   2.3971182  47.6157904
  65.5887604   1.4858772  47.7533436  66.0258675   2.9086104  48.0285740
   2.1009231  46.0050583  54.3871260   2.1712765  45.0955534  54.0971470
   2.8822780  46.1472082  54.9214554  35.7334924  23.2500434   7.5509131
  35.7797146  23.7383366   6.7289245  36.5757966  23.4144497   7.9748529
  20.2926826  29.7004008  11.2022519  21.2053847  29.9745607  11.2919390
  20.3385305  28.8616920  10.7432377  78.3652496  36.0646057   4.7599187
  77.9010344  35.5669308   5.4330122  77.7021170  36.6507721   4.3953690
  78.9170599  45.1446772  65.7080078  79.1703129  44.2976999  66.0750628
  79.2991924  45.7882166  66.3047218  70.5743837  35.2042150  14.2971492
  71.2844515  34.6448278  14.6119797  70.3801441  35.7825994  15.0346947
  19.1780996  67.5513268   6.8644744  19.3191862  66.9663477   6.1200786
  19.1535771  68.4273195   6.4794153  32.7776289  77.4256992   8.6764145
  33.1038976  76.7820358   8.0475450  32.2488093  78.0266237   8.1515551
  74.1574287  67.6515913  32.0185304  74.4895458  67.6823378  32.9157400
  73.5541439  66.9084644  32.0117855   0.2751372  38.6530662  44.9532080
  -0.6207922  38.4231472  45.1995182   0.3745577  39.5629311  45.2333784
  65.4964542  76.4150858  58.8225794  64.9376917  77.0572138  58.3847618
  65.6635809  76.7923737  59.6862698  44.0670013  10.8426511  44.3664837
  43.6383724  10.5250740  43.5717154  44.3079901  11.7465699  44.1637802
  30.3426194   2.9848501   0.0166532  30.1966190   2.3371363  -0.6728269
  30.4513764   2.4659431   0.8136091  32.9624319   8.8146257   2.2100341
  32.4125147   9.5642763   2.4377365  32.8841925   8.2238781   2.9591185
  64.0170527   6.1664832  48.1300259  63.7886333   7.0747942  48.3275795
  64.1136885   6.1454552  47.1779442  16.1086214  62.7846289  55.2062416
  15.4719770  62.9868460  55.8918238  16.9056082  62.5493813  55.6813240
  20.5109477  10.0558865  18.8099504  20.0002146   9.7950244  18.0435729
  20.9451079  10.8664060  18.5438752  30.4838777  73.9381981   4.1351098
  31.1936116  73.3583641   3.8588867  29.9063373  73.3790922   4.6548015
   2.5382516  67.9898357  52.0747423   3.2256693  68.0156517  51.4091396
   3.0064002  68.0700207  52.9057884  69.8763514  46.7668438  37.7308059
  70.7082796  46.3882399  37.4465752  69.2875814  46.0166693  37.8133631
  79.2369413  41.1613178  44.6808481  79.5128632  40.8577251  43.8160181
  78.5679579  40.5331326  44.9530220  50.9833479  32.7451038   5.6296003
  50.6380510  32.4313569   6.4654034  51.7830801  33.2166219   5.8626914
  14.2147994  35.1258588   2.5864395  13.5558379  35.7945037   2.3995841
  14.5460188  34.8689294   1.7259091  14.6593332  14.7751379  29.2255640
  15.3795099  15.3174865  29.5471811  15.0679541  13.9361763  29.0124822
  70.9617090  70.5191374  51.7263174  70.9842730  69.9664164  52.5074816
  70.5644464  71.3377285  52.0235109  12.9839158  38.8859582  17.2198915
  12.9432821  38.0630159  16.7327094  12.2329283  39.3885279  16.9041789
   2.5574416  60.5667639  31.1919117   2.9668558  60.7156944  32.0442200
   2.2978042  61.4389992  30.8952260  69.0669966  27.6611090  57.1330261
  69.1702843  28.4613395  56.6180563  68.3085680  27.8318810  57.6914692
   0.1858937  21.5622067  60.4946089   0.2242176  21.6548896  61.4465427
  -0.0574813  22.4324298  60.1788425  68.2656193  64.5222521  38.3673811
  68.0970192  63.6771345  38.7840223  67.6420546  64.5603895  37.6421571
  59.6636820  53.5157824  23.3009171  59.5241928  52.9561853  24.0648699
  58.7818575  53.7231541  22.9917026   6.0714549  32.5991035   1.2233790
   5.1870567  32.4924612   0.8730950   5.9551644  33.1339192   2.0086680
  64.3408585  57.5260496   0.8628000  64.4431782  57.4016571  -0.0807515
  64.3653822  58.4753180   0.9832891   9.2939854  39.7730780  45.2345371
   9.1547942  39.3756294  46.0941267   8.7216252  40.5402899  45.2298784
  30.3674936  72.2971678   6.3568437  29.6881843  72.3655748   7.0277327
  31.0781550  72.8521252   6.6781110  65.9247541  60.1088333  37.6818442
  65.3469563  59.7957277  36.9858932  66.1012363  59.3329000  38.2138348
  26.7013979  64.7523928  60.4667091  25.8494830  65.1835775  60.3992558
  26.7831087  64.5271111  61.3934278  60.3883028   5.3057897  11.3437736
  59.8312426   4.8922184  12.0032251  61.2022114   5.5030060  11.8073356
  41.6878843   3.1044829  56.9449186  42.5643969   3.1364381  56.5616035
  41.2122250   3.8149700  56.5145779  72.3362350  24.0340161  56.9701338
  71.9061708  24.7976494  57.3550224  71.6330910  23.5633922  56.5225458
  20.0801015  61.9428968  60.6238556  20.3709078  62.7973175  60.9426451
  20.0363708  62.0442200  59.6730375  62.4790239  64.7595072  35.1470399
  63.3334494  64.3532848  35.0015044  62.6589155  65.4903841  35.7383895
  23.8562059   4.5169535  24.8154140  24.0382743   3.6204049  24.5338416
  22.9021168   4.5881855  24.7858930  52.3872519  45.2877760  59.6094275
  52.7142620  46.1526299  59.8570728  52.0162773  44.9317741  60.4168129
   3.7518832  76.3108826  56.0609770   4.0320706  77.0556974  55.5290222
   3.7280616  75.5750942  55.4491901  11.6796279  76.2199974  11.7011595
  10.9454083  75.6421280  11.4932561  12.0164883  76.4954662  10.8485913
  71.8271685  42.1538258  54.0260792  71.3685656  41.3416624  54.2412710
  72.1991539  41.9961405  53.1583261  81.6508293  27.3703265  47.8832006
  82.3173428  27.9656839  47.5403547  80.8198929  27.7543426  47.6033640
   9.3650806  71.0711002  66.1354828   9.8150456  71.6965675  65.5675459
   9.5788199  70.2146482  65.7652950  12.2346330  21.8023205   2.4227326
  13.0034494  22.2062922   2.0202917  11.4905059  22.2508621   2.0210919
  58.3256435  76.1215067  43.3275795  58.3196163  76.8536234  42.7109718
  57.4305820  75.7829285  43.3061361  16.7936039  58.0864191  24.9983001
  17.2595239  58.0652761  24.1624165  15.9133875  57.7733660  24.7898626
  19.5083141   3.5331911  16.8621409  18.8165867   3.7882793  16.2516689
  19.9824345   4.3455011  17.0398867  54.2095423  49.6679640  46.4203405
  54.1795349  50.5725622  46.1088371  53.9935446  49.7278166  47.3509312
  76.7748594  32.5514674   6.8327713  76.4993954  32.7922344   5.9482467
  77.4863338  31.9250655   6.6998869  42.0875835   1.4219230  49.1044807
  42.7593422   0.7966774  48.8323832  42.5522089   2.0443356  49.6639061
  83.2834625  44.5180464   1.5874588  83.2665062  45.4514980   1.3762555
  84.2134380  44.2916203   1.5975673  75.4804754  38.2157540  17.4378550
  75.1537752  37.8327155  16.6237414  75.7001686  37.4622846  17.9858065
  20.5490541  16.0212350  35.1201200  21.0646176  15.5196917  35.7516885
  20.6410098  15.5384910  34.2986965  12.0913494  70.2535486   6.0473788
  11.4754140  70.8715963   5.6538361  12.8862929  70.7668066   6.1918205
  16.1239064  70.9772062  14.5779276  15.4257834  70.6255150  14.0255034
  16.4464378  70.2203417  15.0671780  73.6076021  54.0577173  35.9475160
  73.1623030  54.8984051  35.8417416  73.0450249  53.4299660  35.4940176
  61.5995550  65.1928616  29.2960405  62.1289539  65.9896898  29.3282437
  60.8616590  65.3718328  29.8788857  59.7609043  47.9949570  47.5927639
  60.5919695  48.1514263  48.0411863  59.7572613  48.6219215  46.8694830
  41.9523048  30.4993629  55.8129692  42.4906301  29.7803640  55.4820967
  42.4381208  31.2899971  55.5782032   7.8255719  43.7629700  63.6018372
   7.0996678  43.4040213  63.0914879   7.7081877  44.7115755  63.5508347
  67.2851038  26.6407490  59.1215897  66.7002773  26.1602139  59.7075081
  68.0347300  26.8734980  59.6694183  53.5112906   4.0128446   6.8445486
  53.8311577   4.8661250   7.1375179  52.5658464   4.1303423   6.7520267
  78.2784796  56.9658375  35.2106810  77.5680304  57.6064062  35.2447510
  78.9436102  57.3750687  34.6571779  46.2997913  73.0260038   3.2781452
  46.3606501  72.4344397   4.0281972  46.4959860  73.8907623   3.6386022
  72.9256725  44.5140982  46.4781189  73.1940413  43.6248159  46.7091656
  73.7480450  44.9855614  46.3452435  58.7079763  69.8867226  25.7209706
  57.9093742  70.3771925  25.9156585  59.2761707  70.5190754  25.2810621
  43.5139608  65.9315014  53.4417915  44.2265415  66.4952135  53.1406546
  42.7170467  66.3886499  53.1731367  55.0876713  61.6365051  43.9480639
  54.8859501  60.7276630  43.7254858  55.8303547  61.8611908  43.3875513
   6.8819177  43.0785513  49.7422075   6.9144350  42.3672676  50.3819323
   5.9776682  43.3905935  49.7767448  77.7958059  52.7611732  49.7595596
  77.6013565  53.2520199  48.9611292  78.6396027  53.1051588  50.0526667
  69.0461016  31.7024422  52.8975439  68.2182169  31.5148592  53.3398676
  69.2741871  32.5876307  53.1815338  58.8363838  14.7358048  47.6139688
  58.0136585  15.2044141  47.4733973  58.8368988  14.0478325  46.9484425
  56.5356636  71.1801004  26.4903665  56.6384029  71.9333267  27.0720267
  56.0925150  70.5223322  27.0262742  44.6715689  21.6303086   3.1259146
  44.7298861  20.7598257   2.7321023  44.6633387  21.4664912   4.0689567
  20.0025415  65.9203911  20.4873228  19.7900116  66.8323278  20.6859231
  20.8675408  65.7862329  20.8746362  14.5800257  35.4408193  54.4185781
  15.1770461  34.7002625  54.5252228  15.0285900  36.1729503  54.8416710
  30.4944539  30.2210879  65.3186655  29.7313547  30.7629943  65.1180506
  31.0911775  30.3665209  64.5845032  74.8873377   3.7847358  32.6870084
  74.8375607   3.9776808  31.7507792  73.9873171   3.5751516  32.9365396
  56.0673904  17.6306903   6.4902240  56.3576317  17.2212315   7.3052925
  56.5604353  18.4498894   6.4449108  56.8648815  37.0949006  61.1709833
  55.9989500  36.8230915  61.4751434  57.4763298  36.6245055  61.7376328
  60.5203819  36.0877132  65.5603695  59.7094584  36.5136695  65.2825308
  61.0770226  36.1013579  64.7817850  39.8524714  67.4771643  14.1199243
  39.6893549  66.7435551  14.7127509  40.7968950  67.6233530  14.1739690
  64.0684509  19.3147469   8.1552458  64.2265320  18.5135174   7.6559722
  64.5207882  19.9982309   7.6608050  12.5793505  66.8958282  51.6565657
  12.9384971  67.6254606  51.1517143  13.0579698  66.1286926  51.3424635
  64.3033886  55.5889177  25.2871275  64.1226864  54.7571421  25.7249999
  63.8634634  56.2448215  25.8279467  75.1700497  58.5938787  67.5542641
  75.3240252  57.7824831  67.0703697  74.4226933  58.3976793  68.1192350
  14.1264820  45.4357624  47.2580338  13.8708985  44.7443199  46.6474438
  14.6372318  44.9848270  47.9303598  76.1765862  64.0612507  -0.0831722
  75.6417704  64.7768784  -0.4268095  76.7899895  64.4869280   0.5158005
   2.9881796  54.8852015  54.4852877   2.9419446  53.9299154  54.5243216
   2.1468440  55.1801491  54.8337030   5.3714824   7.5787485  61.8089056
   4.5835984   7.9688770  62.1874142   5.9522694   7.4384677  62.5567293
  10.0530052  54.4860172   0.5185879   9.3929005  53.9413977   0.9474069
  10.3867030  55.0511456   1.2153710  34.5756650   7.3315394   0.3946846
  35.4731750   7.6575840   0.3283153  34.1357636   7.9566008   0.9708931
  76.4301777  61.9730568  27.8118896  77.1903753  62.4092007  27.4270415
  76.7826128  61.4960909  28.5632372  72.6966190  61.2629461  17.4732590
  72.6848841  60.3938007  17.8741109  71.8575859  61.6519165  17.7201545
  75.0988340  37.2121882  39.6037531  75.1812315  38.0258155  39.1063046
  75.9864187  36.8545723  39.6267319  37.2432256   8.5097003  37.8643131
  36.6982007   9.1674149  37.4323487  37.2455001   7.7666861  37.2608590
  81.6850471  27.3983788   3.2232863  82.6316929  27.5352144   3.2603860
  81.5153408  26.7198443   3.8767543   9.8076576  45.1021004  57.0931482
   9.2121649  44.9308729  56.3635588  10.5097842  44.4606018  56.9848585
  61.8098688  22.9767919  16.1236012  62.7178574  23.0795264  16.4086139
  61.3724709  23.7727904  16.4257598  10.2299213  22.1356750  62.7045345
  11.0243893  22.3454976  62.2135878   9.6266752  21.7890072  62.0471525
  75.1720333  35.2746463  57.7848530  74.3304253  35.3738928  58.2299089
  75.5686998  36.1448264  57.8257847  24.9616671  10.5335510  47.2842073
  24.6005201   9.9979317  46.5778637  24.6974540  10.0823796  48.0859947
  44.2331123   7.3830658  22.9787636  43.6920881   8.0353552  22.5337410
  45.1329660   7.6577151  22.8025246  29.1674995  32.5137687  40.6312132
  28.6136007  32.4197268  41.4061880  30.0333619  32.2246265  40.9191561
   9.4049996  77.2708559   9.5913607   8.5189766  77.4067020   9.2555904
   9.4422364  76.3369846   9.7980666  70.4149961  50.1250076  33.9987540
  69.6136093  49.7702980  34.3837142  70.8617353  49.3626356  33.6307311
  24.1663742  58.9372635   9.9720567  24.0619588  59.1122293  10.9073198
  23.2847500  58.7199593   9.6691531  77.2101641  74.6324492  26.4526796
  78.1375837  74.5617914  26.2265539  76.7603731  74.1177464  25.7826066
  26.5775967  46.6096449  65.9225321  25.6993556  46.3937235  66.2360620
  27.1163774  45.8639812  66.1869955  78.3209229  73.6383820  65.2667379
  78.9866686  72.9595327  65.1563644  78.6438751  74.1751385  65.9905005
  54.1142559  50.0355196   9.7375876  53.6305714  49.7461224   8.9639372
  55.0238657  49.8017550   9.5526832   3.1050938  29.7983766   1.6522495
   3.1844425  29.1031313   0.9991263   3.8517866  29.6648884   2.2360843
  29.4644308  45.6376791  65.9720802  30.3795958  45.3807974  65.8593178
  29.0709567  45.5070925  65.1093197  10.7758355  56.7294025  50.3419065
  11.5861058  56.4143848  49.9413347  11.0129035  57.5706434  50.7322073
  68.4081793  19.3865919  55.7504082  68.2196522  18.7969267  55.0203514
  67.7011395  19.2273092  56.3756752   1.8772548  46.0053301  46.3949633
   2.5920105  45.9245253  47.0264912   2.2924735  46.3555145  45.6068039
  12.8998315  60.8841562  51.5485334  13.4455895  61.1302233  52.2954178
  13.4495616  60.2924347  51.0348272  64.1340303  28.3393240  20.1629066
  63.2795954  28.4824157  19.7558510  64.6215534  27.8228116  19.5212150
  20.7919383  72.6782894  62.1344709  21.2048745  71.8156719  62.1745014
  19.9241936  72.5463963  62.5163794  59.7658253  35.6393409  68.0926180
  60.0095606  35.7827926  67.1781540  59.6075726  34.6972704  68.1533623
  67.6513815  46.2504864  65.5465412  67.4696302  45.3395700  65.7776785
  68.2881546  46.5408230  66.1995792  18.2222414  77.3532391   4.3120226
  18.6051750  76.9894218   3.5137543  18.9757681  77.5933743   4.8512480
  22.0356631  60.3548241  55.1503420  22.3812747  60.2557135  54.2632341
  22.5330567  59.7256899  55.6728506  62.5683260   4.0939835  33.5160255
  63.2984638   4.6705103  33.2907486  61.8988657   4.2877799  32.8599024
  27.6093864  34.9544930  19.0049803  28.4308767  35.2893519  19.3645012
  27.4867392  35.4440022  18.1916094  57.5122023   9.4185781  51.9398928
  58.0352020   9.2309183  52.7193069  58.1547356   9.5073140  51.2359667
  29.3413925  53.1225538  28.1856585  28.9182949  53.4601736  27.3962069
  30.1512051  52.7212334  27.8704214  80.3644371  51.3057804   8.6602104
  80.6319427  50.3947687   8.7815702  79.4080925  51.2733793   8.6359125
  14.8049891  78.1333971  58.1046581  14.4416356  78.2793045  57.2312069
  15.2513099  78.9527702  58.3183384  76.6449881  46.6959333  37.2987366
  77.5403738  46.9127703  37.5585318  76.4740705  45.8495283  37.7117896
  63.5140514  17.5589526  50.7934284  63.4704018  16.6058993  50.8709860
  64.3967485  17.7324629  50.4663610  44.7860241  14.2862093  64.2923498
  44.0357018  13.8841116  64.7300339  45.4658747  13.6127818  64.3153381
  22.5329852  12.4003661  19.2183983  22.8224301  12.2228968  20.1133609
  23.2779598  12.1505189  18.6717522  48.3092642  20.0982523  55.8855295
  48.7469673  20.8289504  55.4488087  47.8741503  19.6223402  55.1781321
  37.8053546  18.5729444  33.6131978  38.0409575  17.8635430  34.2110872
  37.2381544  18.1593180  32.9624844  62.1783066  29.5940900  48.2356453
  62.3116827  28.6473322  48.1899118  61.7122316  29.8096061  47.4278307
  75.9529924  24.5896149  26.8495297  75.6206560  24.3611479  25.9814358
  76.4268398  25.4105377  26.7161679  17.2217381  28.4249187  44.1799545
  18.0517673  28.5634971  43.7237930  16.5568972  28.7441230  43.5697651
  71.6817236   7.4950624  22.9612827  72.3012781   8.2060695  22.7974176
  70.8827114   7.7644438  22.5082374  44.1479588  71.1020899  22.1723533
  44.6838331  71.7956066  21.7875099  44.4849968  71.0053205  23.0630112
  71.2858009  33.1914926  46.3272715  72.1106434  33.1892967  46.8129253
  70.6417274  33.5274005  46.9506264  16.2618876  65.9624529  16.7975414
  16.7968714  66.6629553  17.1708024  16.2008321  65.3100157  17.4952734
  44.2647219   8.6020768  42.0000553  43.9113092   7.7622384  42.2933149
  45.1972055   8.5564280  42.2113037  51.4641523  63.2395363  60.4402971
  51.0196638  63.9450836  59.9703312  52.0087433  63.6884165  61.0869503
  77.5793648  53.2676268  65.7794857  77.1322584  52.7230978  65.1315546
  77.7353287  52.6804495  66.5191650  59.0669394  22.1064925  15.1217234
  59.1081572  21.2068772  14.7973418  59.9455452  22.4555850  14.9719739
   6.1752838  23.8006997  61.1574936   6.6066927  23.8364840  62.0112133
   6.7554516  24.2912030  60.5752182  66.8489885  15.7226408  56.6681290
  66.2427616  15.5058992  55.9597921  67.6266432  15.1944470  56.4878559
  13.7593031  29.2592812  23.0744338  13.0353487  29.4713044  23.6636448
  14.5052338  29.1102552  23.6554742  57.9608583  60.0326395  65.1844931
  57.9065418  59.4886637  65.9702253  57.6861572  60.9021139  65.4756737
  63.3331203  26.8182492  62.4880934  63.6859894  27.1749973  61.6729546
  62.4075937  26.6620994  62.3003531   7.6096779  37.8543949  65.9537649
   8.2625651  38.3991981  65.5142641   7.0875829  37.4848151  65.2416849
  62.8564787  55.0639582  53.5594320  62.9482412  54.1547012  53.8441563
  62.0555401  55.0711489  53.0353308  23.9514947  65.3057480  10.4098010
  24.3391585  66.0168076  10.9200323  24.2868209  65.4369116   9.5229059
  81.5835285  77.8543615  22.8953671  81.7069340  77.0668030  23.4252286
  81.4237022  78.5497236  23.5334587  64.6018219  23.9590287  41.5771294
  64.3628693  23.1683636  42.0608473  64.2167616  23.8346624  40.7096672
  65.8547068  38.3506966  65.4643536  66.7447853  38.6478901  65.6532145
  65.3073263  38.8172793  66.0959435   0.9633873  30.3158760  56.7974472
   1.2858199  29.5664096  57.2980165   1.3923401  31.0728383  57.1964931
  61.2614679  60.1859379  42.2986460  60.8361244  59.4962835  42.8082418
  61.8649960  59.7190857  41.7206907  76.7825508   4.1714481  44.9420166
  76.4824915   4.4567505  45.8050299  76.8730068   4.9814320  44.4400406
  36.4534664  72.2499132  44.9434853  37.3185182  71.8889761  44.7494698
  36.6123033  72.8957176  45.6319189  83.0103493  17.1245170  32.4448299
  83.5273266  17.5361121  31.7523336  83.5204029  17.2680640  33.2419944
  70.8901978   8.0402297   6.7801386  70.2362156   7.4889332   6.3504797
  70.7808542   8.9009219   6.3758069  66.8696260  28.3614492  18.6775279
  67.6573324  28.3625102  19.2213631  67.1243238  27.8839684  17.8879881
  36.3608146  72.5475931  26.3105345  36.7536211  71.7492008  26.6633773
  35.5336833  72.2577429  25.9257340   1.4761934   6.5430993   0.6959832
   1.3385741   6.6686630  -0.2429132   2.3172605   6.0901099   0.7563037
  45.4162788   8.4946370  13.3513594  46.0380888   7.8978783  13.7678456
  45.4751730   9.2994642  13.8661563  69.3218660  37.7784824  35.5094004
  69.1317606  38.0857968  36.3957691  70.1067066  37.2391248  35.6060767
  19.9819493  44.0069723  28.7817025  20.1337767  43.0751038  28.9391875
  20.8039904  44.4291067  29.0312719  34.4666004  72.7644014  61.5109634
  34.1912341  73.2533121  60.7354832  35.1070094  72.1338081  61.1816359
  81.5214920  70.2614927   8.8803327  81.1697292  69.9625301   9.7188503
  80.7477760  70.4677296   8.3558702  11.2176108  25.8238316  46.2116098
  10.6662786  25.5959392  45.4630566  11.0476136  25.1340318  46.8530989
  68.3489513  10.9024942  49.8916006  67.9376793  10.3991890  49.1889095
  68.7319040  10.2408528  50.4676294  72.8518581  48.4168100  53.1338692
  73.5010672  48.6700678  52.4776554  73.3063126  47.7821970  53.6879158
  56.6021776  60.4708815  37.0129347  56.3672495  61.3459730  37.3215652
  56.3508558  60.4671669  36.0893250  46.6288185   7.9332161  42.7573013
  47.2540665   8.6262292  42.9694986  47.0681620   7.4116927  42.0855713
  70.7600927   3.8139057   7.0805734  71.1016846   2.9594606   6.8169999
  69.8968840   3.8637891   6.6699553  51.6599369  10.4079616  29.8900604
  52.4331093  10.4790676  30.4498625  51.9995785  10.4993141  28.9998174
  42.7250910  10.0362921  31.2840319  42.0516539  10.4299867  30.7293081
  42.2887707   9.2921448  31.6988826  58.0919409  25.0798488  43.2063913
  57.6529360  24.3805408  42.7221680  58.9637041  24.7312975  43.3928680
  32.9080701   9.8593134  28.2316351  32.9228806   8.9024043  28.2132721
  32.0175862  10.0901914  27.9671240  71.3789511   5.9148657   3.8458875
  71.0192537   5.2432334   4.4253355  70.7330227   6.6209382   3.8676727
  57.8284979   7.8875369  12.2984898  58.4592724   8.3672172  11.7615879
  58.3661222   7.3146272  12.8452682  70.6775713  46.6656399  13.7783110
  71.2869787  46.2478161  14.3868136  69.8164511  46.3400173  14.0403676
  74.6585178   8.7005973  10.0012171  74.2246866   8.2569677   9.2723703
  75.4842615   9.0148818   9.6329683  29.6667981  18.0878937  57.5078011
  29.2096853  18.4378350  58.2725382  28.9674425  17.8462207  56.9005680
  62.1292543   9.1779631  26.1271906  61.9863987   8.6081231  25.3714752
  61.3607359   9.7482860  26.1457872  60.2504110  10.3472257  33.7160134
  60.3585529   9.4000989  33.8025427  60.7716227  10.7140422  34.4301677
  75.4126358  22.4107003  28.1124473  75.6980705  21.6857767  27.5563502
  75.5519485  23.1921577  27.5775170  62.2464180  21.8523479   5.4703122
  62.0621300  21.1866951   4.8076075  63.1943655  21.8092823   5.5959076
  75.9436846  13.2525623  30.6666398  76.0890245  14.0097129  31.2339401
  75.3171682  12.7106607  31.1462760  29.0185523  74.9582767  55.7656765
  28.5320497  74.2395926  55.3618908  29.9059582  74.6160269  55.8734179
  69.3163729  16.5250754  45.1569748  68.3659506  16.6329932  45.1927328
  69.5888710  17.0499206  44.4043016   8.2354176  43.3981276  52.8473377
   9.0270674  43.0420828  53.2507706   7.7659917  42.6299000  52.5222254
  60.1992846   3.7244046  50.4694557  59.3895960   4.2341495  50.4976225
  60.0263643   2.9689324  51.0312271  59.5161104  24.6725965  47.8547096
  58.9597940  25.2765536  47.3627996  59.4615698  23.8485670  47.3707342
  55.1073647  14.1788006  19.7797096  54.3413448  14.0758646  20.3443789
  55.8546114  14.0509522  20.3640962  61.6200972  10.6541800  65.8851480
  60.7353449  10.4176641  65.6067371  61.5006447  11.4364946  66.4236164
  42.6924849   3.1599587  51.8960190  42.6307821   3.4246263  52.8138304
  42.9784822   2.2470689  51.9287062  19.8293173  24.6946287   8.0385846
  19.1557360  24.2857003   7.4951726  19.3608773  25.3638482   8.5375243
  72.2139168  29.2828274  26.5409517  73.0469179  29.2894268  26.0694671
  71.7939615  28.4652066  26.2738037  40.8545780  55.8821726  13.4947550
  41.3645363  56.6914177  13.4588039  40.1957464  56.0440445  14.1700149
  77.8879452  43.7589169  22.6793742  78.3867931  44.4768429  23.0692005
  77.7518463  43.1431437  23.3994651   7.4444479  32.8176141  49.8616505
   6.8193799  33.5296202  49.7253704   7.1359384  32.3762465  50.6530094
  73.6329780  -0.3299316  68.2559395  74.4559465   0.1533762  68.1826305
  72.9548679   0.3256622  68.0928755  69.2637062  24.0620542  32.8966475
  68.5392714  24.1492081  32.2771072  68.8426781  24.0406871  33.7560105
  26.9502664  75.3839970  42.5701427  26.6048217  75.2595711  41.6861629
  27.5010872  76.1640692  42.5044394  83.6385918  40.0262785  31.0797811
  82.7768993  40.0510168  30.6637168  84.2520523  39.9141049  30.3536177
  72.3473215   6.9925022  60.7244349  72.8570318   7.1035028  59.9218702
  72.3748255   6.0514623  60.8974075  24.2841697  77.5454378  52.5931215
  25.2006745  77.5398922  52.3170424  24.2708850  78.1070232  53.3681583
  24.5877457  61.2611341  62.0093632  24.1301656  62.0956612  61.9073391
  24.3203378  60.7466793  61.2477493  36.0590172  65.4480743  44.8834133
  35.5123448  65.2671957  45.6480455  36.0316086  66.4002323  44.7892237
  72.3737860  14.8760772  20.2578282  71.6453362  15.3372800  20.6736279
  72.8593493  14.4891226  20.9863353  58.5462379  27.3439908  53.5340595
  58.5101986  28.0882335  54.1349173  58.1376839  26.6259003  54.0174437
  56.8764496  35.2153301  53.0065489  56.1778450  35.7686901  52.6572895
  57.6292324  35.8012509  53.0855417   4.1784114  41.2089825   2.9814899
   3.3256185  40.8781528   2.6994815   4.7332773  40.4305077   3.0297744
  44.5191383  70.6033945  40.4033041  44.8041487  69.9143028  41.0034323
  43.7106323  70.2659178  40.0177479  62.0275450  11.9389641  43.4194899
  61.7774534  12.1610737  42.5226355  61.3114452  12.2755265  43.9581585
  48.5327959  77.8081417  31.2816358  48.9603186  77.0268106  30.9309578
  49.1122007  78.5291529  31.0353351  73.8387394  22.8589439  43.4259748
  73.3282375  23.5124612  42.9479218  73.7331629  22.0543289  42.9183531
  65.1170969  13.0274713  33.6543393  64.3621111  12.9383552  33.0727124
  65.7441139  13.5502088  33.1545138  81.8994045  13.9051378  23.3394980
  81.8391991  13.0217266  22.9759145  81.0310650  14.0731800  23.7055373
   7.3199397  32.4866939  35.7463360   7.5740713  31.5646434  35.7080150
   7.5595450  32.8370333  34.8883820  82.8711700  41.3923502  42.5661039
  82.5886536  42.2952032  42.4202681  83.7674427  41.4716291  42.8926611
  26.6563702  13.2101679  66.2265968  26.9552755  12.3023319  66.1744404
  26.3054562  13.2962406  67.1129847  17.3764765  41.0668373   6.3088387
  16.7247021  41.5444994   5.7957470  18.2133293  41.2923908   5.9025949
  60.4213524  18.6618602  56.0328865  60.0923347  19.5562851  56.1222172
  60.7829571  18.4525430  56.8940878  34.8458171  73.1166935  30.7196832
  33.8956690  73.1262064  30.8352780  35.1954341  73.1091452  31.6107178
  52.4989510  28.6008310  62.2217178  52.2806406  29.2315221  61.5355635
  51.8237114  27.9261351  62.1505165  82.0912266  29.2895126  26.7649293
  82.1392059  30.1432347  27.1951509  81.1542892  29.1017222  26.7091775
   6.5089822  25.1448178   4.5395583   5.5866754  25.0980639   4.2877740
   6.7335612  24.2497039   4.7936630  72.8075504  26.2225628  36.3360596
  72.3818684  27.0706940  36.2107539  72.6703072  25.7611346  35.5087256
  46.8013573  13.0911386  56.1270380  46.2141991  12.7034354  55.4780722
  46.2680912  13.7528729  56.5674543  81.5127373  37.3005128  23.2003665
  82.2913456  36.8464375  23.5225749  81.6743469  38.2229733  23.3983040
  30.0582051  71.0707140  27.7057934  30.4061079  71.7757034  28.2518578
  29.2558265  71.4327145  27.3297954  81.6848373  12.2214150  40.1168299
  80.9065819  12.7305055  39.8901439  81.3621998  11.5409708  40.7077074
  23.9306164  72.0871019  46.8193102  24.2062449  71.9323111  45.9158182
  23.2628465  72.7696276  46.7524099  53.9238644  48.2330894   2.4279411
  53.1149530  48.5517597   2.8283679  54.3221426  47.6800680   3.1000823
  29.7181726  70.3686047  49.7749281  28.9239073  70.8159876  50.0668478
  30.3312922  71.0756969  49.5741034  23.4750056  15.3048337  32.6874399
  24.0223479  15.7135236  33.3579779  22.8373885  15.9797335  32.4546576
  75.1837349  21.8996811  36.6513848  75.4993010  22.7935195  36.5183306
  75.0843477  21.5466666  35.7672262  28.2432985  34.9785233   0.1495860
  27.7786875  34.9072862   0.9834278  29.1524410  35.1490569   0.3957792
  26.5765858  56.7145491  32.1492290  26.4425826  55.8031654  32.4093199
  26.7597795  57.1731663  32.9691958  46.4175558   5.5582565  44.4540882
  46.8779230   5.3030515  43.6546135  46.1703968   6.4712399  44.3070936
  46.8767548  14.9262321  22.1656585  46.0311794  15.3484118  22.0140028
  46.8028545  14.5502734  23.0428267  59.3181276  28.6154723  50.1916456
  58.7689638  28.8715196  49.4506454  59.8362923  29.3962693  50.3868198
  59.1716480  18.5289967  37.9598761  58.5539246  18.0888700  38.5437751
  59.6283531  19.1547596  38.5220790  82.0304871  19.3189287  66.1091614
  82.4013138  19.9574149  66.7183065  82.7920628  18.8953829  65.7131290
  79.9431610  20.8345079  37.0609713  79.4283485  20.4511213  36.3508892
  80.8143711  20.4512835  36.9591188  74.3113565  18.8178086  35.7262182
  74.5557022  19.5741880  35.1929092  73.3605909  18.8843179  35.8148265
  47.6916361  11.6604698  41.5189362  48.0252171  10.8763063  41.9548750
  48.0873680  12.3879898  41.9988775  50.6964779  66.9118404  28.4714484
  50.4016542  66.0106039  28.3407521  51.3747835  66.8468428  29.1436911
   6.8813604   3.1311926  55.4694414   6.9102067   2.1767606  55.4026651
   6.1828303   3.3922732  54.8693371  79.9612474  77.3756838  26.6836977
  79.0238953  77.5420427  26.5840840  80.0778198  76.4744139  26.3831091
  40.1937723  21.5994930  55.7507563  39.2885780  21.3087773  55.8618402
  40.2054214  22.4879050  56.1068773  73.1836367  36.3560653  59.5309210
  72.3146534  35.9842825  59.6821785  73.0234289  37.2887850  59.3873978
  39.6600389  13.5148430  62.7480125  39.5577908  12.8274953  63.4062910
  40.5264902  13.3594406  62.3720598   0.6317326  67.1124077  30.5447388
   1.1210072  66.9823074  29.7323871  -0.2703509  67.2590113  30.2601600
  62.6025295   5.3561652  24.4070768  62.1873093   4.7276327  24.9976468
  63.4630585   5.5164039  24.7944379  50.0949097  73.2749653  28.3643389
  50.8218002  73.4287500  27.7608442  49.7388697  74.1464520  28.5374665
  37.3116708  27.3584270  36.5764117  36.4510775  26.9393992  36.5711546
  37.2779346  27.9839182  35.8526325  32.8091240  75.0567341   1.7828235
  31.8753123  74.9618912   1.9705257  32.9989719  75.9759808   1.9703916
  52.4967527  11.5121424  41.2467957  53.1250525  11.2348115  40.5800438
  51.8350554  12.0053983  40.7619381  62.3857117  78.2749701  60.9047604
  62.3436785  77.3503399  60.6607866  61.8275595  78.3439207  61.6793203
  82.3016739  41.2210798  34.9336886  83.1727791  41.2030888  35.3300261
  82.3926449  41.8064833  34.1818523  71.0157442  16.8676329  21.5711164
  70.9194756  16.9405854  22.5206661  71.7441893  17.4511337  21.3586974
  64.9389076  12.9086840  45.9465313  65.5532885  12.5763977  45.2920485
  64.0889072  12.5625539  45.6746387  30.4323721  71.5181398  58.4571695
  30.3484035  71.5830755  59.4084644  29.8423743  72.1913385  58.1181383
   2.8099760  48.9004469  18.2604432   1.8723881  49.0713215  18.1712127
   2.9639202  48.8967896  19.2051768   9.5439500  39.4132447   5.4798609
  10.2044106  39.8965788   5.9762597   8.8354242  39.2640877   6.1059403
  63.4308386  65.0189447  58.7029982  62.8589582  64.9652195  57.9372978
  63.7333965  64.1211224  58.8394308  28.9071918   2.0797415  35.8678317
  29.0635896   2.4454591  36.7384768  28.4182572   2.7609617  35.4061913
  62.6049089  31.2886858  57.9411650  63.2872295  30.8026743  58.4042645
  62.9703426  31.4434576  57.0701122  33.2376933  28.2862830  38.7345743
  33.4444427  27.8780985  37.8938150  33.9650822  28.8876748  38.8941550
   2.1644703  51.5296936  49.6066952   1.6024277  52.0123339  50.2128267
   1.8512791  51.7811346  48.7378311  41.0957193   6.9519788  22.4986887
  41.3186216   7.8700644  22.3448515  40.7407427   6.9373810  23.3875132
  64.9691820  52.8313828  67.3873663  64.4573975  53.2668304  68.0690527
  64.7681713  51.9016266  67.4940491  12.7828956   7.1188754  38.8158345
  12.1251178   7.3292488  39.4786334  12.3011625   7.1286553  37.9887509
  58.0963802  76.3749218  32.8607774  58.2875586  75.4564476  32.6708102
  57.1907902  76.4951468  32.5749803  66.7703485   9.1711545  48.1078959
  65.9240246   8.8987690  48.4625435  66.6615152   9.1149461  47.1585655
  66.1214209  20.4128098  52.1569014  65.8608866  20.3288102  51.2396765
  65.3790569  20.0631762  52.6497364  54.0662241   3.8989979  66.2063265
  54.3103552   2.9753977  66.1463642  54.8469639   4.3311054  66.5526819
  72.4419880  60.0631762  46.5971994  72.0433903  60.5624819  47.3099709
  71.8624544  60.2088308  45.8494282  15.5749166  37.6414227  66.3991356
  15.8944011  37.7760482  67.2913456  16.3677275  37.5211763  65.8764267
   1.7819405  40.6119871  28.7388754   1.5678269  41.4779282  29.0860462
   2.7009207  40.4808569  28.9723516  70.9680605  67.7744436  47.2014761
  70.6496191  68.1078768  48.0403137  71.5790892  67.0764923  47.4375582
  38.0432034  74.8785591  12.7566838  37.6295757  74.2364025  12.1798193
  38.9375758  74.5570993  12.8706646  49.7676229  75.9525633  29.7098732
  50.0251532  76.5018415  28.9694667  50.5924082  75.7316017  30.1424694
  62.2681379  16.9818997  66.3529158  63.0889177  16.5041900  66.4726925
  62.4602556  17.8684819  66.6583586   6.3102072  75.3206348  14.9349928
   7.1075445  75.7002687  15.3042650   6.3012809  74.4200754  15.2592540
  11.4373839  23.4037590   8.7084985  12.2333038  23.0345798   9.0911859
  11.2158477  24.1392231   9.2796773  35.2191496  14.8930931   6.2546897
  34.9539781  14.8677278   5.3353029  34.9472070  14.0451872   6.6058809
  68.7263536  33.0886650  44.7633266  69.4146967  33.1989646  45.4192591
  68.8482618  33.8235950  44.1622877  12.5191200  30.8056378  41.7448425
  12.7405858  30.3253174  40.9470510  11.5660369  30.7415938  41.8061972
  13.8436806  64.9042559  61.5658808  14.6147537  65.4598236  61.6800117
  13.2277465  65.2096272  62.2319221   7.4910378  26.0472059  19.8608553
   8.2108831  25.5124712  20.1956892   7.7394789  26.9459081  20.0772810
  70.8834553  15.7763553  39.2431903  70.5491209  16.5470195  39.7020268
  70.0987387  15.3036976  38.9656258  22.7939129  65.6916809  23.9824557
  23.5740995  66.0074329  24.4383502  22.1020675  65.7209063  24.6433091
   4.9591494  76.6952276  50.1965904   5.0017148  77.2734451  49.4349575
   5.2077001  77.2521830  50.9343243  72.7860451  32.2049618  39.8516035
  72.9096079  33.0372691  40.3079224  73.0189753  32.3933578  38.9424920
  28.2014251  35.1920986  15.7547200  27.5824928  35.9210777  15.7964718
  28.7466812  35.3842402  14.9918258  32.9919124   5.8723396  41.3359451
  33.6677408   6.4048386  41.7553854  32.9652238   6.1873424  40.4324532
  43.2579851  72.9746246  43.6075306  44.1220045  73.2827902  43.3341551
  42.6952839  73.7457371  43.5369587  18.6793685  28.8761306  40.3865051
  19.0181458  28.1363273  39.8823667  18.9699984  28.7082458  41.2829304
  61.3067150  73.6900377  21.6335845  61.9193983  73.9609194  22.3173046
  61.4815331  72.7569151  21.5113115  36.6439247  26.6170454  23.4866667
  37.2196412  26.1873865  22.8540730  37.2334266  27.1387196  24.0312576
  76.5524197  27.3953748   0.1310887  75.8223343  26.8061590   0.3209036
  77.3343849  26.8659568   0.2875595  35.0885272  53.0848789  42.5531864
  34.4986892  52.7050018  43.2043505  35.6711078  52.3656321  42.3092270
  52.2826004  25.7947421  65.2916718  53.0782509  25.3713059  64.9693918
  52.5430107  26.7012620  65.4548931  22.0118523  76.7715359  23.5451818
  22.9148865  76.6705847  23.2442331  21.8665481  76.0219336  24.1224289
  27.3456025  64.7835875  25.1744580  26.4322543  64.7223377  25.4542375
  27.7647614  64.0114307  25.5543423  36.0618830  28.3710790  39.5578074
  35.8938074  27.4315834  39.6308088  36.6228628  28.5729337  40.3066635
  36.4729786  66.7764902  40.1196575  37.2557139  66.3550472  40.4745388
  36.2222886  67.4161291  40.7861710   1.0121495  28.9200258  12.7419925
   0.4440558  28.3310056  13.2385385   0.7913710  29.7938776  13.0642831
  69.7003841  16.3701439  49.0595150  69.1419125  15.7351184  48.6110926
  69.9244976  17.0107377  48.3844995  40.5291510  78.0988264  62.2188282
  40.8014297  78.7897968  62.8226995  39.8954344  78.5226154  61.6400051
  21.6621017  75.3805161  57.8593016  22.5244689  75.7838821  57.7600527
  21.0842299  75.9131384  57.3128510  66.1458302  34.7534513  65.9283352
  65.6021833  35.2380300  65.3071547  65.9983158  33.8335037  65.7088661
  65.2900267  16.0207665  53.7462473  64.4722509  16.4913607  53.9075375
  65.0849056  15.1078939  53.9482880  62.0608902  17.6740718  31.5878296
  62.9881525  17.8577328  31.4372301  62.0583773  16.9718456  32.2382927
  79.5234108   7.3458338  42.3367739  80.3724766   7.4980003  42.7516890
  79.0066338   6.8974346  43.0061865  35.0050569  56.2131071   1.8278393
  34.7956276  55.4530716   2.3707142  34.5149612  56.9332314   2.2246531
  61.0373640  50.8932924  36.2453222  61.1837626  49.9479103  36.2777710
  61.1539507  51.1221981  35.3232360  57.9975605  45.8038855  58.1183672
  58.1157207  45.7281637  59.0652227  58.8730860  45.9956026  57.7823114
  80.8824730   6.1376166  34.6180439  80.2432156   5.5807400  35.0624156
  80.3702641   6.6185987  33.9680243  12.3450589  12.7054799  59.8094463
  12.6942503  13.5354280  60.1342249  11.4093471  12.8690863  59.6915054
  44.5618773  21.4502120  61.6914606  44.5590401  21.4602542  62.6486063
  44.6244812  22.3723316  61.4424467  -0.1253246  25.5909920  21.6268992
   0.4995896  25.3833890  20.9321952   0.4123880  25.9471989  22.3341560
  53.3012486  12.7243996  56.2202406  53.1534863  11.8049598  55.9988165
  52.7477551  12.8783154  56.9858694  61.7226171  38.2004762   4.2569768
  61.3819933  38.5369611   3.4281310  62.1703005  38.9480710   4.6530980
   8.9299428  22.3309469   8.2282442   9.8071843  22.1911907   8.5848224
   9.0788263  22.7721667   7.3919487  61.0855627  19.0930271  50.6864738
  61.9261742  18.6352992  50.6958199  61.3020802  19.9860549  50.4184198
   7.3304898  50.0504875  25.6856847   6.6597188  49.4626856  26.0332346
   8.1247711  49.5170832  25.6568694  70.7027006   6.3465863  25.3027511
  70.7539606   5.4478264  24.9774289  71.1478043   6.8686682  24.6352601
  29.2942476  26.9472861   6.5914911  28.6182213  27.3392367   6.0386860
  29.9607682  27.6292443   6.6746485  35.7507277  10.8376992  40.1940680
  35.3355598  11.3166225  39.4767809  36.6144872  11.2405503  40.2827215
  47.5978136  70.6567097   9.2067748  47.0238447  70.9589624   9.9106455
  47.8852320  71.4589977   8.7709272  48.7397432  61.3078356  15.7358062
  48.1113482  61.7295218  16.3219202  49.2817688  60.7698250  16.3128567
  11.9888818  32.7783918  65.2053404  12.7209032  33.3645272  65.0134468
  12.1551144  32.0037794  64.6681452   3.2365119  42.1383333  67.7160025
   3.0321285  42.4222231  66.8250132   2.4209893  42.2652435  68.2008219
  67.5552082  42.3318958  48.2796478  68.3990955  42.7834988  48.2914495
  67.1873665  42.5340796  47.4193859  52.5796986  43.1629705  44.4371128
  52.4426222  42.2212553  44.5401430  53.1771564  43.2380486  43.6930466
  31.2718678  66.7187977  17.0846033  31.3779020  67.2027254  17.9036295
  31.6355610  65.8528519  17.2692478  40.9516048  44.0911674   2.0723888
  41.4189768  44.4803572   2.8115270  41.4512968  44.3636370   1.3027802
  53.2998228  17.2085428  55.0729609  53.8439465  16.4542425  54.8467016
  53.9228916  17.9242444  55.1986170  78.4334326  44.1065359  27.1555924
  78.4733677  43.5463428  26.3804674  79.3471098  44.2167282  27.4188042
  14.0779269  56.1113596   9.2175591  14.3088734  56.2708712   8.3024353
  14.9039614  56.2027550   9.6924770  35.7111979  65.6053782  13.0158210
  36.1249828  64.7487783  13.1218874  35.0324464  65.6286669  13.6903477
   8.2783562  22.9563618   1.7257597   8.6911744  23.2061791   0.8990777
   8.7752795  23.4284687   2.3939019   1.6154477  46.0589409  31.4667130
   2.0721112  45.3813553  31.9652796   1.3107094  46.6792202  32.1289992
  33.6473918  73.7893438  58.8765621  32.8539085  74.0188360  58.3928776
  34.3180847  74.3773937  58.5292912  58.4982395  20.2346778  66.8093586
  59.0090895  20.0089741  66.0319757  57.7609253  19.6243930  66.7969465
  75.8325243  44.5863581  30.7825494  76.3882875  45.3628635  30.8488965
  76.4000416  43.9176989  30.3990722  52.8826714  40.3265381  44.7983265
  53.5793018  39.9758148  45.3532410  52.4484110  39.5520353  44.4408417
  54.8229074  45.4523468  48.4716082  54.3868685  44.6002340  48.4681320
  55.5902195  45.3264761  49.0298367  63.7356424  57.1388817  59.8641062
  63.7536383  56.4824629  59.1676712  63.1580448  57.8256750  59.5310450
  13.0264556  45.9345722   4.5654160  12.5344968  46.7078018   4.2891377
  12.9744351  45.3381252   3.8185719   2.5886819  36.6050124  23.9639711
   3.2682794  36.9140887  24.5630121   2.9133880  35.7618570  23.6479163
   1.0574801  54.5303488  35.9170532   0.3004295  55.0962353  36.0683179
   1.1114066  53.9871693  36.7033625  60.0191927  22.9272366  45.9007263
  60.0581741  23.0392861  44.9509048  60.0663805  21.9802999  46.0323238
  38.1118202  67.8849602   6.6616404  38.5634685  67.2331238   6.1255848
  37.4672103  67.3812962   7.1586633  59.8703861  54.1014099  48.6561203
  60.2199078  53.2103157  48.6513948  60.0256586  54.4242954  47.7685022
  24.0005994  65.1304960  16.6733122  24.0252447  65.3933001  15.7532251
  24.2334032  64.2020893  16.6635442  40.1138353   2.8985801  20.2093601
  40.3527164   2.2441754  20.8658075  39.8023295   3.6465055  20.7190728
  56.1248255  24.0919161  17.4089873  57.0109987  24.1878414  17.0600915
  55.5585384  24.1298819  16.6382015  55.3089571  14.6406829  33.6026311
  55.8392859  14.4812250  34.3833733  54.4356680  14.3274856  33.8382149
  37.3734665  70.7797194  33.7769508  37.8787994  70.6262207  34.5752668
  37.6187205  70.0595570  33.1960511  80.8419132  64.1468859  33.5709500
  79.9828720  63.9791489  33.1834626  81.2935829  64.6909285  32.9257774
  16.0111773  13.3173907  38.9137864  16.5998769  13.0178690  38.2210016
  16.3263142  14.1941297  39.1334462  20.4728818  43.8975668  46.0195589
  20.0240254  43.4001350  45.3359509  21.3421178  43.5003519  46.0732269
  83.1621361  12.2383523   6.7264009  82.4288654  12.1574032   6.1164838
  82.7976608  12.7049029   7.4785471  34.6846414  23.1933641  34.8940969
  35.5906343  23.4477758  34.7189331  34.1589403  23.8421249  34.4261479
  17.7843320  63.1553888  67.1440458  17.0504427  63.4375525  66.5981340
  18.0322504  62.3015738  66.7894125  11.6910994  49.4557190  20.8723187
  11.5635312  50.3909683  21.0312629  12.6108623  49.3791723  20.6185293
  23.4611058  11.9616914  30.1091146  23.7694931  11.0679519  29.9595761
  22.5073647  11.8974626  30.0592518  70.1313210  11.4688683   3.1426272
  69.9103403  12.3903954   3.0077624  70.7956648  11.2823081   2.4792492
  56.5944958  20.9962010  52.3963308  57.1024084  20.2573204  52.7314568
  55.6996107  20.8242106  52.6893091   3.6564669  52.6010370  42.4656439
   3.0903444  51.8845797  42.1785450   4.4940364  52.1808958  42.6610708
  70.4670715  37.0088530  42.1584558  71.2610531  37.3367405  41.7361784
  70.5448103  37.2939444  43.0689001  75.6620598  21.9957638  64.3307924
  74.7223806  21.8258691  64.2647076  75.9470463  22.1210551  63.4256315
  70.9012985  20.4811645  25.3689957  70.5486536  19.8947251  26.0382962
  71.8030024  20.6451082  25.6452012   3.6126176  20.4835558  61.8898582
   4.3413752  20.1240683  61.3839817   3.5390911  19.9045885  62.6485538
  81.1233616  45.8939552  61.4961100  80.5881023  46.0304022  60.7143784
  80.6528854  45.2260971  61.9949579  68.4373713  77.9898882  55.7197428
  68.6124277  77.2133493  56.2513161  69.1216135  77.9812050  55.0504351
  81.9027424  48.3348465  28.9848995  81.8541145  49.2736387  29.1652918
  82.8365421  48.1620598  28.8649297  11.2865996  27.6156902  26.7197824
  10.8651078  27.7843165  27.5624824  11.8962371  26.8990970  26.8960404
  83.8427258  10.6560147  50.7103300  84.1275311  10.3539181  49.8478556
  83.2431793  11.3787997  50.5250025  82.8632641  44.4581270  54.8404694
  82.5663280  44.8022270  55.6828833  83.1933594  45.2245712  54.3716097
  65.1917219  39.7809243  62.2881556  65.1347685  39.0670466  61.6530418
  65.0898266  39.3535995  63.1385899   2.3718843  37.3082185  33.7007880
   2.8674302  37.5882769  32.9312229   2.9642996  37.4630570  34.4365215
  65.4676437  34.7927022  42.8280783  64.9603701  35.1980996  42.1248293
  66.2927341  35.2778244  42.8385735  73.9492989   5.8205879  49.8942947
  74.7418404   6.3264048  50.0739098  74.1661310   4.9298418  50.1695919
  60.5041599  55.4917002   2.9333991  60.4050875  56.0370779   2.1530254
  61.4500809  55.3818989   3.0303612  58.3864689  53.9197683  55.4619122
  59.2971516  54.0872669  55.7044697  57.9837561  54.7875214  55.4294777
  80.3424454  13.9340854  42.5129986  80.6175232  13.0378377  42.7061415
  79.5723152  13.8329673  41.9536209  78.1510305  61.6482782  38.8811016
  79.0802240  61.8699360  38.8202810  78.1033707  60.7356548  38.5963583
  62.4294519  29.8017216  40.5746365  62.5553656  28.9100862  40.8992338
  63.3147383  30.1187301  40.3957224  39.5700860  71.1760902   1.7274670
  39.6235943  71.9731665   1.2001725  39.5291424  70.4668379   1.0859710
  62.9157686  75.4041290  25.6315637  63.2509089  75.0887489  24.7922492
  62.8342199  76.3508749  25.5164051   3.6443815  40.2201986  34.0656781
   3.8940632  39.5759702  34.7281432   3.3354029  39.6962857  33.3265710
   5.5838966   4.5506760  22.9142356   5.8867902   3.7884569  23.4077024
   5.8065009   4.3512052  22.0049000  13.4421194  73.2502604  25.6714153
  14.3725252  73.0737829  25.5320048  13.3259213  73.1878138  26.6194820
  76.2794447  51.6266012  22.6366425  76.1994839  52.5697279  22.4939775
  77.0912838  51.5275764  23.1339765  81.7369843  26.1877942  58.1001329
  81.3871288  26.9977379  58.4713840  81.4899158  26.2216115  57.1759844
  15.4720438  38.1058168  54.7191334  14.6710062  38.6219978  54.6289635
  15.7479966  38.2480717  55.6245852  31.9951320  73.3825064  56.6433239
  32.2750974  72.5106764  56.9221973  31.4882159  73.2277298  55.8462620
  11.7860389   4.4998631  23.4625340  11.6708970   3.5496467  23.4704542
  12.7116454   4.6272415  23.2545447  58.4655046  15.5109525  31.5720105
  58.9414454  15.5891967  32.3988080  58.2907248  16.4147925  31.3097978
   1.2763621   2.8451046  33.7384248   0.7500498   3.4649858  34.2433739
   2.1808225   3.0502734  33.9752555  10.7123160   9.6061105   8.9607084
   9.9480736   9.6969485   8.3915752  10.4133368   9.9181277   9.8148090
  80.9359932  23.7246346  23.2472539  80.8059311  23.0044913  22.6302385
  81.0370064  24.4989991  22.6937318   8.9345998  48.6874390  38.0756068
   8.6290121  48.6501884  38.9819503   8.1805623  49.0094185  37.5816536
  70.2468443  29.9908352  22.7657580  70.9559584  29.4045401  23.0296612
  70.6610966  30.6144285  22.1693063  70.4410887  62.4897289   8.3105719
  70.7438707  62.7225542   9.1882664  70.8260059  63.1550360   7.7400953
  49.6814919  35.9610891  45.4277658  49.7698164  35.0169683  45.5583858
  48.8121843  36.0692143  45.0419617  12.3026681  10.3331375  40.5088711
  12.5645947  10.7952940  39.7126055  13.0959010   9.8800462  40.7947397
  80.6387520  37.2650385  45.2190876  80.6500053  36.8504834  44.3563890
  80.1739502  36.6423154  45.7780123  78.3222914  18.8612926  16.5034223
  78.2879210  19.2364550  17.3833680  77.5306940  19.1853642  16.0737967
  42.0146990  47.7269363   0.5569671  41.5800905  47.6639175  -0.2935471
  42.1946096  48.6608028   0.6653973  69.1588020  45.8784103  40.3690243
  68.6774683  45.1721621  40.8000183  70.0375175  45.5229235  40.2359104
  67.3931551  35.7679677  35.3681231  67.9229689  35.2294183  34.7803354
  68.0029964  36.0491443  36.0502291  11.0438752  70.5099058  25.9973550
  10.7137930  71.1681986  25.3858590  11.9933343  70.5258417  25.8769131
  53.2655573  59.7876406  48.0578136  53.7867022  59.1142178  47.6206255
  52.4706984  59.8563099  47.5289345  65.8066750  36.2764645  51.6035366
  65.9798813  36.0783148  50.6832266  66.6692972  36.4603758  51.9754028
   6.9915360  64.1196489   4.0899888   6.8428349  64.9033689   4.6190503
   7.7300662  64.3482542   3.5255906  81.2070751  26.2576294  55.4684019
  81.7764378  25.6709123  54.9705887  81.2889194  27.1027565  55.0264835
  60.3071690  19.1712236  43.9172316  60.8841419  18.6381578  44.4641972
  60.8561468  19.9008894  43.6301041   9.9569398  69.0334892  64.2008352
  10.8936024  69.0397310  64.0037203   9.5510471  69.4647408  63.4488344
  54.4264746  20.0337052  12.3799932  55.1121998  20.2247310  13.0199313
  53.7355185  19.6094871  12.8887653   9.4684064  66.9396544  37.5606656
   9.3350464  67.6241779  36.9050193   8.8195300  66.2703037  37.3434877
  47.0757389  20.9588647   5.6325108  47.4370384  20.7849360   6.5016729
  46.7933083  21.8727207   5.6690156  15.6800687  20.5479336  58.5759878
  16.2501812  20.2167726  57.8820562  16.2449038  20.5965042  59.3472433
  72.2511292  15.9626472  33.9276457  73.1979418  15.9879613  33.7893057
  71.9067621  15.5266011  33.1482172   7.9319859   2.6550484  25.8394480
   8.3691543   3.4039101  25.4340816   8.0104733   1.9532807  25.1932335
  14.8009133  46.0461283  55.8379936  15.6475163  45.6000519  55.8605719
  14.7528911  46.4244986  54.9600649   3.7707704  25.1570177  32.5909710
   2.9656923  24.6750569  32.7801704   4.4714311  24.5242310  32.7487350
  63.6306334   0.5574302  36.7090678  62.7940083   1.0210709  36.6726685
  63.3919048  -0.3549965  36.8725228  51.2606144  41.8836546  59.0137005
  51.5844536  41.1877012  58.4418488  51.0400629  42.5998163  58.4181309
  57.8759861   0.9631851  24.4792891  58.4354019   0.3006602  24.0738940
  57.3476696   0.4761697  25.1116896  25.5385065  35.0076199  50.9449005
  26.4603662  35.0465894  50.6901693  25.0605869  35.0089884  50.1155519
  57.1924162  23.6263180  52.9343319  57.1856260  23.8399768  52.0013046
  56.7555237  22.7763677  52.9885912  72.9015207  63.6524963  60.7877970
  72.0637751  63.8689041  60.3784323  73.4972239  64.3412495  60.4928589
   4.1004983  53.5104609  46.2689209   3.2928294  53.8011074  46.6925097
   4.3796980  54.2612362  45.7448912  78.3792877  32.1631980  65.1771021
  79.1145325  31.5605187  65.0656414  78.3999538  32.7135992  64.3942499
  42.8167534  24.7030950  13.8916588  42.3419809  23.9946198  13.4570444
  43.6085510  24.2870069  14.2324769  70.9153175  22.1063471  39.3011236
  70.3318262  22.6799679  39.7978401  71.0034466  22.5339508  38.4492922
  40.2466011  33.3730078  17.6512921  39.5309615  33.1298971  17.0639348
  40.2894306  32.6574445  18.2856154  81.8128109  20.7130218  39.0172863
  80.9971619  21.0824990  38.6790109  82.1455860  21.3784885  39.6194887
  72.3317289  52.1238899  43.1156683  71.7043829  51.4210510  42.9462957
  72.8693962  52.1607971  42.3246050  53.0035210   3.0386147  63.2030916
  53.1064701   2.0985660  63.0549669  52.7395964   3.1090361  64.1204882
  51.6776752  44.9253988  16.9976747  51.3307905  44.5527458  17.8082502
  50.9123421  45.2947140  16.5571046  76.8102360  37.7552247  47.2885561
  76.1255741  37.3748565  47.8388262  77.3342848  37.0057559  47.0058918
  19.6635020  37.9639292  36.2600875  20.0536013  37.2735810  35.7239223
  20.1240063  37.9060650  37.0972371  61.8336391  28.8707805   5.2096176
  62.2199869  28.0198216   5.4165828  62.5451708  29.3639207   4.8012480
  76.2326050   9.5637006  43.6767817  75.6773138   9.7422194  42.9178238
  75.6784582   9.7634488  44.4312763  72.3739767  36.6651464  44.6798754
  72.6281595  36.5811896  45.5988789  73.1629133  36.9836855  44.2412996
  79.5128155  54.8550558  65.1016855  78.7826204  54.2905998  65.3555346
  79.6826696  54.6300983  64.1869307  18.7159371  68.6029053  41.2321615
  18.5825181  68.7191391  42.1728611  17.8518796  68.7505341  40.8476591
  81.1293411  30.0622892  40.7269764  81.4379025  29.1680813  40.8732986
  80.6569195  30.2868319  41.5286207  79.7855234  54.1185808  30.2100372
  79.8773623  54.5122051  29.3423653  80.4936695  54.5055962  30.7247925
  18.5072327  35.0932121  44.8931265  17.8407526  35.0771713  44.2062664
  18.0371881  34.8438978  45.6888247  27.2300267  19.3757772  43.4335947
  27.8751397  18.8981450  42.9121256  26.6677523  19.8023224  42.7869558
  24.1396880  39.4067287  55.9322548  23.1920075  39.2916346  56.0021687
  24.2920232  39.5800257  55.0032806  12.2391033  61.7142677  39.2482615
  12.8137469  61.1949110  39.8106551  12.6241231  62.5905800  39.2564511
  78.2809830  57.2849083  29.2013788  77.5569630  57.0711946  29.7898960
  78.2130241  56.6425800  28.4949589  74.3882418  24.9586582  24.3583250
  74.5264530  25.7433224  24.8888230  74.7210646  25.1934886  23.4921169
  68.6397791  37.6205921  49.1411495  69.1424751  38.2921314  49.6021986
  68.3731556  38.0403185  48.3232403  40.6234980  58.6253214  26.5701747
  40.8016968  57.9661942  27.2410154  39.9354768  58.2370567  26.0297012
  70.1268530  69.5157671  32.4692345  69.4893312  69.7569561  31.7972064
  70.2221632  68.5675478  32.3796535  68.3922100  38.4724021  41.1334753
  68.0848885  39.1479445  41.7379808  69.1598797  38.0966282  41.5644217
  32.4399400  59.4106770  21.9786334  32.8067517  58.5550022  22.2011232
  31.5025473  59.3214798  22.1505928   1.1990237  32.6019096  51.2166262
   2.1202284  32.3715997  51.0959148   1.2134120  33.3282232  51.8399191
  28.7953854   3.5693610  55.5818701  28.5332203   4.2886195  56.1564732
  28.6815047   2.7828598  56.1154270  18.4786105  24.2645979  44.9199629
  18.7970495  24.3534827  44.0216732  17.7951467  24.9301076  44.9987507
  62.3705292  34.3381548  44.1242409  62.4106503  35.0780201  43.5182524
  62.6701498  33.5895610  43.6084270  54.0876102  56.5893793  49.1013098
  53.1442690  56.7243528  49.1914320  54.4243002  56.6469288  49.9954891
  78.4929752  19.7447097  35.0190449  78.7806606  18.9258122  34.6154642
  78.5714006  20.3958368  34.3218255  80.3977871   2.4014512  39.4846582
  81.2768459   2.0235525  39.4586635  79.9801731   2.0919712  38.6808825
  54.0157270  27.8325629  51.9766808  53.6435604  28.6103916  51.5611029
  54.9240637  27.8115177  51.6755056  78.0136204  11.2426364  32.3688173
  77.4754000  11.9118714  32.7915215  78.8904572  11.6252410  32.3371553
  51.0805845  22.3722649  43.4339285  50.9697628  22.3501444  44.3844366
  51.9914627  22.1141028  43.2929230   4.8250759   6.9406736  36.1874843
   4.3576112   7.6550144  36.6204119   5.2357328   6.4549524  36.9027948
   0.5943974  11.8919802  26.2281775   1.3859595  12.1280074  26.7118645
   0.5552554  12.5236130  25.5100274  46.0992670   2.5881827  61.8843651
  45.1646805   2.4780552  62.0594358  46.5115595   1.8303964  62.2991037
  10.8006358  69.5512867   2.7764183  11.5911174  69.1434574   2.4228007
  10.0964546  68.9429235   2.5522399  27.5512218  73.5185194  31.3454008
  27.5212049  73.1567907  32.2311115  27.3690724  74.4510603  31.4612365
  39.1119814  65.5460262   6.1083984  39.3359447  65.2567863   6.9929385
  39.7421169  65.0988388   5.5434346  72.5952673  16.8186283   5.2153122
  72.4063969  16.1480451   4.5588979  73.3404636  16.4710116   5.7052833
  41.2271023  37.2261596   1.8596303  41.5502071  36.8328428   1.0489918
  41.7141914  36.7805982   2.5527751  22.4566650  13.0602431  52.0337439
  21.9629836  13.8789392  51.9863129  21.8927884  12.4690855  52.5325489
   9.0705371  44.8271751  30.9539938  10.0158799  44.9685764  31.0046291
   8.7092495  45.3704214  31.6544127   9.9261838  10.0353611  42.4964905
  10.8762944   9.9975437  42.6064491   9.7824168   9.8119181  41.5769053
  23.9686370  71.0317850  11.3226867  24.0524244  71.9227839  11.6622901
  24.4709277  71.0378027  10.5078864  20.1985550  22.6405168  46.1903095
  19.8531115  21.7866516  46.4507246  19.4263172  23.2027817  46.1291552
  45.3881359  77.7911854  50.1349688  45.1827478  77.2782707  49.3533230
  45.3843689  78.6995602  49.8331928  65.5226517  18.8528359  35.4679036
  64.8691082  19.3404293  34.9665380  65.8348656  18.1795394  34.8634005
  15.0978625  54.7187042  54.9324846  15.4852879  54.3667269  55.7338858
  14.6261239  55.5010891  55.2180910  78.7514925  25.5337262  60.8201027
  79.1947699  24.7362828  61.1096239  79.0400791  26.2058091  61.4375639
  60.6320953  55.0334883  46.1327457  61.1331701  54.9242067  45.3245306
  61.2322760  55.4829407  46.7277336  14.9861073  38.9522696  35.9742689
  15.8656073  39.0292454  36.3441181  14.4061089  38.9424372  36.7356753
  82.6856422  73.0747795  57.3785830  83.1374359  72.6509190  56.6488838
  81.8359756  72.6360941  57.4215174   6.7156714  57.2285223  21.2201619
   6.7970443  57.9163265  20.5594540   5.8147883  57.3039532  21.5347290
   8.8199633  53.1263971  59.0728569   9.4864899  53.5810375  59.5879030
   8.2063371  53.8141823  58.8147020  67.3545218  52.5302696  37.3950791
  66.5584183  52.3120356  37.8796625  67.9630470  51.8210459  37.6022959
  74.1727066   4.9369031  62.5167179  73.5580921   4.2750710  62.8336668
  73.9726496   5.7169139  63.0342054  52.0314121  35.4343033   9.7833383
  51.9603395  35.9181261   8.9604795  52.8683281  35.7140994  10.1541781
   1.4583218  49.6660709  22.2738218   1.7513879  49.6109438  23.1833863
   0.6323364  49.1825962  22.2585988  71.3322306  58.9252424  38.6363387
  71.4834404  59.7613668  39.0770912  70.6505299  58.5000515  39.1566586
  40.5669117  54.0705729  31.1611176  39.7334051  54.4959211  31.3625669
  41.0171366  54.0146494  32.0039701  47.0894861  34.5949745  57.7752495
  46.1812735  34.3915176  57.9988384  47.2007465  35.5097318  58.0342245
   5.3779268  60.2533054  29.9791908   4.5699573  60.2833414  30.4915524
   6.0737097  60.3977585  30.6204796   0.0707245  26.8729591  17.4564445
   0.8714536  26.8772340  17.9808939  -0.3452025  26.0355067  17.6611626
  19.7754693   1.2423317   2.9369789  20.6600380   0.8776233   2.9094452
  19.8702204   2.1273398   2.5848216  69.2503548  76.1925268  14.4470024
  68.4660673  76.2435675  13.9006293  69.5828629  77.0897388  14.4731271
  70.8324528  63.4333611  62.8160048  71.0754538  63.0845070  63.6736059
  71.6596317  63.7257576  62.4332380  82.9492760  52.8219366   7.1244174
  82.5279713  53.3352518   7.8137994  83.7389469  52.4707842   7.5359213
  63.2616568   4.3799788  63.0391932  64.1751575   4.1389376  62.8854275
  62.7562952   3.6869872  62.6142168  73.5386944  40.3769064  49.4293213
  74.2699337  40.5295324  48.8308001  73.6894655  39.4959235  49.7719145
   8.2676232  15.6754661  57.7144909   8.7167692  16.0367167  58.4786892
   8.8489783  14.9830580  57.4001217  50.4105139  16.0122001   2.8160506
  50.2315378  16.9521308   2.7890480  49.9771357  15.6633878   2.0371127
  44.7016239   1.1126717  58.2188559  45.1325417   0.2580087  58.2092810
  45.3847742   1.7222342  58.4980822   3.8470703  17.1158898  39.0926409
   3.8996133  16.6317177  38.2685971   3.2871979  16.5771544  39.6516919
  55.0017691  29.1557503  32.6872993  54.5405483  29.6248364  33.3826137
  55.8979845  29.0673828  33.0116796   1.1775710  20.6773305  41.3981771
   1.7417739  20.6107426  42.1685505   1.0615180  19.7727847  41.1073875
  66.3456535  26.5444160  45.3685951  65.9883070  27.1340394  46.0325861
  66.4343548  27.0896578  44.5868826  63.0216217  77.0033455  17.4601948
  63.3754778  76.3080311  18.0147719  63.3278131  77.8136873  17.8674138
  22.7342916  60.8554268  46.7487144  23.6065316  61.2476969  46.7092848
  22.7165222  60.2370739  46.0182667  10.2665043  19.0392971  21.0033131
  11.1691773  19.1771352  20.7162356  10.2140093  18.1012487  21.1864543
   9.3988281  36.9970870  36.3192892  10.1160932  37.2954941  36.8785000
   9.2136878  37.7430248  35.7487345  24.1270852  31.0518551  21.2736964
  23.6620164  31.4958835  20.5646253  24.6589541  31.7375803  21.6775870
  35.9456515  30.4656601  17.2706890  35.9221530  29.5569444  17.5705504
  35.3319168  30.9233952  17.8451800  32.8222322  27.9790044   1.4119948
  33.4696817  27.2835851   1.2960857  33.2909513  28.7826133   1.1867257
  65.3534412  22.6001310  47.7626705  65.3196526  22.8448486  48.6874437
  66.2809801  22.6578379  47.5333834   1.6516316  20.3529429  35.3075743
   0.8861461  20.8914256  35.1068234   1.4354762  19.9296665  36.1384439
  79.6691418   8.9350772  10.7954431  79.3736267   8.4016615  11.5332603
  80.5344009   8.5871834  10.5797565  64.4323778  32.7105212  35.6780243
  64.9660826  33.1088114  34.9904490  63.6777020  33.2931399  35.7631588
  18.8037503  17.0251644  56.3049173  19.4319832  16.8601000  57.0079899
  19.3301117  17.3922288  55.5946779  80.3176117   1.7359513  44.0326929
  80.3318596   2.0318541  44.9428940  80.4479980   0.7892041  44.0865564
  60.2737141  18.4999263  29.7822332  60.9826279  18.2927155  30.3911114
  60.4304743  19.4107592  29.5331550  58.9218950  16.1920428  22.3493648
  59.1898060  15.2747750  22.4048066  59.4277716  16.5455103  21.6176677
  16.2613535  63.2638121  49.5417166  17.1671057  63.5408974  49.6798038
  16.1018169  63.4216356  48.6111927  58.2974195  12.2407556   6.2841952
  59.1474676  12.5317121   5.9540558  57.6650095  12.5844324   5.6531823
  34.0697980  13.4984398  31.0734820  33.3726716  13.3611691  30.4320765
  34.0824866  12.6924193  31.5896249  46.8435049   4.5253122  25.1352620
  46.6845751   4.4885761  24.1920638  47.7025414   4.1187927  25.2494144
  34.8248887  54.4795370  18.6590695  35.2220917  53.6760664  18.3230698
  34.9098825  54.4092703  19.6098959  82.7100945  30.6967449  31.1023140
  82.7602100  31.4088559  31.7399812  83.3884716  30.0802493  31.3779330
  80.2351475  19.3819702  28.4236336  79.4958639  18.8540280  28.7252498
  80.2677250  19.2309260  27.4789882  54.4218206   4.1717267  40.9666061
  54.4957209   3.5260087  41.6693258  54.2453194   4.9973723  41.4175892
   3.8311821  31.7747545  33.8065863   3.9221564  31.0095525  33.2387638
   3.5287568  32.4710560  33.2235456  63.2297945  30.8069992   9.6954995
  62.6780796  31.1911225  10.3768873  63.6494207  31.5578437   9.2755288
  63.6413860  24.0718508  30.9212995  64.0267611  23.9790368  30.0500345
  63.5131836  25.0144839  31.0273123   3.0362460  15.6720138  21.5158272
   3.2779112  14.8468721  21.9365072   3.4564245  15.6348503  20.6565833
  82.4766731  38.3884954  10.4715395  82.4249458  38.5361719   9.5272148
  81.8081379  37.7264094  10.6474018  62.6950026  60.0431299  31.2275076
  63.0457115  60.4332495  30.4268575  62.2194719  59.2682743  30.9279990
  47.6783323  45.1630878  19.0984344  48.6344099  45.1281214  19.1288352
  47.3994780  44.2697239  19.2993844  18.4824193  38.7316322  33.5928011
  18.7487769  38.2928419  34.4007301  18.8756204  39.6023154  33.6522818
  75.8588791  30.7640195  10.2597034  76.1918020  30.0509143   9.7148401
  76.5232515  31.4494967  10.1892805  81.2258720  48.6161757   9.5985359
  81.0149574  47.6887083   9.4910598  80.8782864  48.8424397  10.4612184
  12.6079178  10.4259121   6.7628533  12.8336346  10.5164552   7.6886427
  11.8436062   9.8496872   6.7579174  77.8049469  50.4887867  10.5492961
  77.5031042  50.0524092   9.7526181  77.6444292  49.8526764  11.2463117
  76.4405537  19.9414039  21.4199519  77.3240423  20.1276851  21.7377138
  75.9574080  20.7549167  21.5648699  54.1776514  68.0099964  32.4053884
  53.7848949  67.5140238  33.1237102  53.7529469  68.8668728  32.4456501
  80.4841518   4.5008636  36.8544316  80.0055695   3.6843440  36.9975781
  81.3757038   4.3102029  37.1460080  71.7245865  39.5146608  13.4033561
  71.4051819  40.3902626  13.1853330  71.7271042  39.4920182  14.3602848
  50.1700258  68.4788942  20.9745288  49.6310329  67.8067875  20.5574155
  50.7403755  68.7969398  20.2746844  68.3329010  72.7375269   0.3324937
  67.6655960  72.0693588   0.1760185  68.4462452  72.7448702   1.2829310
  17.3847258  21.4929175  36.4237356  17.5569332  21.7472053  37.3303318
  16.9612777  20.6371403  36.4913225  14.3805754  14.3145919  32.7702284
  13.8708746  13.7376428  33.3390570  14.3701863  13.8802314  31.9173193
  69.3981695  15.9356821  28.3806682  69.3045616  16.4246118  29.1982365
  70.1309109  15.3407383  28.5399413  67.7572441  38.3844495  46.6150856
  67.9742670  37.6756811  46.0094643  68.1147289  39.1704106  46.2019253
   0.3791735  28.4409404  31.4911032  -0.0697592  28.1223035  32.2741461
   1.3062117  28.2750034  31.6622925  78.9129257  49.9139261  15.2245319
  78.9599276  49.3444204  14.4566226  78.1732035  50.4948807  15.0469494
  58.1418753   9.2050457  24.0964150  57.6862574   8.5607523  24.6381974
  58.3681488   9.9105215  24.7024989  82.5068188  32.5662851   4.8653904
  82.0451164  33.1329679   5.4833972  83.3196068  32.3341322   5.3145170
  54.3104601   0.5253471  26.5219307  53.4463549   0.5287558  26.1101747
  54.1733360   0.9475346  27.3699784  80.7316875  12.0874596  31.8738174
  81.0577679  11.8415368  32.7395129  81.1398792  11.4601791  31.2770462
   5.0608873   3.4581167  62.2335625   5.1266050   3.0570522  63.1002045
   4.3366218   2.9969230  61.8105125  42.3183918  56.2130499  19.3238711
  42.5738668  57.1340561  19.3759537  41.8123102  56.0593891  20.1216817
  37.1050954  58.2330513  14.8296118  36.7611313  58.2455492  15.7227886
  36.8892455  59.0966606  14.4777262  79.5048857  17.2291124  33.5985947
  78.6204672  16.9408560  33.8242960  79.9482107  16.4335668  33.3039784
  78.4377956  30.5702853  60.5819130  79.0241861  30.2412105  61.2631512
  78.3435774  31.5026736  60.7768726  32.7980137  30.4608130  55.9966755
  33.4316921  30.2791834  55.3026342  32.1539259  29.7565484  55.9232378
  35.1492286  14.9194956  61.7234850  34.5938301  14.4894338  62.3737288
  35.8935022  15.2509975  62.2258759  53.9309549  73.8493395   9.6094477
  54.6409941  73.5389614  10.1713610  53.6478853  73.0711555   9.1293085
  66.8071556  23.4969497   5.3590685  66.8418360  23.3660340   6.3066387
  67.7160883  23.4099269   5.0718337  61.1487627  52.7496719  65.9558916
  61.3346672  52.1532965  65.2306318  60.5280495  52.2717285  66.5059042
  46.8270063  75.5608034   4.1654560  46.5801811  76.3332939   4.6739477
  47.4301147  75.8940697   3.5010576  61.3786936  23.1141233  24.4780207
  61.0007858  23.1729984  23.6005497  62.2657013  23.4604478  24.3805170
  26.6496468  49.6928406  62.1181250  26.1142969  48.9254236  61.9163847
  26.7285752  49.6857548  63.0720425  52.7725315  42.6089048   9.9213105
  51.8897247  42.6692438   9.5562869  53.2308960  42.0016623   9.3404567
  37.2262168   8.5883993   0.5454136  37.8304815   9.1399002   1.0423481
  36.7708588   9.1964078  -0.0370017  55.0524807  31.4361000  11.0796905
  55.9826279  31.2112045  11.1017084  54.9853039  32.2296643  11.6107035
  57.2858715   2.7781218  32.6541471  57.9624367   2.3959041  32.0952177
  57.6200199   3.6477035  32.8741503  36.8620753  66.3888931  16.6515362
  37.5242496  66.1680031  15.9965825  36.0315466  66.3408422  16.1780965
  68.0333376   0.9939377   9.4222921  68.9195013   0.7972188   9.7260201
  67.5112915   0.2427373   9.7040653  55.3926229  15.6905353  31.0299397
  55.9817600  15.3691745  31.7124915  55.9721375  16.0947061  30.3841496
  71.9849205  18.7984741  18.0839026  72.2247696  19.2427468  18.8971221
  72.0154381  19.4852173  17.4178064  61.4847755  61.7593527   3.6219439
  62.4067497  61.5624046   3.7874851  61.0302496  60.9329367   3.7852561
  67.5391531  26.2045646   7.3666918  68.0331850  27.0200539   7.2821844
  67.9982376  25.5863881   6.7980713  42.0960093   9.6277565   7.6067156
  43.0182886   9.6473497   7.3512816  41.6951370  10.3422153   7.1116555
   8.5683995  50.0522804  58.8816595   8.5628307  50.9524393  58.5562181
   8.9644688  49.5441055  58.1737614  65.7446289   2.7385896  27.4837637
  66.6738129   2.9669869  27.4575663  65.6291914   2.1215591  26.7611456
  11.6282642  47.0692301  22.4265218  11.1410856  47.0828152  21.6026855
  11.8994784  47.9775333  22.5594020  20.2555823  75.3596783  14.7068596
  20.2014732  74.4049406  14.7490036  19.3440115  75.6501484  14.6768677
  80.8516693  10.6822228  55.6256533  81.6181755  10.1344693  55.4563427
  80.9594250  11.4323103  55.0408506  24.4901896  41.7481327  61.2728405
  24.8828173  42.5186491  61.6831827  24.8377037  41.0082674  61.7709017
  46.2784290   5.7807231  11.8457973  46.4883137   6.4853406  12.4587345
  47.1287346   5.4848021  11.5207744  60.1475334  13.8506293  14.8768222
  60.4190826  12.9814017  15.1716709  60.4868603  14.4468296  15.5443799
  10.2673078  58.7864971  39.9108076   9.5338631  58.7433577  40.5243444
  10.1739633  59.6389151  39.4854832  14.2649055  59.0588665  67.3076344
  14.2400444  59.9297953  67.7039909  14.9899733  58.6157846  67.7482939
  44.6133900   5.9594649   8.2753205  44.5615339   5.0833619   8.6574012
  43.7274027   6.3112909   8.3617699  55.1317644  44.1713905   7.5033188
  56.0300493  44.2699957   7.8189075  54.6445704  44.8659182   7.9466075
   4.0641731  39.3818498  52.1063662   3.1524041  39.4320035  52.3934078
   4.3259054  38.4809637  52.2964478  58.1009483  59.4224119  48.4875059
  57.9569101  59.0397215  47.6220417  58.6702061  58.7960911  48.9346075
  60.3300333  65.5672121  10.3327978  59.5058584  65.4080677   9.8727512
  60.7736588  64.7190237  10.3297889  44.7912598  45.7514906   3.8575295
  44.1833830  45.0339127   4.0358669  44.2282391  46.5119314   3.7127033
  82.3701668  14.0599883  13.3597279  82.0305157  14.2678952  14.2301536
  82.8609848  13.2473445  13.4819663  68.3929825  32.2206140  37.7658200
  67.4505281  32.2230577  37.5984645  68.5641527  33.0643916  38.1841183
  80.1445580  12.4053335   0.7196824  79.7033119  12.7719724   1.4859122
  80.5008316  13.1664634   0.2614415  28.2753706  39.9784851  57.9154778
  27.5543571  40.5185699  58.2390213  29.0371156  40.5576992  57.9375553
  29.7355509  43.3964443  54.9064684  29.6913862  44.0219927  54.1833019
  29.6001077  43.9275694  55.6911898  77.1054493   0.7767550  27.3227096
  77.8754936   0.2200285  27.4381208  76.4012037   0.1681629  27.0993614
  84.0530682  51.9682932  47.6781225  83.1817913  51.5813255  47.5922585
  84.0071869  52.7771568  47.1683502  45.8337307  27.1612525  15.8821201
  45.6184912  28.0812740  15.7289350  46.2103367  26.8623590  15.0544345
  15.5751717  14.3405032  11.8351114  16.0792542  13.7867367  11.2388933
  14.7037411  13.9447689  11.8504286  62.5461149   0.1953116   9.5484769
  62.0799112   1.0274938   9.4687301  61.8768454  -0.4703370   9.3896669
  30.7189345  37.1181369  67.7008104  30.8889771  36.9202161  66.7798615
  31.1963224  37.9317808  67.8630352  17.0484960   3.2950944  44.1857529
  17.3468435   3.9525485  44.8142195  17.8382921   2.8035825  43.9602089
   0.6415918  35.1455069  39.3173647   0.4702263  35.2110481  40.2568150
   0.8753217  34.2275000  39.1800070  10.4265797  27.9025531  30.9445524
  10.1072752  27.0446992  30.6646204  10.6132877  28.3666134  30.1284528
  28.0022025  39.6394253  66.7639780  27.5194407  39.9421120  65.9948540
  28.8866758  39.9847603  66.6428041  78.7278461  43.9469528   6.8701291
  77.8168631  43.8600445   7.1508211  79.1532660  43.1503439   7.1873969
  40.7940245  68.9397955  66.5924835  40.5195665  68.0711269  66.8862820
  40.2366543  69.1241121  65.8364439  20.0604749  77.9943609   6.5492755
  20.2004004  77.6685667   7.4383831  20.1183105  78.9462996   6.6311336
  33.4195757  60.9718513   2.9445493  33.2320046  60.1109648   3.3186170
  33.7150812  61.4969492   3.6883101   6.3611388  27.3977900   6.3471365
   6.6369569  26.6092062   5.8799219   6.9625539  28.0781817   6.0444820
  61.2776899  21.1930847  61.8371201  61.9404650  21.0102582  61.1711359
  60.5048037  20.7099152  61.5448427   9.8923922  16.0926688  24.5356011
   9.2996901  16.7983282  24.7944093  10.6138420  16.1437857  25.1626015
  73.7303066  49.6924305  67.8069210  73.2727003  48.8623571  67.9403591
  73.9214230  50.0054026  68.6910915  82.5274754   9.4366330  41.8522835
  81.6077328   9.6179050  41.6587591  82.5084496   8.9633161  42.6840544
  18.6083329  18.9354825  62.7788258  18.1756806  18.6957955  63.5983324
  19.4557953  18.4920883  62.8168011  31.9428239  39.7427907  68.5406384
  32.0613230  40.6797925  68.6962586  32.5757456  39.5320843  67.8541659
  44.0745401  19.1140580  10.8345366  43.6901665  18.6172378  11.5567935
  44.1199255  20.0131750  11.1597443  78.0518961  59.9158335   7.2517270
  77.2030640  60.2727747   6.9903648  78.6775446  60.6102371   7.0453274
  72.8588963  31.6677904  28.0666351  72.6566124  30.7931924  27.7343845
  73.8117838  31.7333627  28.0039096  76.3195753   2.4314018  29.4111848
  76.2762737   2.0078917  28.5538673  75.4776812   2.8780136  29.5005035
  76.8545198  49.4261551  24.8373246  77.0166397  50.2435064  24.3662715
  77.7178764  49.0206957  24.9176192  66.2221670  55.6791830  55.5731249
  66.4150953  56.5789509  55.3096390  65.7021666  55.7697201  56.3716459
  30.6419969  67.9180288  50.2656364  30.5084395  68.8616753  50.3546762
  31.5926623  67.8078985  50.2839422  49.5965958   2.5461790  43.0908680
  50.2679920   2.2620755  43.7111425  49.6009302   3.5012829  43.1540251
  24.7708678  52.9751539  58.2114029  24.6700358  52.0267916  58.2931089
  25.3247046  53.0915022  57.4394178  73.1938505   8.7378877  26.4815903
  73.4961224   9.1319507  27.2998691  73.6773062   7.9140806  26.4195561
  69.3987608   9.6308202   9.0228981  69.7900152   9.0482837   8.3718944
  70.0917482  10.2575731   9.2307091  19.0149522  32.4685240  55.8841324
  19.7621620  32.7887058  56.3894987  19.4027352  32.1012998  55.0897789
  46.3314295  77.9974318   5.3307390  45.4114294  78.2277870   5.2012384
  46.7702866  78.8358307   5.4746807  22.4424672  72.2313976   2.4743241
  22.3142123  72.8595018   1.7635009  23.0240798  71.5669966   2.1048267
  15.1791275  32.3657870  62.3708010  15.6581581  32.1945620  61.5599728
  15.3154600  31.5799427  62.9000425  32.7134299  62.3847342  38.7249184
  33.0648112  61.9705772  37.9367304  32.8101397  63.3236074  38.5655665
   2.5318384  41.0104847  25.7093024   1.6371059  40.9164381  25.3824377
   3.0584365  40.4632330  25.1266861  61.2822771  46.0665321   3.4160364
  61.2419844  46.0684967   4.3723857  60.3803492  45.9058952   3.1386405
  57.1171761   2.8338039  22.6899743  57.3483038   2.0821807  23.2357526
  57.9319620   3.0658519  22.2444296   9.4820172  31.2702727  18.0577791
  10.2835262  30.8597302  17.7333260   9.6414131  31.4011884  18.9924908
  68.7472200  18.9639330  21.5560126  68.0170822  18.6764646  22.1041822
  68.9737797  18.1932974  21.0354137  13.3822834  68.5767889  66.7479801
  13.9583254  68.4097385  66.0019922  13.4754407  69.5142794  66.9173050
  43.2065344  12.7390730  37.4251962  43.1268311  12.8212130  36.4748621
  44.1497660  12.7462721  37.5879550  59.0787458  57.0021725  10.5645680
  58.9815903  57.8568316  10.1446331  59.2348766  57.2048759  11.4869380
  73.2531929  30.7509398   9.8568517  72.9327679  31.4533997  10.4226327
  74.1735268  30.6490183  10.0994122  65.3157970  32.4296148   0.5030376
  66.0234698  32.9958589   0.8109314  65.3898283  32.4510010  -0.4510563
  15.0252926  62.4209881  25.5990767  15.5123401  62.7389050  26.3593030
  15.4853392  62.7936411  24.8469329  14.8225641  12.5241578   6.3420469
  15.5087805  13.0341649   6.7724329  14.9660075  11.6271126   6.6436523
  62.2972314  78.6670886   2.0430875  62.8645228  78.0214792   1.6216609
  61.4929955  78.6542449   1.5241742  17.8304183  31.4746141  49.7793245
  17.5598121  30.5572534  49.7412205  17.1093142  31.9541788  49.3715763
  81.2239742  39.3531108  41.6980505  81.6792488  39.9108481  42.3288345
  81.6589737  39.5302510  40.8640051  53.8538647  71.1563301   8.3794791
  54.5330238  70.5603552   8.0635810  53.1049347  70.9911346   7.8067255
  33.8783097   7.3378062  12.7323401  33.7539077   6.3887686  12.7414823
  34.8272634   7.4545485  12.6866388  65.8354807  60.8268118  14.6696544
  66.0768032  60.2471590  15.3921461  65.8112812  60.2554798  13.9020407
  10.4337597  78.0534220   1.9433472  10.3485167  77.7158117   2.8349665
   9.6003222  77.8377771   1.5248844  79.9971962  41.6742182   7.8739822
  79.5902443  40.9364510   7.4197549  80.9229279  41.6205263   7.6365447
  59.6682692  72.2167826  15.4512596  59.8580837  71.2912226  15.6046724
  60.0872183  72.6715183  16.1819673  12.3963785  34.9655795  57.8464413
  12.0495987  35.4200387  57.0786905  11.6812098  34.3967342  58.1313658
  83.4193325  29.2896509   8.9696503  84.3431854  29.1697931   8.7497383
  83.2372475  30.2031803   8.7493265  11.7509305  59.6214199  58.0330276
  11.1268222  60.3430510  58.1102800  12.6055515  60.0272894  58.1783772
  35.4952407  29.2409039  12.0796406  36.4276195  29.2058682  12.2933507
  35.3446460  28.4668899  11.5370011  80.6361389  11.3644254  44.3411922
  80.7267857  11.7942536  45.1916361  80.4673004  10.4464781  44.5535517
  78.2422686  31.3532925  48.1049967  77.6686430  30.8017206  48.6369324
  79.1273689  31.1110258  48.3772707  17.7873731  74.6263552   7.2437495
  17.6692176  73.9984989   7.9565394  17.5119698  74.1524506   6.4590216
  16.0724616  37.6440024  42.8199911  16.7636490  38.2765150  42.6239824
  16.5183854  36.7970657  42.8290653  49.9336958  34.6726274  65.8539152
  49.6546125  33.7593555  65.7884979  49.7260284  35.0484014  64.9984026
  50.1504660   7.6734710  55.5932999  49.4534445   7.0295537  55.7188416
  49.8411274   8.2241309  54.8740530  29.4743681  71.8300962  61.0434389
  28.9540219  72.6011801  61.2690496  28.9083695  71.0883141  61.2570715
  63.0940914  76.7482948  10.6617379  62.3964739  76.3187742  11.1567867
  63.4775305  77.3710537  11.2792957  23.2456231  23.5830283  50.3412008
  22.4167514  23.8880825  50.7101774  23.5834074  24.3359518  49.8561811
  37.4709988  73.1093359  36.4913368  37.1052361  72.2485828  36.2874818
  38.3763242  73.0637980  36.1838603  36.0805106  12.6318812  10.8565700
  35.1832438  12.4240422  10.5959034  36.5810704  11.8451691  10.6403363
  36.8876863  63.3139706   8.6640859  37.8270507  63.3181381   8.4802097
  36.6142392  64.2220879   8.5345447  54.2952204  51.1492777  62.1886396
  54.4764137  50.5753756  61.4443016  55.0021219  51.7944241  62.1713066
  34.3376708   4.0559572   9.1669905  34.4585395   3.4058970   9.8591208
  33.6004734   3.7251729   8.6538124  47.0956039   1.3008389  54.9627018
  47.8072214   1.0139152  54.3904209  47.3447418   2.1857136  55.2294588
  30.5355549  71.4220142  39.9214506  30.3905272  72.3153162  39.6096611
  31.1516857  71.5188313  40.6475639  17.0333457  18.8189852  16.6954076
  16.1685610  19.2277646  16.7311692  16.8625581  17.9219437  16.4083898
  49.3007135  76.5664768   8.0009025  49.8631430  75.9774113   8.5038030
  49.7133589  76.6133928   7.1384907  14.4203460  56.7152786  47.1058226
  13.6966562  57.3090887  46.9060898  15.2078724  57.2367430  46.9505501
  33.4750867  58.1273890  62.7052975  33.4729528  57.7736855  61.8158484
  33.8126826  59.0177965  62.6081562   4.8514697  16.3478935  48.1839705
   5.0259048  16.9928718  47.4985456   4.9030116  16.8456471  48.9999485
   0.4341574   9.4369859   5.0691789   0.3235346  10.2661538   5.5344474
   0.0802116   9.6034873   4.1955480  43.7333012  57.5144005   3.4069747
  44.2092800  57.4956417   4.2372298  42.9053831  57.9473066   3.6152619
  29.5637965  69.9951410  54.6032143  29.5403314  69.2007446  55.1367092
  28.8846374  69.8599958  53.9423704  53.4589624  74.9098206   5.6530744
  53.4690046  74.0376759   5.2587467  53.7383413  75.4944563   4.9485308
  34.5153284  41.2823534  62.1110439  33.8964820  40.5535603  62.1571255
  33.9745736  42.0425606  61.8968010  17.3828197  64.9449682  59.4619656
  16.7128074  65.3141308  58.8866091  17.1747720  64.0115881  59.5038319
  62.7149248  12.3454630  11.2402213  62.5991440  13.1049788  11.8111539
  62.6395226  11.5919876  11.8257296  82.0184994  48.4472942   6.7289907
  81.9826508  48.5290289   7.6820201  81.7411137  47.5478125   6.5551388
  27.2324276  32.5096536  55.4965305  27.9515481  33.0510402  55.8221054
  26.9847655  32.9149246  54.6654749  66.6191578  23.5119796  12.4445486
  66.5189743  24.4627213  12.4923480  66.5372992  23.3090663  11.5126920
  62.2128820  33.1483078  66.8316889  62.1993637  33.6343551  66.0071850
  61.3138485  33.2016444  67.1559286  80.6862259  48.2920647  63.2295227
  81.0171700  47.6168203  62.6372814  80.0411987  47.8390932  63.7726498
  33.6367726  33.9590311  68.1064510  34.3094254  33.6583900  68.7175035
  34.1146278  34.1506147  67.2994947  29.9776363  65.2375650  20.4316044
  30.7512474  65.2561426  20.9949994  30.2273583  64.6725655  19.7004092
  59.0073252  19.3012714  14.6063268  59.5229340  18.6277425  14.1627765
  59.1354656  19.1258442  15.5385482  45.0130558  79.0950298  15.8276439
  45.5406952  78.4304810  15.3846920  44.5812750  78.6227131  16.5394819
  73.8320160  75.8308697  42.5864983  74.7095680  75.9399033  42.9528904
  73.3734560  76.6383314  42.8187847  53.0250835  13.0950963  18.1517160
  52.3024607  13.5117602  18.6212206  53.7982321  13.2882416  18.6819720
   7.9220021  13.2324338  34.7210479   7.5458157  12.3625982  34.8555851
   8.0913997  13.2771921  33.7800217  42.6077271  12.8610313  28.1000924
  42.6768351  12.2995889  27.3279285  42.2249317  13.6744225  27.7713180
  55.7962275  59.5072508  24.8560500  56.0436821  59.8819685  25.7013822
  55.4303455  58.6495447  25.0721502   9.9860126  58.4453678  56.2377405
  10.5795252  59.1250944  56.5570307  10.4716837  58.0143642  55.5344677
  70.7206202  24.7633672  40.4548883  71.5562439  24.3250179  40.6155539
  70.9335709  25.4681087  39.8431492   8.8212186  21.2587667  15.4339933
   8.9556080  21.5118432  14.5206904   8.0032188  20.7617164  15.4269195
  63.8897324  43.6059046   2.3457412  63.3226252  42.8785515   2.0896697
  64.7599840  43.3502626   2.0398864  73.6251497  19.9539113  10.3218830
  73.6355352  19.1723406  10.8743978  72.6959515  20.1488543  10.2001655
  52.3434496  57.4785137  13.2413483  52.3712158  58.0351925  12.4631655
  52.7138567  58.0212212  13.9374065  37.7960062  75.4215670  25.9505916
  38.3090305  76.0507822  25.4435134  38.2662821  75.3426361  26.7805576
  70.9304190  21.3308787   5.3248394  70.5185318  21.2267089   4.4670933
  70.2776957  21.0059786   5.9450179  74.3590212  33.1468749   8.0950975
  73.8756323  32.3627996   7.8347296  75.2701426  32.9497218   7.8777814
   7.9833877  20.0951576   0.5920603   7.7551329  20.8733130   1.1005931
   8.6769032  19.6727622   1.0988647  70.8832407  78.4314013  14.4193542
  71.5687227  78.9521885  14.8378372  70.7263374  78.8697529  13.5830164
   6.9824433  41.0337496  39.9147892   7.0051783  40.4728317  40.6900835
   7.8723496  40.9942961  39.5644426  21.2013936  46.5590191  63.2439137
  21.4307046  47.1614885  63.9514971  20.4408431  46.0805130  63.5738087
  26.9793773  43.2025623  63.4472036  26.4067888  43.6243439  62.8065252
  26.3872218  42.9028606  64.1369581  15.2194476   6.9046229  35.9355617
  14.9503219   7.1773654  35.0584006  14.7470438   6.0860705  36.0873508
  80.4665756  27.1077871  12.4470234  80.3295326  27.2144222  11.5057039
  79.6196175  27.3220658  12.8381515  51.8937492  60.7155085  60.0666857
  51.4022589  60.3927231  60.8219814  51.9179726  61.6650963  60.1847267
  10.0370717  11.5760303  22.7783656   9.3228787  12.0208728  22.3219943
  10.7107282  12.2481561  22.8816390  68.7594318  75.5717564   6.3019836
  68.1663752  75.4977179   7.0496684  69.4310856  76.1902523   6.5893507
  15.6473589  72.9906654  54.8178768  16.3116825  73.6660862  54.6810961
  15.2338219  72.8844786  53.9611721  70.8042431  25.2306151  21.1588717
  70.0180960  24.6867371  21.2078691  71.5271187  24.6204352  21.3050294
  58.9031315  15.6758904  52.5417376  58.0919838  15.7686198  53.0414104
  59.3195534  16.5358365  52.5993299  66.5230560  75.9640980  30.2808094
  66.0140944  75.1725054  30.1059628  67.3559904  75.8171749  29.8326302
  29.0099955  77.0017624  63.3591700  29.1344571  76.3921309  64.0865564
  28.8182902  77.8401279  63.7794352  21.8693280  20.4909062  39.7943521
  21.4254141  21.1207891  40.3621721  22.5635910  20.9968352  39.3721342
  17.4943876   5.1810163  25.0570655  17.2580075   4.3202102  24.7115660
  17.6238525   5.7239175  24.2794228  35.0219965   0.5377109  65.9703159
  34.8703551  -0.3253003  65.5850267  34.8131990   1.1536153  65.2679634
  21.7428374   8.7196547   2.3505798  21.3074708   8.3830684   1.5673827
  21.7331839   9.6704054   2.2400768  14.0167797  42.7273369  57.3282719
  14.8450494  42.4090767  56.9692230  14.1001904  42.5988197  58.2731295
  19.5254791  19.5669460  18.7732446  19.7817743  19.1513515  17.9499424
  18.9185989  20.2599072  18.5129869  75.5321980  32.2924161  15.2720106
  75.2550459  31.9997621  14.4038105  75.8590269  33.1811547  15.1321650
   5.1639974  11.9670105  12.6401699   5.4847932  11.3988495  11.9398010
   4.7250503  11.3726127  13.2486510  73.1034374   2.7884293  53.5617733
  73.4007120   2.0098162  54.0325403  72.2196054   2.5677425  53.2678938
  36.9218707  49.9065971  65.6401348  37.1727872  50.7106543  65.1854181
  35.9684420  49.9574375  65.7081079  39.3897295  70.8718061  64.7507811
  38.5090685  70.5061483  64.6673536  39.2472553  71.8021345  64.9252033
  50.5525208  38.5172677  67.6121187  51.1233759  39.0425968  68.1728220
  50.1552677  39.1505742  67.0143318  74.0517044  13.6613202  22.2106886
  74.7542810  14.2540193  21.9436145  74.3498278  12.7955055  21.9319081
  40.9435701   2.6442975  41.1546612  41.7176056   3.1822294  40.9881449
  40.5882597   2.9836550  41.9761324  82.3353958   7.1018994  18.8223898
  82.8337002   6.3351524  19.1052759  81.5516472   7.0942765  19.3718600
  24.8402309  64.0483189  58.2640028  24.5028996  63.7909555  59.1220284
  24.4297457  64.8952389  58.0894566  65.5399275  20.2897310   3.0607677
  65.6990290  19.5317578   2.4982761  65.9927368  21.0112405   2.6241720
  67.3329639  16.9071496  18.6306071  67.2357273  16.4766407  17.7812326
  67.7888632  17.7254248  18.4335876  12.1745121  22.0021558  29.0120411
  12.4194729  21.2898135  28.4214544  11.2173378  22.0004654  29.0052605
  63.2441330  28.1648397  23.0076838  64.0257406  27.6151252  23.0637074
  62.7052259  27.8913021  23.7499690  74.4892406  26.9958520  26.0193920
  74.9881077  27.6536536  25.5349755  74.8252249  27.0513058  26.9139719
  41.4361143  29.7928762  12.7631867  41.4401722  29.5478225  11.8378949
  41.7523718  29.0128088  13.2189369   2.5155184   2.3479368   2.6533988
   2.0101385   1.5695721   2.4189390   1.9185242   2.8680882   3.1912392
  73.5235834  67.6623297  38.6039400  73.3934689  68.0614376  37.7436996
  72.9707861  66.8809891  38.5915589  59.4329739  20.1693630   0.9000915
  60.3768873  20.2618790   0.7708315  59.3363619  19.9813974   1.8336685
  34.9074364  64.9597168  24.2217469  35.5748773  65.6276321  24.0647435
  34.1612124  65.2372551  23.6903763  65.4660416  29.4814610   8.9224476
  64.6088934  29.7930932   9.2129970  65.3328371  28.5517812   8.7375617
  26.8764305  57.0252228  38.1824684  27.5367451  57.7179575  38.1641197
  26.7551684  56.7855263  37.2637320  65.9203148   4.8517603  66.8271542
  66.2530279   5.7151526  67.0722771  65.2538252   4.6560830  67.4857378
  71.2759161  24.3732214  13.0840099  70.7836676  24.4548297  13.9008701
  70.9768963  23.5463333  12.7057624  46.7834568  30.7449436  10.8705258
  47.0822239  30.2846098  11.6547847  46.2920523  30.0867510  10.3790629
  34.5472431  25.2230144   5.4907471  33.7270713  25.6760430   5.6864917
  34.3844843  24.7827315   4.6565452  38.4162140  14.8586452  56.6588068
  39.1197109  14.7679329  56.0160828  38.4452105  15.7798445  56.9172335
  10.7672536  41.1790609   1.4331724  10.6018054  42.0686913   1.7452900
  11.0634577  40.7040405   2.2096068  71.2879848  70.3741550  22.8206301
  71.5843725  71.2797070  22.7292037  72.0616579  69.8474932  22.6199055
  41.8184566  -0.1577756  14.0967941  41.1316633   0.4222721  13.7680197
  42.6343203   0.2428578  13.7966430  54.7170210   7.5967872  54.2399311
  53.9565039   7.6341891  53.6598921  55.1417875   8.4479046  54.1331291
  30.1230812  75.6155396  65.5231524  31.0424685  75.5035496  65.7648420
  29.6351671  75.2547836  66.2634420   5.4423451  52.0684099  61.7402697
   4.6553415  51.5569115  61.9279575   5.4943389  52.0859718  60.7846451
  25.7229328  66.0601759  64.1757774  25.8600497  65.7658815  65.0762367
  25.7302547  65.2556992  63.6571312   5.0474042  23.5624480  57.6769257
   4.6087980  24.4011307  57.5338602   4.6434882  23.2133865  58.4714317
  81.8630219   2.8227207  56.2043285  81.1866379   3.4990132  56.2412405
  82.6880169   3.3072269  56.2337732  71.0947847  30.2697539  44.6913910
  71.0118961  29.3924022  45.0650358  70.5901051  30.8298969  45.2811098
  43.0025244  49.2123985  34.3189764  43.1609821  49.5995855  35.1799107
  42.0495605  49.1465664  34.2576861  18.8164353  55.2355719  47.4510622
  18.5325301  56.0558653  47.8544807  19.3733025  54.8238516  48.1118298
  14.3668318  14.7174788  20.9996319  14.5889270  13.9678204  21.5518260
  15.0224531  15.3793812  21.2193537  63.0842686  44.0385818  12.2602427
  62.8322077  43.4298944  12.9546428  64.0403843  44.0631104  12.2986495
   3.3324701  72.6703644  39.4854355   3.3838990  72.3105669  38.5999250
   4.2164570  72.5669193  39.8377109   3.5538900  50.8892441  10.6447279
   2.6979375  50.5807734  10.9420872   3.4384382  51.0500431   9.7082210
  41.9428396  16.0315692  45.8122683  42.8752899  15.8929324  45.9782314
  41.5044832  15.6434417  46.5695238  54.0559721  13.5654628  61.3805914
  54.2604256  12.6327586  61.4476252  53.7225008  13.8003993  62.2465229
  11.6138875  16.8027759  19.0278089  11.4089048  15.9253848  19.3509173
  12.3247659  17.1059728  19.5925701  38.2834768  70.5205965   5.6443405
  38.0075455  69.6093321   5.7427800  37.6802850  70.8848429   4.9964839
   3.7210247   6.7302537  19.6405816   4.6101731   6.4459139  19.8522365
   3.3881864   7.1033311  20.4568315   5.3914386  30.7741451  21.1341810
   4.9931014  31.1433959  20.3460121   4.9891016  29.9102283  21.2236619
  60.2648258  70.7899046  62.4781370  59.7704077  71.2604332  63.1492472
  59.6250391  70.6146145  61.7880821  75.3693104  22.2838593   2.9807770
  74.9399900  21.4983773   3.3197963  76.0427141  22.4877763   3.6297581
  17.4892497  21.6273928  10.2746713  17.5581121  22.0642304   9.4257528
  16.6987598  21.0921097  10.2051640  24.6035838  52.4812555  54.8155689
  25.2983975  53.1349754  54.7373533  25.0393438  51.7110491  55.1804304
  49.2811251  10.4985344  44.5160389  49.1680479   9.6070778  44.8458099
  49.9929523  10.4300416  43.8797617  21.6218996  77.1436024  32.6219058
  21.1767912  77.8859282  33.0306411  21.4986753  77.2782516  31.6822696
  37.9894924  28.3958983  14.8829889  38.1693220  27.8899908  15.6754220
  37.6722670  27.7490854  14.2527246  13.2207704  20.6816649  64.3187571
  13.8639998  20.6337881  65.0260019  12.3761892  20.7334137  64.7662306
  48.4060192   4.2172319  45.7057142  49.1027403   4.7817135  45.3707886
  47.7008867   4.3005243  45.0637722   4.3411030  78.5592610  54.3951559
   3.5101332  78.9118441  54.7136021   4.1567172  78.2861538  53.4964657
  34.1435337  30.1092052   0.8559550  35.0781178  29.9112797   0.9160472
  34.0806651  30.7577896   0.1548012  38.5470223  43.3943176  11.7940831
  38.7490511  43.9783382  12.5250638  39.4022727  43.1172276  11.4654541
  65.4386520   4.7460935  40.6160927  65.4399300   3.7926555  40.5313206
  65.1645374   5.0627112  39.7553658  34.5727015  51.2768507  64.7425127
  34.2270827  51.2490988  63.8503218  33.9521885  51.8250561  65.2227974
   7.1848905   0.4968056  68.2133436   7.6731610   0.9839557  68.8770533
   7.7692920   0.4727761  67.4556303  21.1639452  76.7555857  63.1873417
  21.2529516  77.2806835  63.9826918  20.3591037  77.0742416  62.7787828
  76.7538500  10.5776346  16.3177955  76.1160183  10.3487921  15.6417501
  76.2352133  10.6611109  17.1179724  40.5804586  77.4013329  28.2856655
  39.8900580  77.9655409  27.9374647  40.1353312  76.5806770  28.4969091
  15.8274806  28.2780838  24.5926380  15.6535399  28.9895010  25.2089667
  16.7345202  28.4146380  24.3190241  20.3847337  57.9647827   5.9864855
  19.9934340  58.5979414   6.5883398  20.5278373  57.1834421   6.5205818
  75.8309460   9.7926801  12.6247311  75.5382872   9.3255818  13.4072936
  75.3387642   9.3916833  11.9083583  55.3145695  10.7451141  65.7541513
  56.0226393  10.7869899  65.1114082  54.5144367  10.7369196  65.2288437
  21.4521456   4.6629354  27.5274253  21.3657379   4.6059886  26.5758348
  20.6013346   4.3799940  27.8625369  59.6378851  68.7808561  35.3671455
  59.0557194  69.3555307  35.8641958  59.7575665  68.0161190  35.9302449
   5.8721614  68.3774233  67.0261717   6.8116122  68.4357357  67.2001410
   5.4650050  68.4247971  67.8911638  34.9823546  23.0726504  26.3397264
  34.4014335  22.4565029  26.7859554  35.8474994  22.8970289  26.7097402
  71.0347557  26.9196153  25.3037262  71.2057686  26.0130811  25.5590343
  70.9730101  26.8919611  24.3489194  71.7144775  53.4079456  62.2088385
  71.8629837  52.7120066  62.8490353  71.3381433  52.9601002  61.4511871
  48.7456560  44.3910742   5.3507322  48.4724760  44.7191858   6.2074405
  49.6984863  44.3239021   5.4126829  78.9841080  20.1048827  22.2458625
  79.1475344  20.5469036  23.0790162  78.8642550  19.1850889  22.4821877
  79.8514938  25.4816341   8.5298592  80.4026604  24.7041011   8.4410268
  80.4679108  26.1941051   8.6991233  28.6102366  33.6054444  67.2503996
  28.6195254  33.5619593  66.2942362  27.7069259  33.8325334  67.4710655
  39.6260858   8.8444585  41.1503744  38.7917423   8.6002970  40.7497692
  39.9414539   8.0376393  41.5575838  72.2472620  37.2078538  12.4011374
  71.8668842  36.5829706  13.0184412  72.0797396  38.0645919  12.7937806
  17.6362872  63.0915642  16.1718404  16.8028426  63.0558300  16.6412282
  17.4065709  62.9057312  15.2613854  67.5471640  34.2014551   4.2196152
  67.1789503  34.5188689   3.3950567  68.3071470  33.6815596   3.9581421
  35.0821495  78.7768745  14.8931539  34.6592093  79.3436337  14.2480671
  35.8064628  78.3708668  14.4169581  27.3929453  54.5679188  47.4528837
  28.0458450  54.6139097  46.7544270  27.4656224  53.6751032  47.7902651
  41.6397190  68.2368612   0.5570922  41.2462091  67.4796915   0.9907689
  40.9057522  68.8306570   0.3991873  38.9108562  70.8582354  44.5384979
  39.4097805  71.2520552  45.2541924  39.0397906  69.9159575  44.6467829
  25.4050803  36.3352060  62.9815769  26.1292219  35.9803677  62.4658775
  25.2525067  37.2053862  62.6131487  42.2802210  25.2151346   4.7023270
  41.4365768  25.6372452   4.5400900  42.6426077  25.0609660   3.8298941
  39.3160748  46.4803553   9.9372166  38.7132001  46.9269514   9.3428040
  38.7510276  45.9425116  10.4919040   8.5142970  14.2409408  13.9214706
   8.1478345  15.1141763  13.7821972   8.5537255  13.8553560  13.0462551
  58.7125349  38.8371301   9.2989528  58.9029980  38.0702877   9.8392397
  59.3257380  38.7725592   8.5668027  58.1875801  31.0704660  18.8246036
  58.3038235  30.1206255  18.8017845  58.9084244  31.3869739  19.3690670
  83.9231170  13.5041583  40.5698633  84.1672133  12.8480840  41.2227154
  83.1268292  13.1571448  40.1676989  37.5516844  59.1903591   2.8407413
  36.6332984  58.9687777   2.6867956  38.0372691  58.6381483   2.2279593
   1.7929158  77.4407148  28.9706659   1.8352008  78.1547165  29.6067858
   0.8622203  77.3609209  28.7616920  41.0705662  11.8181062   6.4876163
  40.2500105  12.2701383   6.6840333  41.3082361  12.1228695   5.6119084
  13.2967949   8.2334483  20.0797820  13.2735276   8.9947677  20.6595087
  12.3810112   7.9676229  19.9966550  70.1609564  47.4818563   7.8831333
  69.5385218  47.5909424   8.6020923  70.1419926  46.5445232   7.6900572
   9.2260438  29.1994619   6.6080183   9.8395050  28.5692906   6.2301505
   9.7822851  29.8327899   7.0615852   6.5914118  10.5587411  27.4347067
   6.6770029  11.3744950  26.9412971   6.4980370  10.8383250  28.3453918
  80.1342583  65.2986574  55.5994081  81.0667610  65.3400993  55.3873873
  79.6918917  65.4301405  54.7608089  25.9668422  15.3183377  31.3597751
  26.0961366  14.5892608  30.7531762  25.0299239  15.5079436  31.3101315
  19.6057868  63.5943842  22.4240851  20.2270603  63.1053257  22.9635930
  19.7281873  63.2449198  21.5414047  33.3278412  48.7009774  68.2250711
  34.2041576  49.0096407  68.4553495  33.0527205  49.2735229  67.5090181
  33.5456347   3.6488026  49.6735096  34.3746066   4.0637755  49.4351101
  33.2215142   4.1670111  50.4101467  42.7995062  35.6279373  12.8033936
  43.5834217  35.4435086  12.2859979  42.2922373  36.2329817  12.2622550
  38.0041695  37.6005435   5.7925445  37.9216838  36.7070341   5.4592735
  38.4644818  38.0732822   5.0991023  57.3272753   3.5540283  19.1973805
  57.3469353   2.5975934  19.2302084  56.4330101   3.7661666  18.9299440
  33.1512237  22.3544765   6.6137546  32.4138355  22.5004649   7.2063541
  33.8916755  22.1736836   7.1927863  51.1549377  15.1765072  56.8182611
  51.6598368  15.8117914  56.3105965  50.5622530  15.7098782  57.3478603
  21.1734724  13.3963597  67.6942587  21.2165928  13.5871732  68.6312532
  21.8293738  13.9727116  67.3020267  73.7534904  68.3441496  59.3228054
  74.4402933  68.7873793  59.8208809  73.8822746  68.6400223  58.4216356
  54.4859219   1.7256293  50.5902386  54.8404312   1.7758335  49.7025251
  54.6071720   0.8110100  50.8451939   8.3561867  23.0080867  30.2309537
   8.7880254  22.1585059  30.1417232   7.5495595  22.8176379  30.7098198
  49.9093914  76.2589073  46.9674397  49.7102261  76.7808008  47.7447414
  50.2714825  76.8876696  46.3431168  24.3032813  72.6826954  65.5837011
  23.7195921  73.4413052  65.5765486  24.8939776  72.8280067  64.8446465
  41.3870907  17.9399371  38.7910652  42.1396637  18.0586553  38.2116008
  40.9123755  17.1971738  38.4180021  60.3388214  44.1065741  14.8306942
  60.9148216  44.8038912  14.5173037  60.8416891  43.3029366  14.6983337
  13.4075522  18.1136572  20.4741383  13.7373877  18.2251883  21.3657665
  14.1311932  18.3947313  19.9141622  51.3441501   0.6018416  60.6671858
  50.5623375   0.3719202  60.1650524  51.0096989   0.8611742  61.5257454
  54.2492723  41.1385536   1.7673141  55.1290417  40.7622385   1.7422579
  54.3854809  42.0755577   1.6269493  75.4801559  75.4182005  19.4344974
  75.6818962  76.3526201  19.3856061  74.5238638  75.3802204  19.4518185
  66.8908072  75.0891113  68.0483723  66.9170284  75.6581497  67.2791243
  67.3656750  74.3023300  67.7805805  74.6260691  31.3368058  12.7527070
  75.3055859  31.1185551  12.1148562  74.3994093  30.4994011  13.1571960
  52.0460176  76.2001896  55.8503532  52.6758051  76.0139227  55.1539993
  52.1918011  77.1215534  56.0649776  36.1536837   1.5762730  19.6651471
  35.5753350   2.3389050  19.6768820  35.9542561   1.1119105  20.4780602
   4.8099941  49.7107697   5.6796598   5.7131666  49.5090055   5.4351139
   4.8041201  50.6585455   5.8134949   5.5865800  69.1541481  26.0892081
   6.4110869  69.2056894  26.5726972   5.0223315  69.8041487  26.5079570
   5.8578360  42.8344154  27.7437735   6.2449223  43.4644651  28.3515835
   5.0028926  43.2057905  27.5260925  27.3039937  30.2423835  13.6340964
  26.8438935  30.0023127  12.8297937  27.7967763  31.0295677  13.4022820
  65.6160259  16.0010362   4.4609135  66.2258625  15.8598483   3.7367615
  65.0898647  16.7525899   4.1878721  22.2777963  30.5557752  17.7967417
  23.0693150  30.0176287  17.8080642  22.4920177  31.3084745  18.3479095
  10.1954246  29.4219422  54.7043562   9.5521647  28.7152719  54.6489668
  11.0390568  28.9737201  54.7644806  78.1446218  52.0837545   6.3251245
  77.9034901  52.8396320   6.8606067  79.0872669  52.1781397   6.1882263
  23.5456093   0.3284565  21.3871622  24.4022138  -0.0812420  21.5080070
  23.7219818   1.0965649  20.8438945  32.3624921  10.1481485  33.1867576
  33.0068278  10.5749476  32.6220417  31.9120383   9.5298105  32.6114464
  44.1061211  50.2297401   8.5239321  44.4431353  50.9535217   7.9959238
  44.8684168  49.9101973   9.0066648  32.8473854  76.6292763  25.0627327
  32.4649477  76.1022615  25.7643199  33.6833143  76.2037563  24.8719835
  65.1702738   9.4508243  53.1728268  65.8757973  10.0926363  53.0919266
  65.2140903   8.9433056  52.3624325  38.8945651  75.6903601  63.1085825
  38.1724238  76.0270309  62.5781155  39.6324611  76.2632132  62.8998280
  49.9777412  67.2246981  10.5089140  49.1467285  66.7534447  10.4491889
  50.1737690  67.2468042  11.4455652  20.6634283   4.9004135   0.8959298
  20.5766010   4.9239492   1.8488932  19.9234867   4.3696013   0.6010444
  14.8826778  17.2707987  34.6461940  15.3511429  16.4453042  34.7700119
  14.1051400  17.1901309  35.1986051  20.7911372  35.9105587  34.8260069
  21.6096616  35.8262467  35.3150249  20.6136227  35.0275064  34.5020652
  17.9955959  13.1721830  53.7953568  18.8171053  12.6983869  53.6654663
  17.3145688  12.5307417  53.5929060  66.8395233  32.2184896  48.7479305
  67.4479771  31.4822912  48.8114166  66.9791603  32.7148509  49.5543766
   2.3349449  23.2610393  52.1364784   1.6303489  22.6162815  52.0727539
   2.6860803  23.1456256  53.0194378  59.2103338  74.2728806  38.1897879
  59.0811920  74.3555450  39.1346264  58.3648634  74.5129108  37.8105807
  37.4064016  76.6991329  65.2642012  37.9337764  76.5887213  64.4730520
  37.2032499  75.8063078  65.5431700  14.1209972  23.4840417  43.9464045
  14.3637717  24.2778993  44.4229317  14.8788238  22.9069328  44.0406275
  29.4569254  57.0144033  44.0190363  29.2783546  57.8461075  44.4579172
  28.8914728  57.0248556  43.2467747   2.2579372  18.2573712  49.8707676
   2.5366679  19.1606116  49.7201109   3.0153626  17.8378940  50.2789068
  19.6830010  15.8773232  49.5250273  18.9253116  15.3142381  49.3666840
  20.3888106  15.4776609  49.0167618  15.6375241  78.3840847  60.9199905
  16.3312984  77.9516172  61.4178658  15.7609582  78.0778790  60.0215292
  72.0480251  51.0795927  57.6689625  71.4765215  51.5015745  58.3104849
  72.6470184  50.5489969  58.1942225  81.1633205  72.9100513  41.0604143
  80.3214264  72.4865198  41.2279415  80.9418106  73.8266277  40.8959389
  13.9251685  17.3257494  51.9297600  14.7764599  17.7614021  51.8880463
  14.0875638  16.5308058  52.4376249   9.2704630  34.9581409  59.9699783
   9.8658490  34.5390534  59.3485975   9.8470616  35.3966427  60.5956650
  36.9886756  13.2234359  13.3649123  36.7409587  13.3915925  12.4557412
  36.2643600  12.7074635  13.7189949  59.2158318  56.3378859  37.0618033
  59.2134714  57.2335196  36.7240620  59.3929958  55.7931805  36.2949038
  43.3296728  58.3590174  36.1775589  42.5665712  58.4612322  35.6088281
  43.9121294  59.0764761  35.9280992  38.0961394  73.2488155  10.3183162
  38.0323076  73.4360266   9.3817753  38.9262700  72.7817869  10.4131782
  54.7614574  59.5444632   1.8866482  54.1805124  58.9127350   2.3104998
  55.4321146  59.7313690   2.5435489  22.7785230  32.7572298  62.0970869
  22.9189706  32.8052425  61.1514664  22.7335143  33.6707926  62.3792315
  25.6181979  54.8037338  64.1024208  26.5471816  54.8525381  64.3278933
  25.6078458  54.5062780  63.1926727  68.7551069  35.2031088  57.4774361
  67.9554319  35.4792476  57.0296574  68.7286901  34.2467642  57.4468327
   8.4269303  19.8705935  66.9035196   7.5479627  20.1576591  66.6560507
   8.2810491  19.1086650  67.4642467  78.6896372  75.3207541   5.6635761
  79.4785357  75.4694176   5.1422548  78.7899494  75.8987331   6.4199585
   7.2595072  61.9803667  59.9607229   7.5036246  61.9260645  59.0367699
   6.3442755  62.2605085  59.9505758  58.8637018   5.8942366   6.2915027
  58.4958315   5.0434244   6.5302926  58.9032698   6.3781178   7.1164417
  77.2435427  22.9365897  59.4190121  78.1446028  23.2581806  59.3889952
  76.8658495  23.2037425  58.5810328  21.3711739  17.1767771  67.8378868
  21.4149547  18.1329751  67.8370714  21.5205669  16.9293928  66.9253588
  81.1525059  26.3443136  32.9752779  81.8941879  26.9315529  33.1211901
  80.6010151  26.4581132  33.7493181  69.1709518  22.2408509  13.2473004
  69.1355896  21.2945962  13.3872414  68.4775019  22.4149275  12.6108623
  39.5855761  63.4168148   8.1510544  39.5475650  62.8976583   7.3477727
  40.4363346  63.2032394   8.5342377  79.2351770  29.8834896  37.3113394
  79.4696951  30.2390051  36.4541101  80.0682926  29.8126149  37.7773094
  70.8411741  51.1732960  29.1472173  70.1901436  51.4547110  29.7900200
  71.6625404  51.5569305  29.4544864   7.0583886  21.9939613  51.0776949
   8.0034173  21.8421721  51.0882521   6.7886347  21.8883252  51.9900036
  66.7060566  69.5261431  12.2562408  67.1755266  68.9062738  11.6980350
  65.8215427  69.5545864  11.8914640  22.0103621  30.0588560  60.1703739
  22.7033067  30.6533074  60.4579210  22.3849344  29.1845679  60.2778435
  76.0672235  37.0776415  -0.1422675  76.9932556  36.8745613  -0.2743942
  75.9765148  37.1762967   0.8055039  41.0445595  61.1374998   2.1328634
  41.3178444  60.3335667   1.6910031  40.3557348  61.4960957   1.5732518
  30.8923268  21.7805362  42.5899363  31.6285515  21.2723136  42.2494698
  30.5364323  21.2423944  43.2970238  63.2663774  70.6618595   6.1176020
  63.9857292  70.8537674   5.5159897  62.7634096  71.4753246   6.1567593
  42.9888058  71.5925503   0.8861545  43.4465170  70.8111143   1.1961377
  42.7107716  71.3705730  -0.0024715  65.7277679  32.8470063  12.7330089
  66.4803600  33.3718944  13.0056417  65.7079077  32.9337287  11.7799520
  13.7281334   9.1588265  26.2881827  13.0024028   9.2991197  26.8963480
  13.4962559   9.6742040  25.5156207   2.0795019  28.9472890   8.4390891
   2.8121346  29.0138197   7.8266722   2.4893889  28.9500022   9.3040848
   6.2635279  14.1112304  46.3800669   6.6307831  14.2729795  47.2490883
   7.0271569  14.0298021  45.8086920  70.6272316  37.7215171   8.0452579
  70.3375483  36.8096781   8.0746651  70.3967285  38.0738974   8.9048678
  74.4608688  47.8879070  49.1451693  74.7649622  48.2461119  49.9791098
  74.7004652  48.5512114  48.4979820  36.2226796  27.8609562  59.4076061
  36.2384629  27.5118208  60.2987242  35.5722141  27.3262763  58.9523697
  30.8823848  73.3116198  23.0537224  31.8037701  73.1628275  22.8412604
  30.8022141  74.2632389  23.1186867  42.4877548  20.1564336  56.1451674
  41.7154789  20.6137514  55.8124828  42.4488449  20.2793932  57.0936394
  17.4633491  49.2200804   1.4320567  18.2370806  48.9228106   0.9533036
  17.0468688  49.8516798   0.8456630  23.3126521  70.0680637  25.0801110
  22.4876571  70.4413176  24.7697926  23.9645982  70.3683281  24.4468331
  34.9936080  47.5686789   2.7287123  34.4848776  48.2007265   2.2208285
  34.5747614  46.7264223   2.5514996  29.0429497  62.7806473   4.9552673
  29.0556455  63.7104177   4.7281221  29.9663568  62.5390100   5.0270975
  52.9093599  20.1027989  43.4638119  52.6219606  19.7883391  42.6066399
  52.5800467  19.4497144  44.0812778  57.5021267  18.2462180  61.6834927
  56.6418219  18.2191849  62.1022654  58.0057096  17.5632894  62.1264839
  44.8846245  46.7945433  14.0931439  45.5937243  46.2421036  13.7641752
  44.4737291  47.1511078  13.3055794  35.9657598  76.5137815   2.8345144
  36.2890577  75.8124781   3.4000996  36.4704037  76.4215899   2.0263886
   1.7974102  14.7547936  17.0548642   1.0276317  15.3226948  17.0207834
   1.4765292  13.8990676  16.7702591  64.0442467   4.9949852  31.3246083
  64.8796892   4.5354450  31.4088154  63.9822674   5.2107000  30.3940940
   7.0641720  20.9326148  62.7253914   7.0712054  21.7831326  63.1644773
   7.4967593  21.0925055  61.8866205  26.9080877  47.8234577   9.7804117
  26.8528461  47.3724174  10.6228745  27.8239083  47.7298641   9.5182240
  83.4669986  30.0164676  50.1283312  83.7460071  30.9320927  50.1320744
  83.2846179  29.8254156  49.2082930  37.8433466  19.6424007  63.2592154
  38.3452439  20.3935838  62.9429007  37.3681283  19.3304300  62.4890995
   9.7569555  43.0482578  43.0730581  10.1946187  43.7130547  43.6047792
   8.8643330  43.0158281  43.4171629  42.1032286  65.1785183  10.5395448
  41.3386774  65.6879854  10.2709484  41.9859266  64.3286657  10.1150227
  80.3356552  36.2544465  64.8399639  81.2192917  35.8983111  64.7472858
  80.4114532  37.1625280  64.5469236  82.0069790  66.8443775  18.5988855
  82.1062183  66.8682766  17.6471448  81.1032295  66.5615368  18.7384319
  61.7326546  63.1739569  68.4981346  62.2623348  62.6486540  67.8983593
  60.9206915  63.3389235  68.0188274  80.0833797  33.7861443  67.7063704
  80.3762627  33.9315867  68.6059809  79.1886759  33.4579277  67.7958679
  47.7379131  11.9145918  21.7512727  48.6870289  11.9668984  21.6386819
  47.5582123  12.4523401  22.5224829  10.0832820   9.4574136  50.7612419
  10.7977200  10.0531888  50.9867668   9.5820850   9.3668324  51.5716887
  30.0967121  52.5881577  59.0730906  30.3366780  53.1038570  59.8429680
  29.3453526  52.0679998  59.3579245  62.6802254  20.1298881   3.3945605
  62.2436237  20.2808857   2.5562227  63.6049604  20.3023911   3.2175070
  33.4812999   5.7994050  61.5398264  33.7113547   5.9615362  62.4547148
  34.3120170   5.5762488  61.1198950  10.2720094  57.7153635  59.4282150
  10.5528665  58.1462336  58.6209345  10.6688476  58.2347584  60.1274872
   5.0512113  78.3145299  17.3339915   5.9848585  78.3193907  17.5449729
   4.9894823  78.7967110  16.5094173  11.7929876  52.9137611  58.6027861
  10.9302020  52.5273657  58.4526873  11.6167605  53.8427353  58.7517214
  12.2293687  44.5088577  13.2769692  11.7514193  45.3331280  13.1854272
  12.7249336  44.4275713  12.4620819  11.7389274  22.4350047  45.3899670
  12.5325036  22.8185797  45.0166845  11.0416877  22.6931190  44.7870874
  21.4009213  44.9700546  55.5071831  20.8706141  44.1850376  55.6441307
  21.1913109  45.2481604  54.6155834  41.8834925  12.5421417  40.1663303
  42.0436239  13.4621727  40.3764057  42.4621105  12.3613906  39.4255471
  25.3058219  60.9161472  66.3655758  25.8521843  60.1381588  66.2539911
  24.5998764  60.8064318  65.7285213  32.3804808  71.4564228  10.5181420
  32.8218102  70.6317520  10.7215607  32.7578545  71.7301702   9.6821505
   2.9750308   2.8852299  25.9869623   3.6471057   2.2251856  26.1569285
   2.7806759   2.7944562  25.0541067  75.6139040  69.2786789  30.2381063
  75.1173449  69.0049934  31.0093117  76.0283661  70.1009512  30.4994988
   8.3240092  76.6952324  61.7515850   8.1193960  76.1753082  60.9743834
   9.2692435  76.8378401  61.7023134  77.2834063   5.0806999   9.4377285
  77.0240259   4.5291364  10.1757872  77.0477819   4.5703962   8.6629361
  22.0988584   6.4790899  13.3667779  21.9507217   7.4157327  13.2364416
  21.2434292   6.0777444  13.2138145  37.8961897  77.7298880  17.2882056
  38.5415173  77.0229340  17.2863686  37.9080749  78.0673599  16.3925481
  69.9140930  22.7391553  49.5042753  70.8632565  22.7040839  49.6229792
  69.5617056  22.2454643  50.2447653  43.0696869  11.4096951  34.9313021
  42.7029562  10.6214917  35.3318977  43.3268404  11.1337852  34.0515423
  24.2672729  15.3292608  52.1172380  25.1533747  15.2281475  52.4648476
  24.1246367  14.5417047  51.5922213  50.3855181  37.9485321  64.5125294
  49.8071766  37.5671506  63.8520002  50.7907486  37.1942115  64.9403381
  78.2696438  72.7547264   2.6248714  78.8262796  73.5298967   2.6990333
  77.3910713  73.1041336   2.4756555  76.4755249  55.0928736   1.0056904
  75.6735182  54.6297455   1.2476172  76.4376020  55.9117413   1.4999080
  43.0526161  45.1067543   0.9294753  43.7887955  45.3842402   0.3842492
  42.6554489  45.9242630   1.2297574  23.7618160  11.5502799  61.9300413
  23.6894107  11.2523508  62.8368092  23.9206076  12.4916804  61.9991970
  67.6234579  74.3439102  50.1742887  68.4843969  74.2413330  50.5798721
  67.0105553  74.3418550  50.9095287   2.5961792  36.4983368  64.4275808
   3.3256081  35.9124231  64.2254162   2.0910378  36.5409088  63.6156368
  80.3613758  49.2794895  44.5692158  79.8205376  49.5271015  43.8192701
  79.7400284  49.1817474  45.2907419  83.0209923   6.7020231   8.0520362
  83.8435078   6.6987270   7.5624609  82.3928452   7.1188414   7.4621856
  23.3062577  22.6471829  38.3257031  23.4695005  22.3448825  37.4322844
  24.1763687  22.8344798  38.6779237   3.4545884   4.2854565   8.3022588
   2.6331139   4.3936050   7.8229725   3.6116818   3.3412439   8.2982892
   6.9159842   6.0658735  26.4522219   7.6203668   5.9696054  25.8112788
   7.0222437   5.3172255  27.0391369  67.6910448  55.7579136  61.1585760
  67.6317263  54.8135614  61.0139561  67.8500891  55.8467865  62.0982790
  66.3568401   7.7548397   4.6501964  65.7823372   7.4664855   3.9409494
  66.6265345   8.6374265   4.3961567  47.6941824  22.2139144  53.0649042
  47.4776125  23.1438804  52.9978657  48.4033251  22.0870948  52.4346161
   8.5102665  44.9867630   4.0201971   7.6182944  44.9261904   3.6782187
   8.4293669  44.7486544   4.9437729  15.2640843  35.4653406  35.5479002
  16.2044144  35.5837560  35.4137754  15.0371337  36.1006308  36.2269664
   3.6351442   9.7376180  68.3788872   4.3589962  10.1238823  68.8719082
   3.9806503   9.6272612  67.4930668  20.6165099  50.8092070   1.7265511
  20.1939654  49.9978447   1.4448109  20.3130460  51.4670467   1.1009414
  13.0588818  36.7959213  68.5552168  13.6942267  36.2338638  68.1117487
  12.9631639  37.5522804  67.9764366  74.2957878   3.9539674   7.3601115
  74.2644548   4.8977864   7.5164974  74.1193104   3.5633862   8.2159936
  83.3914661  59.6029472  42.2671700  83.6615658  60.3873968  42.7445698
  83.1169987  58.9900684  42.9492855  77.9255247  78.8270617   3.6957595
  77.8952980  78.6086130   4.6272096  77.7688026  77.9949379   3.2493892
   4.3200195  34.6260929  43.9136696   5.1897484  34.8913360  44.2127562
   3.9599913  35.4100204  43.4988546  62.5472164  13.1216288  25.9345937
  61.7413425  12.6700425  25.6838536  62.6540899  12.9221749  26.8646622
  48.1623173  78.9094496   8.6481208  48.6737108  78.1397533   8.3985722
  47.7033710  78.6439943   9.4450730  48.3244562  64.1555071  18.1443965
  47.5005817  64.4636393  17.7668774  48.9755440  64.3152571  17.4611712
  10.4372764  74.3792963  15.2962017  11.3662171  74.5849705  15.4010797
  10.4100907  73.7588024  14.5678616  57.5901079   3.4871122  49.1732597
  57.7534008   2.8367659  49.8563528  57.7564240   3.0208749  48.3539963
  37.2665906  62.6088047  18.1647635  36.7308927  62.3580170  17.4121904
  36.7739081  63.3135700  18.5852432  83.0942440  22.6964045  40.8286524
  83.0338669  22.8940248  41.7632818  83.9467716  22.2729802  40.7279587
  31.0138035  35.3043008  50.9209633  31.0607052  34.7273922  50.1585913
  30.5459428  36.0782075  50.6072617  55.0946999  65.5027771   1.1615988
  55.9299755  65.6192493   1.6143462  54.5458746  66.2177563   1.4838172
  56.1541653  63.6599302   8.2428771  55.5333996  64.0744448   8.8420910
  56.8990231  64.2605257   8.2164520  74.4454050  18.2482815  40.5039358
  74.0329504  17.4663973  40.1368237  75.3479338  18.2142580  40.1869011
  74.0077543  44.8076296  13.0926299  74.2100048  44.2180538  13.8190794
  73.5868549  44.2479944  12.4400306  16.4495754  25.3456640  42.1357822
  17.3071694  25.7707834  42.1419954  16.4233935  24.8472571  42.9525661
  31.5604162  74.6718121   8.0490541  32.4181724  74.4430590   8.4070462
  31.7499113  75.3138781   7.3648930  10.8315933   8.6394638  54.5724964
  10.7978129   7.7933609  54.1261768  10.6828642   8.4299690  55.4945707
  19.8275287  48.5692005   0.2402002  20.0062425  48.4222971  -0.6886261
  20.5837210  48.1944190   0.6918032  79.1723347  54.5879412   1.2728858
  78.2384062  54.4960833   1.4614928  79.5603657  54.8516607   2.1072191
   3.6582080   0.7108594  48.6921787   3.7535068   0.5203251  47.7589893
   2.7946863   1.1170660  48.7667322  32.5386786  36.7432404  13.2067657
  32.8588152  36.7361283  14.1088152  33.1224346  36.1446929  12.7407157
  29.1769695  76.0347748  24.6461844  29.3334436  76.7315865  25.2835226
  28.3394408  76.2628365  24.2427468   4.8361149  27.1419692  43.0836010
   4.9629632  26.8714499  43.9929724   5.5504400  26.7198944  42.6062918
  23.4927773  30.0927758  54.7702599  24.3469882  29.9267197  54.3715382
  23.2336926  29.2493749  55.1414490  52.1532393  69.6357107  32.8322029
  51.2624502  69.3705082  32.6033020  52.1233797  69.7847939  33.7772512
  35.6575704  53.7579250  67.8643894  34.9276733  53.3986235  68.3687544
  36.3446236  53.0948639  67.9317570  33.4577966  45.6023788   6.4966834
  33.7429667  45.7750320   7.3939574  34.0217876  44.8884392   6.1993027
  56.2108088  53.2147694  15.2526188  56.6928434  52.8405476  15.9900677
  55.3208065  52.8767395  15.3519523   5.3929490  54.1638041  30.1204300
   4.5606434  53.6967182  30.1934290   5.2496934  54.9837637  30.5930519
  81.0984325  12.2657740   4.9253985  80.4711056  12.9497826   5.1595497
  81.6592693  12.6713157   4.2641652   1.7967300  67.7284575  18.0348587
   1.3629448  68.3732414  17.4760067   2.5168890  68.2101107  18.4418154
  78.4199619  67.0649767  13.9604342  78.5526133  67.0196247  14.9073124
  79.0400362  67.7309132  13.6633360   7.6399118  52.2472620  23.6323142
   8.5673606  52.0739746  23.4709358   7.4272835  51.7170238  24.4003415
  36.6838002   2.7786982  66.3392162  36.3637233   1.9299927  66.0334682
  37.0919752   2.5904447  67.1843100   8.9133352  30.3109431  59.9074364
   9.3738985  30.4334617  59.0773153   8.1019479  30.8087134  59.8069143
   7.7093524  38.1465459  55.1581526   8.0984378  38.2689548  56.0240984
   8.2353050  38.6981845  54.5791006   8.9794254  21.8165207  43.3739424
   9.1409087  22.0110989  42.4507427   8.3954418  22.5158143  43.6675119
   0.2758414  49.5837402  61.9683456  -0.2585594  48.9586496  62.4581528
   1.1537837  49.2023754  61.9714594  11.2983942  71.0058022  52.0327616
  11.9896829  71.1193609  51.3804913  11.2065721  71.8685293  52.4371243
  33.2113600  10.6049776  61.5437269  33.8482428  10.8644319  62.2095299
  32.7326226  11.4093995  61.3438606  43.4140587  67.8219604  65.7734346
  42.5132179  68.1454706  65.7812214  43.5064888  67.3507452  66.6014671
  12.5179672  44.1449928  50.9147739  13.3359516  44.6308661  50.8095932
  12.7307487  43.2544756  50.6356144  83.0915356   7.3057675  22.6449728
  82.3906708   7.4037653  22.0004487  82.8299904   6.5494102  23.1700897
  26.4797115   8.1049484  55.7715845  26.6980600   7.9122549  56.6834116
  25.7747388   7.4931157  55.5596733  20.7365489   1.5623869  62.8061771
  20.4651904   1.4805734  63.7204552  19.9159527   1.5850677  62.3138952
  21.0491705   5.6656605  44.3246126  21.7210293   5.4276186  44.9634981
  20.2265477   5.3872263  44.7271061  51.4939785  78.2165813  16.2942958
  52.1037149  77.7638674  16.8769670  51.0182714  78.8187122  16.8664634
   5.9476352  64.1630936  62.3276854   5.3953314  64.7625351  62.8295422
   5.3395116  63.5096312  61.9821358  71.0183001  36.9986606  47.9486561
  71.1342001  37.8995347  48.2506847  71.0906744  36.4687204  48.7424803
  82.3903179  10.2124131  17.6307154  81.6897392   9.7217309  18.0604362
  82.0122433  10.4881549  16.7956948  43.5802603  14.7519624   5.3706777
  43.5109711  15.2319431   6.1959344  44.5127153  14.5524931   5.2871782
  63.1403780  65.2182770  64.5142126  64.0281487  65.5464840  64.6569490
  62.5866938  65.7828093  65.0536299  72.5008631  78.6251116  17.8332913
  71.5765047  78.4441137  17.6629019  72.9035950  78.6520910  16.9653547
  44.3746662  62.6527977  21.1863875  43.9428425  63.4744501  21.4201522
  44.7744179  62.3517179  22.0023441   9.1437298  26.8686032  58.3687210
   9.8318046  27.4878931  58.6121655   9.4637126  26.4588141  57.5650311
  45.7450962  70.2798319  49.1398668  46.2189198  70.8152199  48.5034084
  45.2119493  69.6899319  48.6069489  13.1051147  19.3198049   2.8434223
  12.7769732  20.1796293   2.5802568  13.8962305  19.1946685   2.3192953
   4.5360860  63.2194042  20.6491208   4.6847901  62.4351215  21.1773396
   5.2876776  63.7813091  20.8378100  23.9681697  11.4985108  57.7890491
  23.7397480  12.4273193  57.8260612  23.1253624  11.0449457  57.7754927
  67.0808315  12.8069639   5.0330991  66.9428301  12.7881038   4.0860870
  66.9028521  13.7136471   5.2830654   4.8177767   8.4742713  15.7863486
   4.7400442   8.7145877  14.8630726   4.0521348   7.9255038  15.9562850
   7.6390952   5.6527805  12.6016450   7.8792053   5.4631090  11.6946697
   7.1202081   4.8963833  12.8752327  76.3473272  72.9233408  23.8503885
  76.4569426  72.0208311  23.5509086  75.6289530  73.2664633  23.3189416
  46.8744707  44.3774700  13.2707787  46.9937468  43.7367201  13.9718115
  47.0177269  43.8806295  12.4652588   1.7550734  61.5514128  68.4604454
   1.9806269  61.4445393  67.5363592   2.1398000  60.7878344  68.8907553
   2.0589130  25.1983070  60.1237011   1.1397692  24.9310994  60.1264715
   2.5128597  24.4996858  60.5949688   3.3457926  14.0288651  67.1160412
   2.7836207  14.7516358  66.8371201   4.1194084  14.4555414  67.4844122
  33.0734563  76.5755272  18.6623144  33.0588508  76.5968275  17.7054632
  33.9747596  76.3405466  18.8829255  45.8222866  77.4104548  33.7036371
  46.1415863  78.2743979  33.9641809  45.0081635  77.2979927  34.1943359
  19.7967649   1.1178432  65.2601337  19.5781326   0.1938271  65.3810740
  20.0768352   1.4130835  66.1265230  43.6684322  70.2327728   3.9577591
  44.5370531  70.3143454   3.5639635  43.4137678  69.3253994   3.7902579
  11.4428365  57.7838182  53.7103939  12.2519445  57.7904510  53.1989908
  10.8281207  58.3039379  53.1928682   7.2314829   6.0564017  55.7260990
   6.4320529   6.0192508  56.2512302   7.6576251   5.2129668  55.8785820
  59.7678900   6.1120886   0.6303239  59.2524481   6.8491995   0.3028819
  59.1222620   5.5229670   1.0206164  39.4300342  43.1702518  67.9897690
  38.8404608  42.4283552  68.1247616  38.9544702  43.7487173  67.3935699
  51.4535332  28.9632654  10.0108910  51.1086512  28.2948732  10.6029546
  52.2990608  28.6171174   9.7254157   3.6931506  63.8464117  39.0791988
   3.6781460  63.0450392  39.6024704   3.1162083  64.4494057  39.5479918
  79.5758390  49.4945383  66.9131231  79.0726948  49.6308374  67.7159309
  80.3432846  50.0578403  67.0128965  74.7959089  55.1994944  31.8983269
  74.7821999  54.7161818  32.7244306  75.6808805  55.0675058  31.5582728
  28.5701108  56.3244629  67.1936226  29.1270566  56.3989592  67.9685354
  29.1367865  56.5804100  66.4658833  37.1058583  40.3749084   1.8396661
  38.0532217  40.3284121   1.7109324  36.8476534  39.4763446   2.0449650
  74.7066545  17.5546300  66.0213041  75.4643488  17.9501128  65.5903482
  74.1166258  18.2892227  66.1900425  56.8120718  52.6873493  59.4095755
  56.1043692  53.2726812  59.1398144  57.1045160  53.0371332  60.2512169
  65.3744936  33.6856890  62.5301552  65.6279182  32.9646540  61.9538593
  66.1794806  34.1890001  62.6522446  66.6747713  73.2176924  18.1758964
  67.3705292  73.8157845  18.4487259  66.3203382  72.8728294  18.9954555
  35.6160593  78.5927010  19.7092998  35.8078814  77.6571512  19.6446395
  36.3002777  78.9384270  20.2824903  58.3271313  76.8878651   3.6460391
  57.7018404  77.4154568   3.1491637  59.0876865  76.8120384   3.0698121
  18.9189959  33.2626820  61.3476801  18.8928330  32.3297906  61.5604353
  18.4282517  33.6832237  62.0537615   4.6526331  42.7452707  58.4848738
   4.4908944  43.6496735  58.2162952   5.3801292  42.4580193  57.9330873
   4.4987357   1.6563606   8.0963701   4.7568572   1.0659418   7.3885489
   4.0615356   1.0905913   8.7327605  15.0119460   7.9068536   2.9642507
  15.2872527   8.7894255   2.7162489  15.8131671   7.4839711   3.2731944
  74.6369171  25.2055097  29.8581553  75.0814486  24.4759083  29.4265223
  74.9318886  25.9814286  29.3815279  38.1956911  15.8136201  22.7142859
  38.4388685  16.1820662  23.5636067  37.9456472  14.9101639  22.9078746
  25.4788494  23.4589267   0.9996067  25.8731389  24.3124557   0.8200099
  26.0943484  22.8275943   0.6270318   8.2445270   2.3837605  17.9147863
   8.4746230   2.9143816  18.6774981   7.8216094   1.6074666  18.2818556
  58.5436010  71.5369129  50.5440092  57.8192282  72.1612787  50.5850315
  58.4560061  71.0156584  51.3420391  13.7522042  12.6377225  13.5613596
  14.2087781  12.4165595  14.3730605  13.9910817  13.5491991  13.3928978
  72.8891277  67.1031952  16.2401485  73.2432318  67.5233603  15.4563737
  73.5250282  66.4204407  16.4539433  44.0774870  76.9034290  12.8017318
  43.7747431  75.9973669  12.7414942  43.3562326  77.3693228  13.2247722
  75.3349495   1.5085095   6.4205611  75.6701231   1.0673078   7.2010946
  75.2357626   2.4227439   6.6862082  72.6071072   9.6020973  19.2602921
  72.1674490  10.0554073  18.5409558  72.1434402   8.7682039  19.3368924
  16.5158951  55.7533312  63.2389593  16.0228515  56.3276339  63.8248968
  16.4558625  54.8885155  63.6448145   3.5411838  23.4117842  21.2903690
   3.3724043  22.6203918  21.8016863   4.4704956  23.3590555  21.0671401
  28.4091306   0.9993335  11.4048231  27.8176236   1.0407493  10.6534016
  29.0053439   1.7379162  11.2813044  61.4793062   2.6246646   4.6094698
  61.5647650   1.8425055   5.1545894  60.7523060   2.4268678   4.0190661
  11.2437379  28.6826992  57.9640341  11.3461530  28.2949090  57.0949173
  12.0683682  29.1431713  58.1195354  82.7560520  65.0508690  55.2127028
  83.6456299  65.4039955  55.2264977  82.7755451  64.3280458  55.8399010
  68.3661175  20.1246572   9.7676587  67.4405861  19.9915099   9.9723500
  68.8204622  19.4373536  10.2549112  44.2124510  26.7167211  19.9939573
  44.2026663  26.5558887  19.0504169  43.4384537  26.2595892  20.3228831
  21.2526965  56.0167551  25.7690167  21.4081955  55.4706573  24.9984145
  20.8035421  55.4385805  26.3856244   4.8012435   8.0276102   3.7622467
   4.7010672   8.7446433   4.3883932   4.8242906   7.2384584   4.3034866
  18.6362302  54.2458868  32.5828552  18.8529074  54.9201775  31.9389486
  17.7582610  54.4773722  32.8858709  15.6559134  63.1843138  36.5152383
  14.7930551  63.3168173  36.1226201  15.7155490  62.2383642  36.6488576
  69.1227388  47.2665882  29.8563957  69.4486713  46.5136480  30.3494287
  68.3579350  46.9329023  29.3873978  27.4438882  69.7559118  52.8193283
  27.6643848  70.3707218  52.1195936  26.6717219  70.1363802  53.2379389
  58.5946798  70.8255386  29.4187164  58.9123154  71.2927389  30.1914167
  57.6486826  70.9715080  29.4226313  64.4195509   8.8948935  13.3752704
  65.0221157   9.4309187  12.8596890  63.9822626   9.5174724  13.9561367
  78.6388969   6.6481364  22.5472021  78.6440325   6.4098507  23.4742546
  78.2213497   7.5091374  22.5235224  41.6163588  51.0083199   1.3110001
  41.3190985  50.6373405   2.1418071  41.2877798  51.9073200   1.3189133
  17.9751396  39.6797585  42.5455856  18.4045434  39.1864562  41.8466568
  18.6102498  39.6826959  43.2617283   9.1522574   1.1786479   2.3510562
   8.2352048   0.9050225   2.3316640   9.5359176   0.6795740   3.0721399
  59.9092245  11.0189223  26.3818336  59.6022606  11.6466939  27.0359826
  59.4001913  10.2265525  26.5529156  21.8344450  17.7327037  24.4818974
  22.2483230  17.3897493  25.2739310  22.5321126  18.2127297  24.0357280
  57.4121571  67.3253012   2.9235381  56.8762302  68.0613375   2.6281387
  58.2445574  67.7226210   3.1794345  68.1277657  48.4955883   6.1595464
  68.9630938  48.2606030   6.5635806  67.4851608  48.3941650   6.8616897
  27.7402687  25.3308463  43.7938213  28.0198193  26.1769223  44.1434526
  28.4273601  24.7214127  44.0635061  38.0555797  78.8516998   1.9630383
  38.3668733  78.9595699   2.8617552  37.1368289  79.1184568   1.9941567
  50.5224419  58.1007767  24.0001869  51.4088869  58.3448505  24.2664146
  50.0877094  58.9347363  23.8219976  33.6196542  43.3598995  65.2484751
  34.1326070  44.1550541  65.1041079  34.2403626  42.6452971  65.1060152
  11.7585695  10.1467586  35.4949999  11.8916881   9.2842227  35.8881211
  10.9616232  10.0518167  34.9733734  22.1195436  20.6726789  34.1944313
  21.6122532  21.4389920  33.9267468  22.9097676  20.7083488  33.6554480
  20.7674694  50.8797121  68.0225945  21.4043427  51.3288641  67.4668121
  21.0334158  49.9605560  67.9970312  35.0106525  45.9309006  65.8749533
  34.4279814  46.4515162  65.3220701  34.6604586  46.0378122  66.7593527
  83.7019262   2.1666072   4.0856597  82.9599371   2.6380035   4.4644335
  84.2160899   1.8823597   4.8413521  66.2356234  74.1051912  15.4017627
  66.4475250  73.9335299  16.3192928  66.8960190  73.6187124  14.9083626
   0.8077925  46.8966007  65.1337957   1.3057655  47.7073526  65.0292253
   0.9400579  46.4264107  64.3105936  34.1052890  39.4403768  58.7127066
  34.9131107  39.7559977  58.3076906  33.4060621  39.8519492  58.2048464
  13.9929903  72.5479460  62.3671913  14.8350513  72.8275108  62.7263689
  13.6767864  71.8878174  62.9840183  57.8727865  60.0486565   2.3490483
  58.0341721  59.1903162   1.9573402  57.8586292  59.8829174   3.2916838
  49.8196030  56.7473364  16.6893804  50.1049662  56.5735817  15.7923794
  48.8867474  56.5328312  16.6897464  54.9843407   0.2460284  55.0914383
  55.5125189   0.9118980  55.5317545  55.4917574   0.0134418  54.3138361
  40.2074575  73.7541389  14.3358803  39.5394230  73.7008572  15.0193453
  40.6250334  74.6041679  14.4748580  65.6885242  75.7845259  55.0818014
  64.8856354  76.3053513  55.0633764  66.3045168  76.2746716  54.5372486
  66.3526869  75.4882574   7.9040456  66.6500664  75.8304739   8.7470680
  65.4269838  75.2865648   8.0405128  70.9243631  41.3450384  47.4027634
  70.9718323  40.8853006  48.2409859  70.5973673  42.2165728  47.6257849
  14.7628403  39.8072672  52.1934414  14.2174149  39.0384507  52.0271254
  14.5683777  40.0474453  53.0993843  11.7669570  11.7426646  11.8882740
  11.8025029  10.8061552  12.0829976  12.5861859  12.0915878  12.2394860
  67.7243948  15.7481706  36.5441704  66.8467426  15.9417009  36.2147689
  68.2027960  15.4299974  35.7785797  77.5644636  22.8503060   9.9572623
  76.7251921  22.7742553  10.4112148  78.1787586  23.1320071  10.6351388
  69.6287870  21.6876364   0.8059999  68.6976385  21.8786883   0.9186850
  69.8661947  21.1850834   1.5853003  26.8956947  51.4024878  48.3421373
  27.2123146  51.2398720  49.2306995  26.0492468  50.9571505  48.3042383
  35.3029776  64.7832537  18.8666451  34.8578572  65.5232286  19.2796004
  35.8948684  65.1845598  18.2303655  52.5245810  61.2893343   5.2045339
  52.8755856  60.4940176   5.6051588  53.2965326  61.7598677   4.8900262
  14.5243597   9.3699408  41.7067671  15.3067911   8.8256949  41.6182852
  14.8587203  10.2661526  41.7419767  79.2153740  10.6610036   6.2008351
  79.5637226  10.8892345   7.0626909  79.8598957  11.0060298   5.5829531
  16.3565779  18.0869913  65.0140953  15.9542596  18.8864601  65.3535366
  16.6826880  17.6341355  65.7917881  74.5064497  64.4139147  44.6535540
  73.7415695  64.8925018  44.3339443  75.2441263  64.7966719  44.1786242
  36.2684751  23.5730124  43.8151693  36.5140772  22.8276682  44.3632317
  35.7608557  23.1880403  43.1007814  44.3408298  69.1840792   8.4099466
  44.1922712  68.2400846   8.3548331  43.5889530  69.5714378   7.9617673
  21.3554883  39.0516233  55.8917284  20.8595514  39.8537517  55.7278204
  20.7769012  38.5197330  56.4381361  81.8400002   3.2949567  18.5363269
  80.9058189   3.2058987  18.3476377  82.2751617   2.9971567  17.7374637
  71.6793585  28.8760614   6.2423170  71.8317556  28.4453154   5.4012072
  71.0417986  28.3166003   6.6858804  32.1061993  46.1711121  56.9443369
  32.9383087  46.5191269  57.2648239  32.3430824  45.3599024  56.4948320
  11.0093999  44.5312405  44.9002743  10.7517672  45.3649330  45.2937460
  11.4602733  44.0637350  45.6033993  28.1421685   8.6224866  59.5271873
  27.7353835   8.1487697  60.2526855  28.8380361   9.1364115  59.9369192
  10.2033412  51.5989542  51.9491243   9.8789746  50.7331944  51.7011786
   9.4454122  52.1754837  51.8522263  56.5989494  60.9693336   7.9322535
  56.8544245  61.0605049   7.0142937  56.4813566  61.8685341   8.2385862
  58.1505442  74.5680809  65.6580257  57.2443295  74.4638062  65.9480858
  58.4074926  75.4317760  65.9808874  15.9595335  18.5525227   4.9525300
  15.7071447  19.4031131   5.3117353  15.6006026  17.9155803   5.5703527
  47.6117563  63.9653397   8.1609827  47.4377489  63.1114626   7.7649385
  48.2061434  63.7759733   8.8869822  60.1443243  72.7614975  12.6690853
  60.1366377  72.5625420  13.6053491  59.8712015  73.6774015  12.6166046
  12.7005947  28.6362505  55.2033997  13.1342328  29.4453549  55.4745817
  13.3063805  27.9416299  55.4617739  16.8044913  39.2371726  31.3744545
  17.2442448  39.1552544  32.2207022  16.5160084  38.3482742  31.1674047
  19.9402201   8.6847109  60.7437181  20.8142734   9.0042269  60.5197239
  19.4391096   9.4761086  60.9407187   2.8559938  10.4300439  20.2841926
   2.7003431   9.4921046  20.3949857   2.9855925  10.7580793  21.1740398
   8.7745446  63.9793444  62.4429131   7.8388935  63.9846373  62.6448107
   9.1270816  64.7296238  62.9214811  72.5658798  23.8560033  66.0406208
  73.2458353  24.3077803  66.5404081  71.9341898  23.5695291  66.7002678
  18.4300065  66.8848372  63.2779741  18.6237276  66.5293646  64.1453552
  18.8506997  67.7446127  63.2720613   0.0492411  78.0874777   2.3572451
   0.7299615  77.4148750   2.3357698   0.5232632  78.9028645   2.5205767
  50.0154257  31.0777307  11.8734145  50.3013849  30.2773666  11.4331007
  49.1705847  31.2826967  11.4728415  18.9312398  40.4845810  58.8470316
  18.3704007  40.7983208  59.5564413  19.5998931  39.9581981  59.2852736
  17.3549986  46.1800432  67.2596598  16.4447725  45.9726906  67.4711466
  17.8138757  45.3429413  67.3298597  71.5170622   7.9122359  14.5240057
  70.6236792   8.1166846  14.2477953  72.0457315   8.0359995  13.7356997
  33.0446005  55.2326918  62.2898483  33.8554883  54.9927664  62.7383232
  33.0037403  56.1862421  62.3626661  25.5072474  49.6090174  31.7641091
  26.2159061  50.2522945  31.7489648  25.7716370  48.9770985  32.4326968
  38.5544920  17.4311352  64.6910095  39.4963884  17.2851074  64.6030378
  38.3919144  18.2424092  64.2097282   2.2752385  45.0190544   3.9179671
   1.5777940  44.3678522   3.8422385   2.6335990  44.8852682   4.7954124
   4.0359786  70.1496792  61.2484360   3.6291629  71.0137033  61.1836433
   4.7573754  70.2703047  61.8659019  61.7039299   4.1579270   0.2430708
  61.1101532   3.4888977  -0.0976042  61.1780024   4.9574611   0.2625390
  36.2811589  67.2683096  30.4667187  35.4687929  67.7697659  30.3971624
  36.6832495  67.5752306  31.2793422  27.6433802  69.0015650  63.6681509
  27.3279500  69.4142342  62.8641367  28.2358980  68.3126450  63.3672476
   8.7674457  62.9529619  54.6655273   8.1416070  62.4183273  54.1769361
   9.5877045  62.4615383  54.6218157  67.8320503   2.8939122  37.2314167
  67.4990559   2.6261762  38.0879593  67.0465183   3.0613536  36.7107105
  55.7648325  75.3840065  42.3501635  55.5863428  76.2598562  42.0077276
  54.8992062  75.0110960  42.5170612  37.8021026  29.0292692  67.0488310
  38.1696224  29.3507814  66.2255526  36.9897604  28.5918713  66.7938519
  69.7484159  59.4335127  13.5039532  69.6423340  58.8320303  14.2409730
  70.6948948  59.4839430  13.3702767  32.2592854  78.4072542  63.2345629
  31.5515280  77.7899361  63.4195709  31.8313956  79.1330910  62.7803516
  14.6738636  25.9876966  23.8869810  14.8896873  26.9168162  23.9669275
  15.5082774  25.5361938  24.0139890  46.8726110  54.5630693   3.2724565
  46.3665676  54.4595432   2.4665830  46.2216187  54.7895670   3.9366364
  36.7573524  14.3790543  46.8982983  36.5032291  14.8812521  47.6725388
  37.5441909  13.9052415  47.1677732  80.9640312  28.4834218  54.0708494
  81.8126011  28.3317041  53.6547422  80.7675362  29.4018650  53.8862324
  44.8724413   7.9516256  55.9374762  45.6453609   7.4258673  55.7315540
  45.1944399   8.8527924  55.9585810  17.5672269   6.5561265  68.2044983
  18.4456873   6.4856350  68.5780859  17.6764536   7.1229529  67.4409437
   2.2282451   5.9371096  10.1715922   2.8399605   5.3849810   9.6845704
   2.4798551   6.8320972   9.9437308  75.9199715  11.9107521  24.0693665
  75.9524488  12.1206987  25.0026917  75.3847218  11.1186957  24.0205216
  62.1516466  32.0969701  42.4106026  61.3302469  32.4445271  42.7580833
  61.9287205  31.2185693  42.1024609  17.8379154  44.7290754  62.9618263
  17.3285580  43.9213610  62.8956175  17.2721910  45.3299189  63.4467745
  28.2317829  56.5771770  61.1921787  29.0280008  56.2571621  60.7680845
  28.4793067  57.4272060  61.5560675  47.0607281  51.7956877   7.5687069
  47.2913647  51.0527945   7.0108986  46.2523603  52.1390915   7.1881205
  57.4415493  14.0487635  16.2516320  57.4606037  13.3245683  16.8772602
  57.9113626  13.7167776  15.4865861   6.1298299  35.4855728   8.0300194
   6.5953797  35.5220127   8.8655835   6.4756352  34.7050929   7.5970060
   8.5365540  65.7085991  49.7999191   8.7281138  65.8346987  48.8706017
   9.2099494  65.0994587  50.1027727  69.5735216  57.4512577   6.9745702
  70.1569080  58.1536531   7.2618514  68.6963511  57.7613688   7.1995997
  57.0513153  22.3330426  47.9524040  57.3793077  22.0791101  47.0897484
  57.1434021  21.5434527  48.4856033  65.7652140  13.8906932  28.1374216
  65.0742054  13.3339155  27.7786207  65.2988005  14.5511770  28.6497211
  59.0136433  23.6784244  67.1683502  59.7397089  23.1608963  66.8201733
  58.3528566  23.6601114  66.4760637  75.9006691  51.4251423  53.8716078
  75.2000904  51.6832638  54.4706011  76.4036798  50.7723379  54.3584919
  59.8480368  50.8483553  48.3151579  59.6460485  50.6578922  47.3991060
  59.2281914  50.3152275  48.8129520  43.1334543  38.6469412  67.7503777
  42.4751091  38.9371324  68.3817291  43.9396191  38.5742354  68.2613039
  71.3623857   6.9317883  18.9960027  70.7782221   6.6511428  18.2915711
  71.3237572   6.2214828  19.6364760   2.5526923  39.5727015  64.9114609
   3.3799353  40.0473928  64.8304224   2.7557272  38.6853647  64.6154165
  43.6636543  75.6929636  27.7326632  43.4535503  74.8890686  28.2078910
  42.8362751  75.9561634  27.3296738  22.2762871  31.1577749  64.2833328
  21.4369321  31.2858486  64.7252750  22.2245288  31.7130327  63.5053587
  13.2025254   0.7939819   9.5519781  13.0757844   1.6992715   9.2680424
  13.6896837   0.3846559   8.8368827  20.5924749  64.3337345  61.9926310
  21.0271454  64.7252178  62.7502823  19.7078931  64.6990919  62.0087481
   3.9170641   2.5612149  20.9655571   3.3277485   1.8098831  21.0321879
   3.7787896   3.0469221  21.7787004  46.4452267  11.1893618  66.5817213
  45.8191586  11.1758757  67.3056555  47.2502565  11.5346193  66.9676685
   6.3007969   4.2777255  20.3711200   5.8331275   3.9691931  19.5950234
   7.1653152   3.8718706  20.3069139  69.2690563  31.6660905  11.2758696
  69.4130707  32.3180151  11.9617891  69.6203566  30.8535910  11.6401052
  42.0393133  73.6654615  20.0206900  42.3419189  73.7214184  19.1143060
  41.4340687  72.9239178  20.0257802  24.8377013  14.0146458  59.9510717
  25.4102731  13.2799220  59.7306776  24.9044728  14.6040654  59.1998339
  23.4549260  23.3639598  13.1228197  23.1469536  23.6601257  13.9793646
  23.5237932  24.1647744  12.6030266  67.9824543   6.3739514  25.8748245
  68.9285517   6.2286985  25.8694005  67.7013969   6.1548233  24.9864411
   7.4976885  35.6411648  56.9979191   7.9396862  35.2979374  56.2213469
   7.7617842  36.5603733  57.0371866  67.7530432  68.5260868  14.6777236
  67.1681452  68.8887358  14.0124321  67.6219082  69.0860844  15.4428649
  20.3013706  34.9784184  12.6648581  20.5393243  34.8450589  13.5823679
  20.1816821  34.0945148  12.3175526  31.2039447  78.7944651   6.9546068
  30.4312801  79.0692663   6.4609396  31.9434738  79.0443897   6.4006519
  20.5606127   1.5204372   5.6396925  20.3143406   1.2968114   4.7421551
  20.1010084   0.8786884   6.1811298  63.0385447   9.4067514  17.0356405
  62.1146011   9.1575634  17.0571589  63.3650255   9.1917026  17.9093647
  34.9765730  12.1615183  37.9064536  34.2463541  11.7977035  37.4058032
  35.6656551  12.3021495  37.2571301  74.5883036  15.4024613  62.1059752
  75.5347157  15.3110635  61.9955969  74.2939615  15.8325469  61.3030910
  14.8704839  40.0841379  61.1714983  14.3660879  39.6109939  61.8332767
  14.6155536  39.6802187  60.3419828  66.1430311  56.0346222  18.1620646
  65.7922745  56.0357094  17.2714460  65.3686333  56.0181332  18.7244451
  67.7863693  29.7504401  46.0603189  67.8314352  30.2349424  45.2360296
  66.8730402  29.4712305  46.1244059  56.9065952  16.1567259   4.2849144
  56.5080976  16.6734576   3.5846159  56.6196346  16.5848684   5.0914991
  40.3407955  46.4206219  22.9148912  40.6775618  46.6863394  22.0591974
  40.3283119  47.2281551  23.4286666   2.5487304  49.2638969  13.8684678
   2.0490229  48.9907742  14.6378362   3.2745084  48.6416245  13.8209736
  60.0251770  64.8700666  60.3156471  60.6910563  65.5547190  60.3796148
  60.3673220  64.1526222  60.8489799  30.4735827  32.5033975  29.2337847
  30.7016969  32.9933190  28.4437394  30.3043222  31.6138506  28.9234734
  63.6826849   9.8178351  28.3001447  64.5971632   9.9896038  28.0755162
  63.3277273   9.3692464  27.5326777  81.9029713  27.5002289  61.5512896
  82.8349590  27.3212481  61.4264441  81.7800522  28.3835649  61.2036705
  50.5727339  72.3540545  30.8214450  50.6246471  72.6756239  29.9213743
  51.4069080  72.6092768  31.2154579  61.8514872   0.3946510   6.2999177
  62.7456141   0.2661064   5.9832913  61.7924547  -0.1558245   7.0807660
  29.5355511  64.4284153  63.8690710  28.9649701  64.5602751  64.6262217
  29.6378016  63.4786034  63.8087416   8.3927435  73.2625675  57.5252438
   7.5602239  72.9901600  57.1393204   8.7804627  72.4519444  57.8550911
  35.0687838  15.1796579  57.3539162  35.8965373  15.1642728  57.8343487
  34.8325777  16.1063695  57.3133564  73.3779907  62.0203209  10.0099981
  73.1470156  61.3949776  10.6968939  73.2940817  62.8772545  10.4281640
  70.6574440  19.9465346  57.3341036  69.9321127  19.4031084  57.0261812
  70.6245756  20.7263017  56.7799234  38.5158849   1.1486693  18.1842244
  37.8670168   1.4241692  18.8317597  39.1756487   0.6765158  18.6921763
   6.6138148  65.2548552  17.5382447   6.1278492  65.3786469  16.7229259
   7.0291114  66.1018705  17.7005029   6.6565627  28.5464191  32.6918054
   5.7592446  28.6858582  32.3891377   6.8090361  27.6098847  32.5657749
  13.9376187  11.1703086  57.9636860  14.2336488  11.9643009  57.5185204
  13.1938517  11.4562321  58.4940577  26.9500566  51.8804741  66.3982773
  26.6939402  51.0474396  66.0024309  27.7805448  52.1008158  65.9764147
  14.7973704   6.5803462  22.8311968  14.2092216   7.1547955  22.3409724
  15.6497455   7.0132595  22.7835131  50.2567768  23.8219595  49.1802168
  50.1384211  23.2345700  49.9266768  50.2616024  24.6988821  49.5639038
  30.8635044  35.8317041   0.7644726  30.6869292  36.1325932   1.6558309
  31.7808175  35.5587721   0.7811159  16.7476249  16.1608291  15.2377462
  16.9106209  15.2575707  14.9661088  15.8707118  16.1411512  15.6209815
  26.6802907  22.1472335   4.2416906  27.1263885  21.3479829   3.9616400
  26.1931562  21.8881178   5.0238609  67.0571470  55.4134846  38.1230927
  67.3369455  56.0528088  37.4679542  66.6924143  54.6909046  37.6121283
  29.7962570  14.0958488   6.7959660  30.7340908  14.2868459   6.7812324
  29.5240808  14.1613364   5.8806169  35.1327276  68.2968760  66.3905001
  35.3294444  67.4208260  66.7222643  35.2589178  68.2285118  65.4441214
  71.3187742  62.3723602   1.5144402  70.5283260  62.5897360   2.0085767
  70.9970474  61.9186926   0.7353972  78.9657068   1.2661110  57.1272612
  78.9902020   2.1986416  57.3417807  78.2339334   0.9217088  57.6392460
  73.2011366  18.4560847  21.4879322  72.7841854  19.3008089  21.3181543
  73.8368559  18.3560550  20.7793522   2.7728927  18.5620761   2.5030458
   2.8273469  18.4165549   3.4475508   2.1895084  19.3152261   2.4099877
  39.8268366  33.7283015  57.6042747  39.5717072  32.8868318  57.2260284
  38.9984536  34.1819215  57.7599859  79.3087339  34.0388370  20.1128459
  80.2461243  33.9880443  19.9258876  79.2262602  33.7209368  21.0119414
  78.1728745  43.4425306  10.6478715  77.7557611  43.3403444  11.5033281
  77.8376865  44.2754078  10.3159225  35.3597307  54.2379856  64.1828108
  36.2095165  54.1384411  64.6119833  34.8483253  53.4883547  64.4873571
  22.6778364  42.8489256   8.0237520  23.1024122  43.1172323   7.2089040
  22.1190882  43.5899830   8.2579815  47.9183197  71.1453485  65.2089834
  47.6749516  71.2383604  64.2879200  47.1054173  70.8937216  65.6472731
  50.3420687  69.9684143  66.2184525  50.3082991  70.3849411  67.0796108
  49.5076895  70.1971197  65.8088923  59.1695833  28.7900472   7.0076364
  59.8771667  28.9213991   6.3765246  59.2254496  29.5468402   7.5910509
   6.1006029  45.7192383   0.2245266   5.2040394  45.5820404   0.5304415
   6.0195167  45.8014576  -0.7256811  15.4079914  30.2725410   5.2182603
  15.1254249  29.7620106   5.9770393  15.2645302  29.6911478   4.4715118
  53.8214684  77.0547962  64.5362711  52.9213238  76.7857361  64.7195148
  54.2350149  77.1100664  65.3977585  68.7532330  31.5639234  32.2110677
  69.4433880  32.1615171  31.9233227  69.1921616  30.7184625  32.3047185
  23.0417156  61.7649889   6.9072092  22.9147840  61.8089247   7.8549379
  23.2315969  60.8430386   6.7334753   7.2074467  42.3348951  16.6342556
   6.8700713  43.0560255  16.1028636   7.1564925  42.6564360  17.5343931
  61.1188507  46.3301086  60.0892591  61.0370016  45.5190802  60.5910254
  61.7428017  46.8580389  60.5874586   9.5003873  41.2052345  13.1508648
   9.9386865  41.7758417  13.7821603  10.0530422  41.2426138  12.3702192
  39.3389392  19.7045565   0.7988223  38.8321424  19.2915702   1.4979866
  39.7854471  18.9774275   0.3650655  10.3993666  50.1499128  62.5432539
   9.5761532  50.5849457  62.3212194  11.0598826  50.6071997  62.0228291
   0.8075369  49.4790173   7.2543669   0.1435994  49.2828417   6.5933573
   1.5590903  48.9407349   7.0060724  35.1123714  16.3218856  41.2283707
  35.6949854  16.4859235  40.4868269  35.7017612  16.1417317  41.9607592
  33.0793667  15.4652596   1.3836995  34.0032005  15.2613080   1.2382086
  33.0700636  16.3998616   1.5902537  30.5371690  21.5248942  20.2818274
  31.1232138  21.5988135  21.0350347  30.8102703  20.7186508  19.8440850
  80.4777622  68.9565992  61.5709448  80.5754185  69.4310904  62.3965073
  80.5021381  68.0330086  61.8211889  70.9927988  56.3112354  21.5392351
  70.4334736  55.5979252  21.2317038  70.4600143  57.0985699  21.4275169
   5.1765126   2.5690290   2.7798283   5.1222432   2.0432377   3.5778445
   4.2648530   2.7346095   2.5396380  62.0685530  63.5852051  56.5781164
  62.2314024  62.9161072  57.2429609  61.9443035  63.0919218  55.7672787
  82.9055405  55.1899910  13.5488880  83.5050774  55.8803129  13.2656062
  82.4454308  54.9299860  12.7508128   1.8457763  12.3251987   5.6738538
   0.9564131  12.4493921   6.0052764   1.7355536  12.2078919   4.7302851
  75.7515430  31.7211199   3.7438893  76.6680956  31.4996934   3.9086190
  75.3683758  30.9143376   3.3996275   2.3597403  37.1222568  38.4802604
   1.7637321  36.4401865  38.7897539   1.8579185  37.5958610  37.8168559
   2.2241056  11.9548416  22.5649405   2.8878134  12.6293623  22.7089787
   2.0355624  11.6137838  23.4392190  56.0313177  52.7115297  49.4347811
  56.4507055  53.5100651  49.1143370  56.6913176  52.3023891  49.9944592
   8.8179616  43.0025713  68.4023438   7.9386977  43.3150564  68.6156056
   8.9510230  43.2649438  67.4914719  10.6248093   4.6637237  40.8812284
  10.2661812   3.8505512  41.2367105  10.4048657   5.3281260  41.5342426
  39.9210858  73.5046291  61.5594912  39.0880966  73.4711123  61.0891342
  39.8350501  74.2564106  62.1457148  40.4146814  15.7875538  55.2225447
  41.0925770  15.2410471  55.6200647  40.4732370  16.6203189  55.6908464
  40.0056171  33.6571121  61.9312716  40.1534796  32.7382946  62.1551943
  39.7884107  34.0747881  62.7646971  74.0108871   7.0666337  58.6358690
  74.2010593   7.2089833  57.7086163  74.7245121   7.5073183  59.0971327
  33.7827635  12.5737774  54.1014433  33.3110499  11.7471397  54.2033672
  33.9997244  12.6124573  53.1699562  37.7644753   1.9106606   2.9031259
  38.3441687   2.5364423   3.3373904  37.8911901   2.0753349   1.9687504
  11.4253044  34.2851973   5.1705301  11.5470338  34.4496751   4.2354575
  12.3033464  34.0848470   5.4947734  13.4051883  20.4514956  12.1888757
  14.2369449  20.6974721  12.5937331  12.9958570  19.8616397  12.8219223
  28.6263108   3.1543604   6.5449029  29.1593742   2.6205492   5.9557343
  27.9793763   2.5451496   6.9006705  69.4049311  48.8059664  50.6270409
  69.0385342  49.6064520  50.2512646  70.2113247  48.6569023  50.1333427
  22.4683499  36.5359974   9.9188793  22.5477481  36.9734764  10.7665467
  22.5750279  35.6059265  10.1184320  55.4463005  12.2163475  58.2595634
  54.7621155  11.7192996  58.7079620  54.9794579  12.7158511  57.5896454
  -0.0876893  45.4092836  11.8528008   0.2363297  46.3089275  11.8094492
   0.5178273  44.9099588  11.3048422  36.3772631  16.7131495  53.2088518
  37.1874571  16.2622404  52.9711628  35.9127212  16.0915124  53.7692070
  47.1951056  42.6146698   1.5149085  47.2781992  43.5235548   1.8034507
  46.2516069  42.4542379   1.4974147  29.5914054  36.2887454  13.1081212
  29.4353724  36.0385776  12.1974611  30.5050564  36.0524487  13.2682407
   5.4123950  53.3400726  53.6282063   5.3320390  52.4127913  53.8516521
   6.3277608  53.4455109  53.3689404  62.0994043  62.2444582  23.3503747
  61.7169333  62.2017193  24.2267990  62.7311468  62.9618979  23.3994675
  18.3282208  36.1086154   3.9447117  18.4998858  36.1807394   3.0057964
  19.1392148  36.4023542   4.3597275  21.6729403  31.4542627   0.3654156
  21.9253683  31.4567757   1.2887277  20.8200550  31.8884945   0.3491056
  48.8084364  72.4197435   7.0225078  49.3751383  72.6729155   6.2938213
  49.3968582  71.9965076   7.6476985  18.8236845  13.5678089  66.4326429
  19.5702183  13.3398867  66.9866943  18.6259222  12.7627325  65.9541321
  77.1556997  77.0657921  35.0504303  77.0588923  76.1481619  35.3050232
  77.6788664  77.4548817  35.7512403   8.1392574  16.8564141  14.4790280
   8.9050388  16.8989861  15.0517392   8.2674360  17.5701928  13.8542712
  47.2676992  55.8520651   9.8276877  47.8177166  55.4769135   9.1399533
  46.9115973  55.0933838  10.2901018  15.8236551  21.1843348   1.8286514
  15.8941913  20.2713704   1.5498032  15.0743711  21.5264845   1.3410674
  25.7126230  19.7581060   0.3859598  25.5967325  18.8102110   0.4515631
  24.8445886  20.0902470   0.1569921  21.1599374  55.9463501  51.8295765
  21.4413738  56.7633677  52.2412872  21.8008065  55.2979660  52.1213293
  64.0271282  54.6064758  34.1208363  64.2822790  55.1452255  34.8697567
  63.4055376  53.9741230  34.4813800  48.3161640  38.3936667  14.4988978
  48.0917215  37.4643803  14.4511223  49.0493631  38.4944963  13.8918638
  37.4543738  46.6255188  27.5004363  36.7874384  46.9544411  28.1031299
  36.9906807  46.5073252  26.6714287  67.0939875  62.5141287  16.6656840
  66.9459915  61.9513178  15.9056997  67.8244686  62.1040392  17.1287858
  38.9543247  63.6332464  60.3567362  38.8294387  62.8596735  60.9064817
  38.3175707  64.2670727  60.6869459   2.1137840  44.5692444   1.0859113
   2.4999118  45.3182173   1.5399845   2.8517279  43.9820242   0.9220846
   2.5888246  34.4352841  -0.1081982   2.3409265  35.3222489   0.1527079
   2.7819416  33.9883566   0.7159339  21.0493779  17.5755346   4.5094502
  21.6783714  18.2807064   4.3567070  20.6369829  17.7990007   5.3438514
  25.1161218  21.8448162   6.9314641  25.3422356  22.7421045   7.1763700
  24.1947961  21.8911982   6.6760433  15.8437884  69.1594124  57.7278328
  15.8492720  69.7930336  58.4452772  15.8808172  69.6947575  56.9352007
  81.8747902  35.8369184  18.2136011  80.9516525  35.8228278  18.4662867
  82.2313881  36.6094184  18.6521399  10.8117819  52.3707247  20.9091330
  11.0013902  52.7831078  20.0663877  10.0009334  51.8841934  20.7606649
   1.0795121  14.5032609  28.8698912   1.0968308  13.9123917  29.6227551
   1.5741099  14.0423596  28.1922674  83.3667660  36.9909120  20.4979205
  83.7926960  37.4488425  21.2225676  83.3512402  37.6308560  19.7862613
  17.8415072   6.8440527   0.6893932  17.1634030   7.5088215   0.8097601
  17.4183774   6.0224295   0.9386500  66.0519838  69.7325945  61.5363073
  65.6994200  69.1130638  62.1751451  66.9689131  69.4769955  61.4355993
  77.2977495   0.5588721  23.9224982  76.4882803   0.1380862  24.2122006
  77.0478439   1.0423288  23.1350660  46.7135620  54.4339228  41.2268829
  46.9706154  54.0724325  42.0750999  45.7583046  54.3733311  41.2202644
   2.1412098   5.3827190  49.6637249   1.6630740   4.8173690  49.0570974
   3.0170703   5.4545832  49.2843342   7.7201837  15.0523138  18.3255649
   7.0426208  15.4527152  17.7807534   8.3957237  15.7261932  18.4014845
   4.6750394  11.4339089  17.6181436   4.8845789  11.0364413  16.7729545
   3.9755452  10.8857524  17.9737604  60.0194836  70.3161383  42.8349495
  60.8042955  70.4710388  42.3093033  60.2450895  69.5677090  43.3873844
  32.5559831   4.5143178  35.6339741  32.4048662   3.6061543  35.3719926
  31.7889833   4.9874574  35.3113580   5.3132838  23.8117385   8.2644880
   4.8002964  23.7939572   9.0724236   5.8927858  24.5668840   8.3652914
   0.4798274  13.5536003  62.0987940   1.0326634  13.9373088  61.4180803
   0.6758928  14.0655971  62.8834248   6.7223394  66.5402269   5.1778179
   6.2250638  67.3494530   5.2965665   7.4527752  66.6156721   5.7918233
   9.1159296  11.4640880  66.9033337   9.1235125  10.7759130  66.2380600
   8.7584305  12.2290802  66.4525461  45.1076984  37.2435045  23.3362865
  45.9004593  36.8633866  23.7148023  44.7088623  36.5254378  22.8448200
   5.3846735   1.4828469  53.1251574   6.1615205   0.9957371  52.8504515
   5.3939205   2.2729407  52.5848818  50.6875372   7.5085247   8.7506551
  50.3420687   8.2239950   8.2168174  50.9977293   7.9342175   9.5499045
  27.2816181  25.0420928  21.1537194  27.5443101  25.3513217  22.0206690
  26.7371917  24.2743516  21.3280797  37.7342129  74.8606873  52.9026270
  37.5303102  75.6400919  53.4195232  37.8526640  75.1886988  52.0112228
  40.1357889  31.1976457   5.4689026  40.5112696  30.8810329   6.2904876
  40.8633232  31.1718202   4.8474047  24.8258400  37.7654457  18.4408104
  24.0195966  38.2394743  18.2370913  25.0044656  37.9791808  19.3565845
  49.8766947  21.0776162  11.1973822  48.9900875  21.0654163  11.5579581
  49.7558689  20.9294629  10.2594674  58.3585644  59.1317368  59.2866278
  58.6790705  58.5043049  58.6386824  57.7919960  58.6155653  59.8600340
  21.5373206  47.9734135  65.9806156  21.5955544  48.0574751  66.9323397
  20.8024573  48.5354710  65.7350492  35.7652020  15.6955874   8.8387203
  35.2924871  15.4569495   8.0413347  35.0915670  15.7198691   9.5183218
  51.1309290  23.2682204  66.8989420  51.4320612  24.0041733  66.3660955
  50.3089285  23.5718894  67.2840834  28.9200974  59.3583345  29.6732020
  28.2354379  59.9725246  29.4081712  28.6312890  58.5138464  29.3272758
   8.6501884  47.2485161   1.2160616   8.1858438  47.7911520   1.8533695
   8.0070263  46.5931606   0.9457216  67.2426367  52.3200464  42.6781845
  66.5969229  51.6190147  42.5896215  67.3545647  52.6563168  41.7890167
  64.7028923  21.1657119  42.5771475  65.1709604  20.7899380  41.8315315
  65.3941250  21.4716506  43.1643677  57.2421026  15.9966874   8.8970828
  57.5706387  16.3415086   9.7273809  57.1527147  15.0555646   9.0471786
  81.6387939  56.6582251  61.9641304  81.6397953  56.9508219  61.0527515
  80.7428741  56.8119240  62.2640419   9.9766022  44.1818285  27.1247673
  10.9224319  44.3219328  27.0799589   9.8708564  43.4560442  27.7398181
  25.4380584  39.7233987  21.3267279  25.5626798  39.7376633  22.2756743
  26.2917686  39.9677110  20.9693456   1.5948376  13.9698672  49.3308115
   2.5415105  13.8942313  49.4504833   1.4009976  14.8863292  49.5276737
  75.0972080  37.8854990   8.6038899  74.2346907  37.4967813   8.7494606
  75.3515482  38.2313251   9.4594294   5.3877503  42.7559710   4.9065459
   5.0938529  41.9676447   4.4500327   6.2166089  42.5025463   5.3127521
  41.1494637  22.9689813  46.1689758  41.8536901  23.1835198  46.7807484
  41.4734459  23.2638168  45.3178930  20.1187086  71.8208265  46.4438868
  20.1596546  71.5283680  45.5333805  20.7139897  72.5694418  46.4819908
  70.8385468   8.1190842  67.6902723  71.3048506   8.8840163  68.0274248
  71.4867783   7.6593971  67.1566820  44.8074389   6.7568254  64.3768358
  45.2322817   5.9457529  64.6559477  44.1000175   6.4701748  63.7992430
  25.4020548  55.1423407  19.4489622  26.0088825  55.0518227  20.1836729
  25.9560323  55.3955269  18.7105620  65.4498529  49.7688103  62.4017239
  65.8431196  49.0669775  62.9203796  66.1029768  50.4685020  62.4112701
  75.3843212  44.2502785  64.3862724  75.5064154  44.9484444  65.0296164
  74.4385910  44.1035795  64.3686056  13.2459819  14.1782987   9.8561299
  12.9246759  14.8951542  10.4030406  13.8183510  14.6026695   9.2169625
  77.1801805   2.1040136  59.5986032  76.6432619   2.8834140  59.7417212
  78.0141973   2.4439386  59.2744207  21.3463449  26.8333387   1.8897431
  21.8232441  27.3502779   1.2404560  21.6036820  25.9287453   1.7116448
   7.0138204  65.6333447  65.9686947   7.5917143  66.3933992  65.9009552
   6.1600804  66.0011721  66.1968708   9.2739803  61.7577171  64.9053240
   9.3225741  62.5762558  64.4114971   9.3623352  62.0244265  65.8203602
  13.8611686  12.5300372  66.1239672  13.7112832  12.0944893  65.2848816
  13.6289716  11.8726981  66.7798805  66.1651897  13.0015409  15.6396580
  66.1372232  12.1531057  16.0819340  66.2956190  12.7860689  14.7161913
   3.6013353   9.5911449  54.1284180   3.4849432   8.7321419  53.7224627
   3.3398509  10.2139723  53.4502268  77.5612450  13.7585711  28.4066534
  78.4176826  13.7298107  28.8331676  76.9342613  13.6397672  29.1201043
  26.8390489  20.4064155  62.7408743  27.2002530  19.5432758  62.5389957
  26.8015146  20.8540201  61.8956089  75.0742960  57.4026680  45.0604105
  74.2856646  57.3259687  44.5233822  75.7694483  57.6120329  44.4365835
   0.2790663  74.9716187  66.1439323   0.9175894  75.2246141  65.4772091
  -0.5374315  75.3843117  65.8624363  75.1069784  48.9210224  51.5148449
  75.4860544  49.7417068  51.2001848  75.8580542  48.4111023  51.8183231
  53.9984989  45.4791975  64.0101385  54.7182941  45.5834246  64.6324348
  54.1795778  46.1221981  63.3245802  81.3747597  73.1274939  17.1136940
  81.2759304  72.7464581  17.9862046  82.2140598  72.7914476  16.7992485
  53.4040213  11.1632919  59.6911669  52.7705097  11.8725729  59.5824862
  52.8909206  10.3637958  59.5738411  12.9417789  53.5900116  13.2267272
  13.5060263  53.4056282  12.4758232  12.0572495  53.4001637  12.9140031
  54.8769474   2.9087591  56.6259909  54.7410297   3.5839716  57.2907066
  55.3113890   3.3656895  55.9057760  31.6317677   0.6566193  19.6091104
  31.5234351  -0.2260746  19.9631548  32.1220899   0.5303509  18.7967849
  75.5020523  31.4723921  62.2655630  76.3258553  31.9133329  62.0578337
  75.2233362  31.8632984  63.0936575  27.3321724  63.6895275  48.4010458
  27.9700303  64.3567705  48.6543417  26.9906330  63.9918900  47.5595236
  41.4522743  28.5919714   6.0333866  41.5374947  28.8321042   5.1107240
  42.3467875  28.3992434   6.3143271  25.3097749  59.0003395  59.8940563
  24.8355246  59.4515133  59.1956568  25.4000688  58.1007051  59.5798349
  67.3539925  36.6524458   5.7371300  66.9518471  37.1365547   5.0159186
  67.5736761  35.8003068   5.3605258  45.6145811  68.3951807  41.7762041
  44.9714327  67.7533340  42.0772409  46.3617849  68.2788992  42.3630619
  14.6708071  32.1229267  32.5391483  14.3845963  32.6921654  31.8248081
  14.7345626  32.7037001  33.2973480   2.0422567  55.3694534   5.4321438
   1.1172311  55.3410101   5.1877058   2.4744599  55.7851934   4.6860927
  38.4977698  30.3845000  19.0465736  38.4126258  29.7739744  19.7788584
  37.7803278  30.1527166  18.4568381  35.1517296  39.2253256   8.1271517
  35.7750893  38.4999704   8.1660485  34.2943501  38.8021445   8.0818474
  37.0922041  70.9011173   8.5328966  37.5008035  70.5492544   9.3237662
  37.7629781  70.8103800   7.8560930  50.3636456  60.1633072  62.4287271
  50.5225992  59.8658943  63.3245564  49.5530510  60.6693125  62.4846268
  78.7787485  72.4008179  41.9975042  78.1554127  71.6746044  42.0148230
  78.4151363  73.0431509  42.6069498  46.2376785  74.1741180  33.0235839
  46.7504072  74.6517181  32.3714805  45.3577375  74.5444775  32.9545355
  34.9770355  18.9913201  11.5752685  35.7053709  18.4677637  11.9094074
  35.3452301  19.8671842  11.4589584  39.9438787  13.5259318   2.3028867
  39.3622446  13.9468825   1.6698509  39.3795633  13.3238792   3.0491814
  48.3517790  69.4372845  45.5857086  48.6452770  69.1828442  46.4605522
  48.3838844  68.6269617  45.0771999   4.2804861  17.1475923  11.9301546
   4.3897593  16.2262356  12.1655130   4.7990516  17.6236153  12.5787878
  12.8864658  42.5526094  17.4564576  13.4912002  43.2944870  17.4686766
  13.4070849  41.8140030  17.7721298  80.4336643  32.2552013  11.0642290
  80.9455490  32.6576042  10.3626072  80.8989239  31.4430332  11.2646210
  67.6608086  24.0584707  30.7249498  66.9222736  23.5991549  31.1247396
  67.3400450  24.3228722  29.8627234  71.1835814  33.6260366  29.0711761
  70.4140043  33.6339855  28.5020328  71.7325592  32.9240060  28.7218809
  27.6490688  23.6117625  15.1883674  27.5903440  24.5057178  15.5254579
  28.5805655  23.4842467  15.0086927  66.1375332  33.8872004   6.7670894
  66.7671824  33.2752776   7.1483052  66.4840508  34.0749931   5.8947980
  48.5266209  72.1351433  51.6218090  48.1029129  72.9479980  51.3461781
  48.5801744  71.6102123  50.8231783  70.7220411  13.4386683  28.7195086
  71.3686228  12.7972579  29.0140510  69.9307823  12.9245961  28.5586548
  48.7940073  69.3043566  48.2467604  48.6643696  68.7489939  49.0155268
  49.1153860  70.1332569  48.6015415  69.8697567  52.8194809  50.2466774
  69.7561836  53.4610367  49.5454359  69.9867392  53.3466864  51.0369968
   0.6623509  22.3704195  13.3937919   0.7802684  22.8139806  12.5538015
  -0.2396723  22.0509148  13.3713830  27.1483588  33.9542222  12.5244081
  27.8927779  33.5643697  12.9827607  27.5052261  34.7424650  12.1150744
  42.0929956  77.3693228  54.0483093  41.9062948  77.4632597  54.9824142
  41.2314081  77.2930336  53.6383438  78.5206652  74.0671587  49.4506645
  78.6676073  73.1887484  49.0999031  78.0072975  73.9247274  50.2459002
  20.9214878  18.5056484  41.4973831  20.4498243  19.1014194  42.0794678
  21.3146019  19.0768039  40.8374786  30.2620387   5.6121522  58.5920382
  29.3388700   5.7913983  58.4135389  30.4044771   4.7286016  58.2525063
  36.8821883   3.3261171   6.0361540  36.8116570   4.0812922   6.6200787
  36.5411258   3.6386400   5.1981586  14.3321323  35.0127840  20.9770632
  13.4267879  34.7583389  20.7986236  14.2585647  35.7537723  21.5785241
  56.8074703   2.4801473  53.5500288  55.9850502   2.9081696  53.3120060
  57.4192047   3.2015750  53.6968374  70.0997066  30.5948329  19.5035100
  70.6924152  30.9263968  20.1780415  69.6034193  31.3633704  19.2219400
  10.9066820  51.0536718  43.3695984  11.0204923  50.5803394  44.1937542
  11.7223668  51.5422916  43.2594061  37.3881483  23.7982678  51.0400534
  37.8025293  23.1197286  50.5070353  37.9610348  23.8877439  51.8016481
  46.5371752  66.5508699  45.5484152  47.1346998  67.1029711  45.0440454
  47.1106339  65.9527206  46.0275793  23.1815362  58.4708071  56.9703388
  24.0738988  58.2811451  56.6806030  22.9051971  57.6777697  57.4296379
  53.6701155  24.4994736  50.0392818  52.8102350  24.4655061  50.4584265
  54.0834236  23.6682987  50.2728558  42.5812406  73.9625089  68.1680025
  42.2578424  73.1019656  67.9013383  43.5274798  73.8466065  68.2542072
  73.4924269  22.2782230  32.2912288  72.5572824  22.3809505  32.4678111
  73.8562679  23.1556702  32.4092817  49.2920494  13.3149946  42.7064085
  49.8162079  13.6755705  43.4215784  49.8748779  13.3372962  41.9474316
   8.7710309  65.8453369  54.0876532   8.2044995  65.1464128  54.4144201
   8.2428586  66.2922192  53.4261703  79.7559452  15.9875429  51.8093443
  79.7200871  16.6991222  52.4485636  79.2777109  15.2692151  52.2235012
  14.5368898  64.2390537  20.1235485  14.0325963  64.8898554  20.6117845
  15.2936387  64.7221661  19.7916400  63.3399343  60.8964682  26.4474297
  63.5546923  60.2862883  25.7418871  62.6519680  61.4526653  26.0819435
  68.1516981  61.0428476  65.4183960  68.8698530  60.4476357  65.6333590
  67.7059937  60.6242800  64.6819353  27.7094483  43.8563490   7.8011990
  27.2739530  43.7970209   8.6515260  27.6708508  44.7860479   7.5766850
  41.8008566  71.4550066  60.6617785  42.4433136  72.1411943  60.8423901
  40.9542704  71.8701029  60.8267689  28.9534140  53.6901283   8.3698386
  28.1087875  53.8191128   7.9383290  28.7515187  53.1524944   9.1356176
  72.7159500  51.5235853  53.1148386  72.8021383  50.6611538  52.7086210
  73.0417490  51.4019299  54.0066290  21.9569111  26.5416098  38.2163000
  22.5303221  26.9954729  38.8339090  22.3215532  26.7471790  37.3554802
  38.6792850  50.9750748  11.1625051  38.4811187  50.4492950  11.9374347
  39.6348739  51.0284138  11.1472094  47.1541023  58.4657335  33.7117839
  47.0463943  58.6585140  32.7804065  46.6467428  57.6661015  33.8510966
  70.7698631   8.9770836  30.0347304  70.5277252   8.3904696  29.3181539
  70.8385420   8.4054506  30.7994223   2.8146434  37.7471042  14.4356942
   2.0032553  37.9627156  14.8954690   2.5273076  37.2994280  13.6399186
  10.1158333   0.9528159  40.6145239  10.8089864   1.4257593  40.1539850
  10.4571438   0.8304720  41.5003967  70.0334883  66.6856813  10.9414649
  70.2261686  66.7889786  11.8733633  69.1417503  66.3385439  10.9183049
  53.3621407  30.6155753  14.7185314  53.1207705  30.0490427  13.9857197
  53.3434486  31.5002751  14.3535817  63.6489248   8.1788510  56.9898272
  63.2426119   8.6046386  56.2349463  64.2523766   7.5409061  56.6088963
  74.0820456  71.5880013  54.7664452  74.3014669  71.3463020  53.8666296
  73.5210991  72.3584890  54.6774864  14.6342349  51.7329550  31.3429737
  15.5549812  51.7376852  31.0813761  14.4507062  50.8181858  31.5568495
  30.9841561  37.0086455   3.2475257  31.6103387  37.1958852   3.9468601
  30.2413106  37.5838017   3.4308484  51.1788273  57.1035004  49.4199514
  50.9402800  57.9301739  49.8393965  50.9504986  57.2277069  48.4987164
  30.8548331  13.0569851  68.0219030  30.8075428  13.3671176  68.9262342
  30.2958250  13.6602974  67.5322580  62.2463179  21.5495825  50.0986004
  63.1714916  21.7702055  49.9908209  61.7816973  22.3633051  49.9031258
  34.5041108  61.6653919   7.9332024  35.2477026  62.0759010   8.3745450
  34.5334888  62.0123053   7.0415640  26.8123651  49.3167591  18.0556619
  26.4160728  49.6962500  18.8399911  27.7314901  49.5802975  18.1002486
  21.6595817  60.9123611  66.0676003  20.7391477  61.1156654  65.9011745
  22.0950890  61.0707760  65.2300644  70.0012922  42.2500324  14.9807000
  69.2755747  41.6378069  14.8592675  70.4801083  42.2212267  14.1523671
  33.9955640  66.0483694  59.9397659  33.3036637  65.5443621  59.5114183
  33.6031485  66.9068384  60.0987434  64.7163534  19.3640149  45.8791924
  63.8895369  18.9095175  45.7178116  64.5597935  20.2595830  45.5797243
  71.0831356   2.7919829  65.4230595  71.9880915   2.6628715  65.7069826
  70.6085253   2.0455578  65.7888842  30.8157325  25.3165007   1.4063910
  30.8284760  24.6001697   0.7716178  30.4388785  26.0544705   0.9272085
  57.1285248  11.4019406  48.5724831  56.7322445  10.5396974  48.4470606
  57.2841883  11.7253590  47.6851273  30.0858569  38.1674027  16.0824764
  30.9731650  38.4822440  15.9098816  29.6175218  38.3080268  15.2596045
  33.4980965   8.0497849  39.1890574  33.9100337   8.6144888  39.8430061
  33.4769678   8.5810000  38.3930707  75.2571869  68.1713772  50.0539064
  75.8142233  67.9889250  50.8106470  74.3665028  68.1622267  50.4043818
  48.9843082  13.0855525  59.5161772  48.2542849  13.6950922  59.4077444
  49.3129110  13.2598782  60.3981400  22.6312876  69.8167706  57.2105980
  22.9483891  70.6885624  56.9746685  22.1822524  69.9433184  58.0464125
  44.2954969  76.1090755  48.2146454  44.4899321  75.2356911  47.8746128
  43.4486580  76.3332510  47.8288412  29.0666151  77.3542404  60.7860041
  28.1779981  77.1126366  60.5248165  29.0527844  77.3199987  61.7424917
  54.8901905  79.0713104  37.4059296  54.5303025  78.2068707  37.6045656
  54.6054234  79.6225637  38.1348062  75.2733850   6.2071639  53.0674601
  75.9592438   6.3037121  53.7281513  74.5070124   5.9119731  53.5591602
  76.1479378  26.0345483  46.3169384  75.8442259  25.9589696  47.2215271
  75.3570318  25.9257555  45.7888603  76.6864824  57.8706360  31.5435290
  76.2650728  58.7116003  31.3662457  77.4944353  58.0997181  32.0028377
   8.9562279  26.3755059  55.1969385   9.7116822  25.9082937  55.5536366
   9.1794908  26.5259171  54.2783737  27.9329371  77.3079491  46.4269209
  27.5470304  78.1014109  46.7980385  27.2768331  76.6281033  46.5804386
  26.9398189  30.2613044  16.3427424  26.7161632  31.0528517  16.8322992
  26.6651821  30.4491591  15.4452360  58.6836338  73.7926865   9.9407017
  57.9646540  73.3987284   9.4466376  59.2849350  73.0670357  10.1083255
  55.4094315  46.9549513   4.2782900  55.8982515  46.1415148   4.4032153
  55.7705784  47.5541496   4.9315661  34.3648291  22.4346685  20.2431965
  34.6278811  22.2834182  21.1510301  33.6606503  21.8047333  20.0897503
  73.0127621  46.0003519  42.8814697  73.4964514  45.9988832  43.7074661
  72.2401667  45.4626846  43.0553722  10.6944907  58.5294485  16.9655073
  11.0918784  59.3998814  16.9913220  10.5098605  58.3778429  16.0385990
  22.5989699  25.8499074  58.0244207  22.2791696  25.0611305  57.5864792
  22.7060938  25.5892324  58.9391899  69.6669340  28.5041952  17.3907781
  70.2788496  27.7690649  17.4278510  69.8094702  28.9760828  18.2112885
  70.0573492  17.0286298  62.3364973  69.8649931  16.5403676  63.1370163
  70.0087261  16.3744509  61.6394186  19.7144151  43.9530230   5.3658259
  18.9757860  43.7072849   4.8088056  19.8229373  44.8926449   5.2189773
  60.6482220  58.7706566  54.9379301  60.6977415  59.6835804  54.6544743
  59.9692535  58.3845568  54.3846130  67.6437855  57.7185202  65.0843573
  68.5002041  58.1328630  65.1897097  67.0528936  58.4407568  64.8711538
  34.9863052  68.0063772  63.7721348  34.9331665  68.6050272  63.0271339
  34.2385554  67.4191570  63.6613417  38.1700993  56.4501524   6.1850750
  38.6643386  56.1789322   5.4115129  38.6156702  56.0221624   6.9161850
  18.3781576  39.4945765  12.3966908  18.3948648  38.6466765  12.8405583
  19.2148829  39.5392084  11.9339466  60.3010273  16.3458347  42.7376699
  60.1061869  16.6822600  41.8629789  60.2705717  17.1174169  43.3033228
  63.3825207   4.6341622   3.3793041  62.6477385   4.0755811   3.1257018
  64.0859795   4.0216464   3.5942531   1.8005458  47.8710461   3.3631876
   1.8943967  46.9213724   3.4376520   1.9582585  48.1975079   4.2490676
  23.0270839  58.1779718  65.9690809  23.6611652  58.4733152  65.3156710
  22.4732566  58.9423370  66.1279964  78.2806444  14.4237161  55.0815392
  78.5583401  15.2440262  54.6738577  77.8830767  14.6907187  55.9103251
  41.4999390  62.0267630  35.3829122  40.6987762  61.7550564  35.8307338
  41.7989779  61.2393332  34.9282026  53.5493422  56.6554928  42.1830750
  54.4518757  56.3399887  42.1370125  53.2119274  56.5467405  41.2939405
  48.0027962  77.1764135  50.8540773  48.4685469  77.5623703  50.1122236
  47.1012354  77.4828434  50.7565212  79.1894341   4.9190697  55.9154701
  78.5940409   4.9481156  56.6644001  79.8764658   5.5497295  56.1310768
   7.0058298  55.0941515  35.3772616   7.3262984  54.3634892  35.9060955
   6.1530977  54.8012829  35.0558472  33.6776447  21.5783644  12.6912463
  32.8350997  21.1434388  12.5601459  33.4984207  22.2562861  13.3428085
  37.1385336  23.8553476  24.9929881  36.2588859  24.0495825  25.3165984
  37.6562715  24.6247482  25.2300644  67.1562004  26.8271828  35.3152323
  66.7060471  27.5000668  35.8259416  67.8801918  26.5461326  35.8747649
  39.0543461  10.6843758  52.5687313  38.8388014  11.4872432  53.0432606
  39.8701811  10.3820086  52.9677534  81.4316082  33.1574321  65.3474712
  82.0800018  33.8614082  65.3630495  80.8091450  33.3898282  66.0365009
  53.6749887  41.1815119   4.9739441  52.9935789  41.8336010   5.1373208
  53.7211561  41.1171722   4.0200254  56.2197590  68.7533045  41.6471195
  56.9497585  68.1911993  41.9066715  56.4953136  69.6349382  41.8981647
  58.1630135  76.7438269  55.6168747  58.6318350  77.3110867  55.0047827
  57.4477625  76.3730574  55.0999832  50.0922680  27.1764040   0.8724816
  50.9236431  26.9339967   1.2802620  49.7479153  26.3542509   0.5236001
  33.0757308  26.5385938  65.6805182  32.7982497  25.6236672  65.7268000
  32.3120046  27.0356250  65.9736252  47.2243023  54.2099476  43.9869881
  46.3113594  54.3985558  44.2042255  47.6801538  55.0399446  44.1267395
  73.9103365  57.6281118  49.6030617  73.8700819  58.5720301  49.7567987
  73.8425779  57.5371408  48.6526060  23.0441642  47.0006752   4.1378251
  23.2823062  46.1135960   4.4072849  22.1002674  47.0515013   4.2885229
  76.2806416  37.8579021  22.8755236  76.3827801  38.3090162  23.7135530
  75.4818773  38.2282352  22.4999523  35.0519729   5.1751196  65.1900911
  35.6544065   5.8749545  64.9380255  35.6071067   4.5244378  65.6198263
  54.9515772  58.0532932  46.8302917  55.8537054  57.9149771  46.5417290
  54.8835325  57.5606775  47.6481724  80.0947285  15.5231369  58.2286549
  79.1401052  15.5383039  58.2971382  80.3694534  14.8563433  58.8580561
  82.2492599  56.9262028   7.9903269  82.1393871  57.2228050   8.8937575
  83.1878471  57.0111561   7.8228158  60.5552816  75.1800489  36.0899472
  59.8127270  75.5138302  35.5865240  60.1639986  74.8296309  36.8901610
  73.2004118  39.3358135  19.1711175  73.9221668  38.7070918  19.1749191
  72.4162531  38.8010216  19.2948961  28.4613323  12.6514995  38.2534838
  28.7003493  12.5366187  39.1732144  29.2141962  13.0962729  37.8641176
  26.2957597  42.6459694   3.0526802  26.4360452  42.3119545   3.9386743
  25.3481698  42.7653265   2.9889551  11.4635289  33.7234950   0.5328672
  10.7172477  33.1352258   0.6479122  11.8717849  33.4356189  -0.2836423
  46.9391537  51.9007778   1.1122308  46.1800480  51.4083290   1.4244521
  46.6564846  52.8150606   1.1327360   8.6002415  42.6056051   6.0949945
   9.4536769  42.7683210   5.6932437   8.7966311  42.0780373   6.8691635
  41.2645054  50.6155729  18.4469354  42.0390892  50.0943661  18.2357597
  41.2556219  50.6547451  19.4032919  13.3615482  39.6123004  55.0662851
  13.0371261  39.0931344  55.8021164  12.8605258  40.4268074  55.1084995
  14.2941725  67.8725290   6.3256633  13.6694431  68.5972977   6.3000846
  14.5331156  67.7298450   5.4098141  62.4121332  61.8036652  17.5614333
  62.6628923  60.8977079  17.3809063  63.1361294  62.1536636  18.0806279
  45.6823206  13.9535117   0.5989194  44.7744226  13.7711680   0.3566384
  45.7447147  13.6829817   1.5149717  18.1856489  66.7516327  55.0972939
  17.3012137  67.0984697  55.2143860  18.6043942  67.3629856  54.4913769
  12.3920870  60.7090855  16.4558291  12.9631937  61.3526344  16.0364056
  12.9922056  60.0632811  16.8286896  32.2033310  12.9184937  60.8163404
  32.1961808  13.8748336  60.7764101  31.9895530  12.6399910  59.9258518
  35.1319695   2.9204682  35.0021243  34.5358992   2.4370763  35.5741954
  34.9541116   2.5775892  34.1263199  76.6396141   4.5364633  64.2056847
  77.1562433   3.8565302  63.7732315  75.8328485   4.5867142  63.6930084
  20.0298429  32.5034595  11.4313543  20.0309896  31.5467000  11.4024007
  19.3886185  32.7623415  10.7695055   8.3353907   0.0989170  39.0111423
   7.5513637   0.0353468  39.5565724   9.0174109   0.4083393  39.6072459
  20.0617790  17.8405797  53.8615465  20.9684110  18.0414486  53.6293888
  19.6157753  18.6872458  53.8398790  63.3248091  43.3787966   9.2825472
  64.2754889  43.2758856   9.2395359  63.1494284  43.6045933  10.1960504
  63.2268763   1.5109125  17.0498180  63.6489725   1.0234287  17.7572274
  63.3361673   0.9556079  16.2778568  49.0957069  55.8784008   2.1508265
  49.1579294  56.0596180   1.2129986  48.3138800  55.3330898   2.2380440
  65.7472754  32.9535794  44.6732187  66.7010593  33.0073118  44.7335386
  65.5227709  33.5095549  43.9270782  79.6916866  49.2887688  57.3244858
  80.4865646  49.6039438  56.8942976  79.8344421  49.4694567  58.2535744
  47.8016281  16.3468933  13.6355531  48.7118673  16.2039781  13.8949239
  47.4362040  15.4664433  13.5489321  40.2654696   8.5572642  13.5431552
  40.6941128   8.8490891  12.7385831  40.9862280   8.3765465  14.1465449
  66.3884687  73.9230871  52.4861145  66.0511589  73.0387163  52.6287413
  66.1608028  74.3980598  53.2853603  24.8786855  18.8480651  12.8201079
  24.2925906  19.2316246  12.1677232  25.3797388  19.5904315  13.1578517
  13.2606423  11.4202583  29.7391129  13.9957547  11.8236792  29.2774916
  12.6981187  11.0805833  29.0431094  79.6880674  26.6954994  63.2341480
  80.5500031  26.6604209  62.8193426  79.8532343  26.4684629  64.1492510
  11.4626014  43.5807991  40.6073523  10.9257650  43.6426353  41.3974237
  11.2095046  44.3423414  40.0855970  17.3106778  41.8758583  23.3653474
  17.5026155  42.5526905  24.0144157  17.7059579  41.0812235  23.7238717
  43.1278133  64.5099449   5.7620960  42.3288822  64.2997265   5.2786231
  43.6591673  65.0086021   5.1414186  22.5194931  20.0102735  48.2563019
  22.2717738  19.2885971  47.6783323  23.0951643  20.5578732  47.7224779
   1.3571943  13.7275088  34.4329858   0.6531156  14.3426633  34.6381450
   1.1912560  12.9753613  35.0012922  14.2212439  45.2784348   8.5580009
  14.9010479  44.6957922   8.2194310  14.1008806  45.9318733   7.8689736
  58.3512640  13.8793087  56.4676809  58.4681368  14.8152709  56.3047504
  59.1292191  13.6234796  56.9632292  44.7033072  28.3206415  60.7993698
  44.6660137  28.4622884  61.7452955  45.2758312  29.0159988  60.4754496
  44.1240501  71.3120365  51.2215567  44.7271872  71.0440636  50.5282736
  44.6710396  71.7940474  51.8417978  21.8519807  23.0715227  43.6717415
  21.9135046  23.9753389  43.3626127  21.4070320  23.1371474  44.5166969
  25.4291964  10.4711580  67.9524946  24.5363545  10.4874492  67.6078224
  25.3380346  10.7403851  68.8665152  24.8438859  39.3894887  62.8661442
  25.5970550  39.1998553  63.4256124  24.0962481  39.3924785  63.4638548
  50.7455873  52.6583004   8.8817364  50.6070852  53.2054138   8.1086165
  51.6712332  52.4177885   8.8422477  73.0371618  75.8454275  45.9193325
  72.7361679  75.5946064  45.0459909  72.2911787  75.6640530  46.4910364
   1.8671224  56.0003471  19.8780406   1.5354460  56.8979025  19.8531795
   2.0815098  55.7989120  18.9671659  44.9686527   4.4391012  55.8915234
  45.3942776   4.8539332  55.1412010  45.2155066   4.9843237  56.6385365
  26.8585801  21.7884564  56.8339777  27.7507973  21.5262580  57.0607662
  26.9686818  22.5736427  56.2977028  19.3297958   3.9807355  40.9556627
  18.9455831   4.8498625  40.8406305  20.0423837   3.9474943  40.3174257
  69.1570950  68.3799171  43.8382626  68.6068296  68.0113506  43.1471777
  70.0165272  68.4843779  43.4299803  78.1807423  26.6109443  49.1682482
  78.3431530  26.6669989  48.2265949  79.0444088  26.4580441  49.5515728
  77.6924467  28.5323572  54.6487522  77.0178127  27.8713441  54.8042011
  78.4300900  28.0412483  54.2869091  68.3186054   9.1170037  39.5675373
  67.4099016   8.8180935  39.6013284  68.4476948   9.3888229  38.6588669
   4.0215099   5.4707140  43.9329004   4.7888833   6.0203105  44.0920019
   4.1247404   5.1708853  43.0297470  12.7374923   4.6664494  51.7579603
  12.4450433   4.9635267  50.8963060  13.6280906   5.0076723  51.8394041
  74.1523409  17.1627545  24.1364098  73.6761570  17.7089345  23.5109735
  73.6255407  16.3668621  24.2090178  10.7197344   5.8420771  44.0108252
  11.5327466   5.5200982  43.6215019  10.3376353   6.4042217  43.3368587
  18.7029648  18.8548231  21.9848943  19.1894639  18.3091319  21.3670158
  18.1753576  19.4309115  21.4317346  57.0714569  55.7478762  20.0904298
  57.6614714  56.3239574  20.5764818  57.2471571  55.9460402  19.1705978
  81.8346596  47.7109337  31.6371942  82.1742153  48.5142708  32.0316315
  81.8785000  47.8699684  30.6943178  64.1353083  17.2557020  39.3751836
  64.3889952  16.7064965  38.6333942  63.6105919  16.6797507  39.9312234
   5.1835513  29.8010159  36.9292140   5.2033442  30.0133991  37.8623438
   4.3174812  29.4182658  36.7890096  22.4770761   3.0750132   4.5162743
  23.2249165   3.0268085   3.9207554  22.0836544   2.2032511   4.4777668
  80.5774212   6.3204443  27.0825982  79.8472834   6.0221636  26.5402389
  80.6695271   7.2492909  26.8704820   0.1220120  47.1518755   1.2642141
   0.5708236  47.5381231   2.0162860   0.6774240  47.3701620   0.5158159
  19.2869246  52.7796364  52.1761465  19.4209337  51.8810415  52.4774790
  19.2602479  53.3000422  52.9790783  37.4396777  15.1837659  63.1145239
  38.1717253  14.6502423  62.8051853  37.7435732  15.5485415  63.9456797
  38.1636405  75.0874329  44.1677523  37.2259736  74.9367905  44.0480757
  38.5102892  75.1582098  43.2783365  78.2605314  28.5557604  46.5250063
  78.5800409  29.2466521  47.1053600  77.5392151  28.9615059  46.0440636
  21.5934801  31.0464644  57.6196003  21.5125608  30.5694175  58.4455013
  21.1180425  31.8639493  57.7676153  28.8859534  12.7865553  45.3755903
  28.4687638  12.1557772  45.9623623  29.6053910  13.1526840  45.8899736
  21.7158651  17.7245331  28.7396789  21.2693310  18.3947563  29.2570186
  22.0821333  18.2013810  27.9948997  47.7343035  74.8668766  20.8469987
  48.1891203  74.1147518  20.4679441  48.4140205  75.5338144  20.9440470
  43.0772114  66.4577055  18.8673580  42.4092007  65.8187819  18.6188161
  42.7212477  67.2994280  18.5827100  20.2509642  11.3379586  53.1805849
  20.3711915  11.0663533  54.0905333  19.7965741  10.6027436  52.7692223
  52.7097178  71.0765934  22.4077272  52.1610165  70.5147362  22.9549694
  53.4010267  71.3817596  22.9952550  41.5184689  36.1282921   7.8759235
  40.8473825  36.8085504   7.9317915  42.0701218  36.3958549   7.1408582
  29.6782875   3.3810598  11.4086819  30.3372383   3.5902804  12.0706797
  29.3936157   4.2324936  11.0766363  57.7078962  29.7740507  12.7557850
  57.8892279  30.2010727  13.5930443  56.9669008  29.1959429  12.9372931
  75.0598574  55.1151991  65.2074814  74.9284506  55.3713179  66.1203718
  75.7504940  54.4533110  65.2414560  54.3719435  48.7553883  14.0888512
  55.1741171  49.2772293  14.1095579  54.6208572  47.9179049  14.4798672
  72.3402119  59.5345116  54.5035124  72.1393776  58.7126970  54.9513054
  73.1525755  59.8363972  54.9099159  10.3885031  14.5993125  32.3475218
  10.8822000  15.0020933  31.6331935  10.4051542  13.6624956  32.1517420
  48.9943361  70.7690907  26.7876029  49.3469763  71.5632868  27.1890068
  48.0544233  70.8084154  26.9643736  64.1927242  69.2691040  22.8546047
  63.8889837  69.2746735  23.7623167  65.1452255  69.3373489  22.9203463
  76.9968605  11.5360701  45.8758116  76.0514402  11.6621435  45.7950592
  77.2417974  11.0500062  45.0884247  68.2082987  73.0584383  56.6913271
  68.5595512  72.7972174  57.5425720  68.3226395  74.0084553  56.6663551
  67.4828625   6.7260301  36.7039490  67.1643734   6.2464809  35.9392071
  68.2933664   6.2784612  36.9468498   2.2197062  14.9310565  60.1382017
   2.6405305  14.2343497  59.6344757   1.5164208  15.2459061  59.5703173
   6.9891983  26.5903354  40.8367586   7.9338032  26.4360547  40.8244658
   6.6255128  25.8930969  40.2910280  27.8207088  59.6434879  19.6357858
  27.7964354  58.7030411  19.8124146  28.5747266  59.7592115  19.0576005
  32.7317643  24.8050570  54.1042137  33.6686301  24.6980286  53.9397144
  32.3115706  24.5113683  53.2958698  82.7468872  28.3901834  43.8196325
  82.3269749  29.2503381  43.8261271  83.6846924  28.5813618  43.8340187
  81.6029644   1.2429583  48.1351137  81.5882015   1.4652300  49.0660334
  81.1857796   0.3827628  48.0876112  30.3053594  76.3006258   0.8269317
  29.5421267  76.3636255   1.4011617  30.5209589  77.2087431   0.6146185
  19.8487675  12.4608290  29.1584468  20.5954719  12.9492342  28.8118553
  20.2412748  11.7275345  29.6322083  42.4990845  78.5250235  14.3031502
  43.2933998  78.9577675  14.6162379  41.9804716  79.2289734  13.9136374
  16.7712283  26.8782997  33.8789535  17.6264858  26.8080330  33.4548879
  16.7957401  27.7226901  34.3291020  81.1216068  10.5786276  61.9911098
  81.0687065  11.5343142  62.0009184  81.9522572  10.3891945  61.5547991
  62.2645378  57.6138544  10.6023324  61.8236065  58.1860304  11.2303650
  63.1323099  57.4682713  10.9791732  59.7549725  50.6090307  54.1260910
  60.2247620  50.5900812  54.9598551  60.3352213  50.1565409  53.5138893
  22.8377461  70.2806234  38.8154507  21.9494271  70.1779747  39.1569018
  22.7567387  70.0999403  37.8789544  45.3336906  71.0346317  28.3331203
  45.4744673  71.9713211  28.1951952  45.6751871  70.8679104  29.2116475
  24.9071169  53.5531378  66.3495207  25.1335597  53.9319324  65.5001259
  25.6642127  53.0153084  66.5814209  39.3860888  73.4272003  54.6140671
  39.3938923  72.5343704  54.2690611  38.9501810  73.9424562  53.9352989
  48.7080669  76.3038445  13.6414421  48.6786652  75.9241056  12.7632809
  47.8355551  76.1436319  14.0010047  14.1504729  28.2167888  50.7880688
  14.0448892  27.9318380  49.8803854  13.2568431  28.2765532  51.1258364
   2.5261626  72.9010868  33.2506919   3.3905524  72.6577187  32.9192781
   2.0334508  72.0804882  33.2599616  62.1187687  77.9886723  36.7167687
  61.6810274  77.1405363  36.7894721  62.8177643  77.9541969  37.3697972
  57.4704695  74.8204470  15.7116365  57.5827312  75.3193378  14.9024785
  57.3112774  73.9229202  15.4195070  45.5895472  42.8412294  22.6444316
  45.2002382  43.7047958  22.5068831  45.4498720  42.3809671  21.8168569
  77.4033928  60.5369329  64.6608257  77.7467442  60.9989119  63.8960266
  76.4680386  60.7402420  64.6634817  45.4246330   9.7928071  24.6946573
  45.0315428  10.4090095  24.0765905  45.9786510  10.3362215  25.2550125
  38.3957195  11.0104811  57.5668192  38.8137507  11.6823542  58.1054020
  37.6011086  11.4290571  57.2357321  81.2655640  39.9305677  16.7683184
  81.3095093  40.6119537  16.0974860  80.3663349  39.9724317  17.0936966
  38.9864159   1.6019081  54.3578100  38.1653500   1.3387197  53.9421034
  39.6665335   1.3100527  53.7507725  -0.1665449  60.3921843   9.8847294
  -0.0203155  60.6097651  10.8053303   0.5169138  60.8694983   9.4143206
  36.9749165  23.5367584   1.0542782  36.0997796  23.2115912   0.8430128
  37.5679612  22.9533029   0.5808787  40.1023102  14.4246101  51.1513281
  40.5018997  13.5615075  51.0435677  39.9236798  14.7190404  50.2582216
   5.3940070  48.3538198  62.8218174   5.6953526  48.2482624  61.9194460
   5.8855724  49.1058397  63.1520700  23.6090803  74.6960354  39.9824810
  22.9672790  73.9880085  39.9275088  23.3693576  75.1755667  40.7754612
  31.0237360   0.0752720  63.9761305  31.0618424   0.7538129  64.6501923
  30.6193829  -0.6741520  64.4132710  15.8188581  78.5438633  47.2777843
  15.7606626  78.0376720  46.4674664  15.4860044  77.9532766  47.9535437
  39.1568518  25.8141756  25.4726386  39.0270114  26.6434550  25.0125647
  40.0979853  25.6508136  25.4108882   6.0563439  15.9006655  15.8801627
   5.4397583  16.6283548  15.9609306   6.7382884  16.2285089  15.2939010
   0.6237271  77.8604412  53.8588285   0.5543092  78.4277344  54.6266747
   1.2394267  78.3124876  53.2819366  14.1670501  16.4864874  16.5996635
  13.9925957  17.4105990  16.7780364  13.3190942  16.1292350  16.3358939
  41.9337749  54.0675879   6.3147277  42.6742840  54.4405794   6.7930102
  41.4486456  53.5710239   6.9737470  28.5334373  15.9972751  36.9881105
  27.8159714  16.5779150  36.7344689  28.2239294  15.5685329  37.7859950
  33.7949204  27.3934126  47.2899580  34.3865442  26.7705107  46.8678141
  34.1043162  28.2516551  47.0002604  10.2379799  24.0004539  53.0824280
  11.1500919  24.2900968  53.0626583   9.7328305  24.7851682  52.8696394
  76.8180847  18.6451781  36.7011094  77.2391510  19.4018924  36.2932897
  75.8805895  18.8225412  36.6244197  54.5653963  59.0933704   8.5787612
  54.8928165  58.2591724   8.9151251  55.2547693  59.7234106   8.7886500
  17.0037472  34.2571473  59.4243717  17.4896157  34.6907854  58.7228537
  17.6771748  33.9759135  60.0437498  67.7419806  30.0586939  21.8338132
  68.1680298  30.0389743  20.9768844  68.4651899  30.0607467  22.4608660
  59.8895550  68.5700655   4.5601639  60.4667044  69.2703390   4.2556199
  60.3401518  68.2018232   5.3201598  79.7926841  71.9483106  -0.1523512
  79.2830787  72.2467343   0.6009609  79.4603525  71.0690586  -0.3331917
  54.0099478  36.4962459  58.1639719  53.0882835  36.6167045  57.9353714
  54.1701365  35.5622673  58.0288601  20.8877730  24.7877288  51.7581129
  20.3857422  24.0085387  51.5192413  21.1746621  24.6218228  52.6561117
  37.9053259  29.5396376  41.5448952  38.7847710  29.4996142  41.1691189
  37.9237127  30.3073978  42.1162415  27.3899817  72.1119213  41.1553431
  26.9540954  72.7811289  40.6277084  28.2388091  72.4957180  41.3753986
  36.9171715  11.5119064  42.7054071  36.0436940  11.1228764  42.7492857
  36.8207812  12.3653126  43.1280613  19.4343603  25.3352928  47.9770422
  20.0431156  26.0089827  47.6740694  18.6910665  25.3968191  47.3770761
  75.6452847  59.2766476  61.0824823  74.8765469  59.7783422  60.8112288
  76.3065004  59.4742060  60.4191589   7.1178222  22.8955460   6.2075359
   7.3349261  21.9816494   6.3916218   6.7616069  23.2277632   7.0315355
  46.2551594  23.4598780   1.5857227  46.9958687  22.9561234   1.2483650
  45.6933355  22.8081107   2.0049918  70.9104633  59.1994429  32.4935985
  71.5517426  58.4956980  32.5923085  71.3233185  59.9590492  32.9044294
  72.2376537  13.5142100  24.0709114  72.3729467  12.8560531  24.7526431
  72.9933023  13.4175634  23.4913540  27.7445221  28.1580043  55.3745079
  27.6206088  28.9117813  55.9513092  26.9695830  27.6152515  55.5198431
  53.5784101   6.8237215  42.2132683  53.9603615   6.9259292  43.0849886
  53.7739515   7.6481426  41.7679310  42.6645565  17.5790012  54.3726873
  42.1932554  17.0047688  53.7690592  42.3248386  18.4540498  54.1853046
   0.9216475  19.2809772  56.9098234  -0.0280644  19.2224288  56.8056583
   1.2375962  19.5853579  56.0590839  44.7710848  65.7048178   4.2246014
  44.9354219  65.6337452   3.2842961  45.6349468  65.8566427   4.6079156
  29.8785377  55.8152485  35.0266433  29.9521255  55.8778620  34.0743327
  30.7804275  55.8776569  35.3411794  69.2061520   6.1319077  42.5997591
  68.6240482   6.6482788  43.1572104  68.8517761   5.2436888  42.6412153
  56.5115166  47.0704937  15.1616454  55.8738375  46.7002487  15.7719839
  57.1067667  46.3461876  14.9685502  70.6357336   1.8579638  18.5655797
  71.0606003   2.0485836  17.7292871  71.3115835   1.4205249  19.0833676
  31.4369678  77.6084375   3.3841711  32.2086096  78.0041122   2.9789099
  30.6994820  77.9479361   2.8771350  48.5044289  68.1863356   5.0590175
  48.1797171  68.2861423   5.9539104  48.7031889  67.2534227   4.9789956
  23.4392190   3.7961701  47.1283293  23.9755464   3.1292006  46.6996813
  23.9975739   4.1410941  47.8251028  42.4697256  15.2749872  40.6755733
  43.0152607  16.0262668  40.4427576  42.4279404  15.2964401  41.6316223
   9.5962584  12.6835239  50.1921463   9.3203974  11.9858336  49.5977020
   9.8924309  13.3870745  49.6146250  53.7120104  74.2217398  13.8475704
  53.7042952  74.5515203  14.7461343  52.8841352  74.5242596  13.4742928
  66.7145443  58.6027050   3.5341576  66.8582821  58.9779758   2.6653990
  67.5847626  58.5799360   3.9321950  45.4504633  23.9930511  46.7471409
  46.2858200  23.7113452  46.3742352  45.5050230  23.7464833  47.6704264
  30.2132440  11.6254306  64.6949577  29.4127607  11.4187419  65.1773882
  30.8960629  11.1202371  65.1362848  19.1921854  48.8917780  35.4644823
  19.3541884  47.9508495  35.3963351  19.7280586  49.1740131  36.2057066
  51.3887024  20.6809807  54.0971708  51.2787008  19.9918115  54.7522879
  50.7840061  21.3705683  54.3711138  21.5371203  18.2271159  46.3398361
  22.1174812  17.8488863  45.6792641  20.6571150  18.1053555  45.9834719
  75.7046461  44.0974474   7.2773165  74.9309492  43.8609076   6.7657727
  75.4754639  44.9320269   7.6862031  65.2939463  20.1754880  59.0110779
  66.1837626  19.8466849  59.1389418  65.1617956  20.1466155  58.0634832
  52.9051590   9.8359656  65.7432842  52.9876947  10.1429641  66.6461515
  53.0125904   8.8866478  65.8023310   1.9912514  68.2626486  42.1130705
   1.9952746  69.1273546  42.5235558   2.2140881  67.6597643  42.8223705
  19.8040462  34.8404336  27.2135520  19.2678070  34.1777325  26.7782259
  20.7058406  34.5783997  27.0282483  33.9957690  13.8042116  44.2045116
  33.3465004  14.4517767  44.4789934  33.4773040  13.0671227  43.8818264
  53.5425568  55.5217075   9.5450139  52.9092312  56.1732340   9.2439437
  54.2532015  56.0369968   9.9267125  74.3476629  35.7024789  34.6647978
  74.6726656  34.8067307  34.5740485  74.6149683  36.1374402  33.8551140
  18.6722744  52.5598383  15.8337033  18.5956359  51.6058826  15.8156466
  19.1249847  52.7482319  16.6557682  21.6263962  33.6360455  46.5825653
  22.4847984  33.6271048  47.0059967  21.6190195  34.4464278  46.0731936
  58.3781385  33.9455128   9.6249795  59.1462946  34.4682312   9.8550510
  58.0280352  33.6512947  10.4658699  66.2669182  42.2986031   2.6366350
  66.3675451  42.1411848   3.5754243  66.8699408  43.0177402   2.4483772
  10.2897632   8.3566833  39.9455428  10.9459054   9.0532297  39.9686027
   9.8234475   8.4941071  39.1209841   6.0052615  26.6745591  22.6714945
   6.2945187  26.0165262  22.0393920   5.7745498  26.1714005  23.4524155
   7.8282422  28.1616402  61.0412502   8.3164346  28.9213085  60.7237530
   7.0067024  28.5256553  61.3710928   8.1903505  12.3599565   6.2383205
   8.6205101  11.7024779   6.7850518   8.0280447  13.0945766   6.8301171
  30.0797629   6.2200111  64.7558069  30.4005647   6.7048055  63.9953518
  30.8627486   5.8163190  65.1302338   3.0255988  52.2042465  55.3668165
   3.9605841  52.3470402  55.5139399   2.7057213  51.8419266  56.1930323
  50.5063248  17.9333055  44.3414450  50.8937311  17.2991943  43.7380791
  49.6026850  18.0290329  44.0406084  24.1324735  22.5542450  35.6470728
  24.0932393  22.3984337  34.7034550  23.6230159  23.3537626  35.7791972
  28.4860325  23.7523985  62.1256447  29.3496394  24.1044569  61.9100761
  27.9283190  24.5249939  62.2166300   1.7897806  39.7766232  40.4699278
   1.0616660  39.1982102  40.2429485   2.4565448  39.5933867  39.8080516
  20.0815797  31.5053391  65.6039858  19.1451335  31.6704583  65.4942751
  20.2573943  31.7223191  66.5195417  17.8305423  56.9065571  56.1057425
  18.6911726  56.8816233  56.5239811  17.2343743  56.5475225  56.7629385
  70.8729267  73.0075264  31.0371184  70.4873800  73.1726503  31.8975377
  71.7796946  72.7642059  31.2236786  30.9059000  21.2903905  53.7316847
  31.3282514  20.7720327  53.0467319  31.4223361  21.1142540  54.5181322
  19.4851279   5.7836848  52.9471016  18.8915086   5.8032733  53.6977434
  19.4697118   4.8728323  52.6532602  21.7191005  16.3728511  63.4549093
  22.4596691  15.8743763  63.8003254  20.9565353  15.8216393  63.6306572
  14.9469948  26.7666650  53.7713480  15.4102516  27.4311900  54.2812777
  15.6355405  26.3188243  53.2798433  21.5410018  16.0841358  18.0873156
  21.2855697  15.3342068  17.5501072  22.4809933  15.9695828  18.2270479
  25.9864926  36.7740798  43.6939859  25.8401251  35.8385110  43.8336897
  25.3920126  37.0055771  42.9803801   9.7181845  32.0598340  14.5268226
   9.2125273  31.2471819  14.5150685   9.0767151  32.7380276  14.7384846
  52.4117899   7.2247922  57.1854019  51.7490005   7.6676679  56.6554880
  52.6138163   7.8463048  57.8847837   7.8301907  23.5617352  57.4492598
   8.6318898  23.4516740  57.9605293   7.2138745  22.9379177  57.8329754
  54.7870111  56.9633293  24.8501945  54.6572828  56.4039850  25.6160522
  54.3728685  56.4854145  24.1316462  10.2255011  29.1755033  42.6223230
   9.6900398  28.4505939  42.2997999   9.6117747  29.7315407  43.1023169
   4.8454398  42.1755075  35.3521895   4.4539270  41.3722801  35.0090003
   5.1602864  42.6390409  34.5761514  31.3856673  62.7781487  24.2941070
  30.4362345  62.6767159  24.2268538  31.5476179  62.9024220  25.2292848
  73.9999914  28.2452106  52.4535561  74.4516230  27.4318767  52.2282887
  74.6990156  28.8950348  52.5265360  38.1594777  45.2309847   1.5539183
  37.6846194  44.8124266   0.8359002  38.9442182  44.6946478   1.6668770
  19.8624599  42.6301861  53.2824564  20.7608724  42.3060036  53.3456516
  19.6324599  42.5201225  52.3598433  16.3145542  19.0496278  36.4346385
  17.0734525  18.5246527  36.1802626  15.5935872  18.6967957  35.9131527
  71.0106993  39.8385930  34.3943405  70.3058386  39.1910172  34.4013953
  71.5619707  39.5845246  33.6542201  13.1674778   0.4169272   0.5388410
  12.9668641   1.1797230   1.0811771  12.3629284   0.2550656   0.0461620
  79.2120838  57.0747471  62.9398727  79.3725443  56.5372181  63.7154675
  78.3043575  57.3640108  63.0325556  15.5508673   4.0775764  33.7249064
  14.7315502   3.8435656  33.2887983  15.3690982   3.9568043  34.6568966
  81.4666176  20.7128310  53.9174891  81.2310982  21.3860846  54.5558405
  82.3391056  20.9645534  53.6147642  43.8789797  61.1385632  16.3504565
  43.3043718  61.4836311  17.0338190  44.3455648  60.4167461  16.7717838
  59.8639917  27.8014064  66.3632870  59.1714573  27.2226000  66.6820478
  60.5274200  27.2089410  66.0096216  32.1006536  15.7848418  44.1553688
  32.1270704  15.5576253  43.2259035  31.5570331  16.5717351  44.1942120
  20.8075976  33.8680983  43.3226490  20.1529312  34.4562936  43.6990452
  21.1817217  34.3617296  42.5928640  19.3296611  11.3588285  58.8292646
  19.0966749  12.2128534  59.1933966  18.5886180  11.1268592  58.2695532
  43.2527447  32.3789096  19.3968594  43.2099628  32.6117754  18.4694028
  42.3904657  32.0118093  19.5916557  10.3203034  41.7522669  50.8904982
  10.5966449  41.3916874  51.7330217  11.1099482  41.7301798  50.3499365
  38.4842730  27.1770358  42.5721407  38.1253457  27.8848338  42.0369577
  38.0354023  27.2615528  43.4133339  15.9824538  12.7763557  41.9216824
  15.9789550  13.0844653  41.0154343  15.0569487  12.6736033  42.1432972
  81.2778854  75.8222055   5.3422552  81.6375256  75.8084869   6.2292182
  81.4973450  76.6919804   5.0082439  33.6018157  33.4569216  38.9551806
  33.8115573  33.1352687  38.0783796  33.8329196  32.7331829  39.5374393
  36.5132618  34.3648076  67.2049904  37.3568439  34.1775084  67.6167202
  36.6267872  35.2286100  66.8085194  70.1428032  48.4186697  53.4798241
  71.0848045  48.4700346  53.3178854  69.7430849  48.6136675  52.6322174
  72.6571941  38.8557267  59.3059635  73.3629084  39.5023513  59.3146610
  71.8624067  39.3665242  59.4596958   6.6076726  62.1216011   6.0010958
   6.7562282  62.7669430   5.3099406   5.6566113  62.0985270   6.1068380
  17.3845613  31.0337782  31.7657089  16.4615810  31.2832236  31.8117046
  17.8603411  31.8606138  31.8445134  77.9177380  30.1173568  33.9147472
  78.3229446  29.9222708  33.0697751  78.5827255  30.6155562  34.3899465
  25.6471205  34.9579930  27.8059649  24.9829340  35.0867796  28.4830952
  25.2949739  34.2590165  27.2549152  28.6308074  43.5565233  67.5516272
  29.1010284  42.7229166  67.5665998  29.0895915  44.0785170  66.8933916
  12.9647720  11.6485047  44.8670340  12.1344066  11.8783414  45.2840471
  13.5882652  12.2917569  45.2042484  26.3435531  41.6229153  59.3853998
  26.6313958  42.4981833  59.6447802  25.4852867  41.5213013  59.7968483
  37.6776123  29.2315149  45.1742887  36.8346381  29.2495728  45.6273937
  37.5339317  29.7467136  44.3804646  73.7622833  24.1787601  50.9345436
  73.4026861  23.4282708  50.4615879  73.1028795  24.3821454  51.5979099
  32.1897650  37.2699142  54.9915695  32.7014589  38.0777764  55.0335073
  31.5078163  37.3837018  55.6535578  68.1723547  78.0384874  62.9045343
  68.5775566  78.6445904  63.5247612  68.8830185  77.7900648  62.3133707
   3.5288918  38.3279371  58.0876875   4.3994558  38.7012148  58.2255745
   3.3259997  38.5247636  57.1731758   9.2613041   4.5371312   7.0547658
   8.3247983   4.3520188   6.9846106   9.6421802   4.1468683   6.2680894
  14.0549827  26.9687343  48.4982920  14.7566736  26.3188601  48.5373354
  14.1582656  27.3815155  47.6408672  21.7265701   7.9865134  43.0970192
  22.5393939   7.6393157  42.7295923  21.2542653   7.2136080  43.4065008
  25.1762390  33.0697703  34.5037460  26.0806608  32.8335977  34.2976475
  24.6510887  32.3730612  34.1099882  83.6080456  53.5073471  15.7615364
  83.2881260  53.9612389  14.9818766  82.8468895  53.4593391  16.3399601
  37.0644617  37.5064397  63.4174204  37.5410914  36.6769052  63.3869696
  36.9009852  37.7225828  62.4993849  21.9679642  66.8004560  50.8614779
  22.1531653  66.7817068  51.8004036  22.7100468  66.3467360  50.4618692
  50.4026699  31.5371966  63.8671970  49.9709988  31.4786077  63.0148697
  49.7539902  31.9514942  64.4362307  56.6184473   7.7100271  45.6914282
  56.5410948   8.3320671  44.9680233  57.3130608   7.1105915  45.4186344
  36.6980219  32.0205784  28.9927125  37.5205302  31.8359232  29.4461584
  36.0288811  31.9545245  29.6739769   4.9211821  17.5655818  43.8840532
   4.4174895  17.7125406  43.0834770   5.1409036  16.6342211  43.8612175
  35.3717351  24.6161127  30.9759283  34.9924493  25.4026937  31.3679266
  35.2058983  24.7120571  30.0380969  31.0060358  53.6498833  25.3519416
  31.7562127  54.0405416  25.8001018  30.6833458  52.9849339  25.9601760
   5.5909061  66.0844326  53.6984158   5.9521544  66.3751364  52.8610277
   5.0441086  66.8141174  53.9896297  44.6169186  79.1342211  10.5748415
  43.6961746  79.0685034  10.8281124  45.0388575  78.3943224  11.0115862
  66.3845158  54.7768450   6.0245252  67.2933292  54.8782206   5.7416689
  65.8685589  54.9349213   5.2339363  58.0059052  49.4021702   2.5006455
  58.3560467  48.8283920   3.1821215  57.1195459  49.6110821   2.7955329
   3.9329889  41.4616394  60.9191942   3.9706174  41.6449356  59.9804592
   3.1055608  40.9956169  61.0392570  45.6399488  20.2448320  20.3640985
  44.7811317  19.8263454  20.4235363  46.1878443  19.6039283  19.9110150
  31.6367102  76.4896917  10.9426570  31.9832301  76.6234589  10.0604653
  32.1448779  75.7571554  11.2910664  82.4512386  47.6384306  44.1418505
  81.7969513  48.2779455  44.4232082  82.0510006  46.7889071  44.3271875
  17.8405905  15.6176686  52.3604536  18.0899405  14.8441386  52.8661299
  18.3466506  16.3312078  52.7490377  72.3069429  18.0743349  61.2864780
  71.4818859  17.7218175  61.6200209  72.5194359  18.7919652  61.8832111
  72.8700542  71.3642550  64.1727018  73.7952375  71.4823055  64.3879557
  72.8481627  70.5717230  63.6363792  61.0042953   1.2290371  39.9293065
  60.7674980   0.4998093  39.3562579  61.6492939   0.8599019  40.5325890
   4.8456526  68.5291052  64.4349623   5.1577622  68.7114716  65.3212786
   5.2217519  69.2281246  63.9000273  18.4897244  22.0041490  38.9092994
  17.9382205  22.7127695  39.2408586  19.3516898  22.1735811  39.2894816
  64.9675798  37.8938150  43.5027790  64.1893530  37.3660660  43.3236885
  65.3654957  38.0330753  42.6434135  14.2688870   4.9458230  13.4473562
  14.8466980   4.4615716  14.0371585  13.9501691   5.6794095  13.9731896
  59.5257187  17.7500355  46.9180250  59.3632460  16.8075109  46.8795252
  60.2523708  17.8927898  46.3115311  31.6195965  23.9717913  51.6446781
  30.6924510  24.0564752  51.4222765  31.8814898  23.1332898  51.2644672
   9.0357691  26.8206477   1.5474860   9.4203550  26.0314941   1.9290110
   8.5794544  26.5106058   0.7652569  64.0762520  57.8760576  54.1232252
  64.7882700  57.9489565  53.4876537  63.6722422  57.0291376  53.9341927
  25.9789205  42.6078320  23.8954568  25.6225181  42.7019072  23.0120778
  26.8385839  43.0266237  23.8527489  80.3914165  26.2459707  50.3774786
  81.2160969  26.0520291  49.9319124  80.6534290  26.5310788  51.2528610
  48.3065748   4.1057932  56.1468267  47.7794695   4.7832343  56.5704584
  48.6393452   3.5741287  56.8698978  17.0951903  41.4013433  45.1880884
  17.8541887  41.7657232  44.7326994  16.8838203  40.6045151  44.7016525
  61.1803484   8.8010615  29.2143369  61.2869930   7.8523517  29.1449881
  61.5238667   9.1417062  28.3883905  27.7348948  29.6446037  29.6959424
  26.8777084  29.3808937  29.3613982  27.5841451  30.5036545  30.0903296
  28.4625530  74.3572569  61.4075661  29.1190720  74.7415638  61.9885302
  27.6501131  74.8116827  61.6304398   4.4714731  70.7681274  54.5000029
   4.2960361  71.3929510  53.7964058   3.8728067  71.0234785  55.2018785
  66.9205189   6.3320297  10.7324100  67.2701168   5.4690677  10.9544730
  66.0284567   6.1589086  10.4316127  37.3196244  23.6927032  66.0960865
  36.5519428  23.3588243  66.5602207  36.9711018  24.3618989  65.5070686
  55.0402403  70.4881811  63.5595226  54.2562866  71.0094357  63.7325764
  55.5385542  70.5267859  64.3758678  39.3097709   0.1668659  40.8942604
  38.4577594   0.5402103  41.1199236  39.9393902   0.8495966  41.1259747
  37.1630049  10.1064944  10.2772498  38.0972838   9.9405986  10.4030800
  37.0461750  10.1099074   9.3272126  13.4856343  22.3015594  52.1984816
  14.1924453  22.7158141  52.6935053  13.2088494  21.5665507  52.7456427
   8.6360168   4.2103395  60.0264454   8.1097287   3.4279385  60.1910686
   8.8256937   4.1784772  59.0887690  69.7353458  78.5486555  51.7851353
  69.7887516  79.5018625  51.8542719  70.4065943  78.3170891  51.1432362
  41.9104242  43.8449669  67.0864391  41.6622877  43.8721085  66.1623573
  41.1032104  43.6106682  67.5444078  14.8575497  22.1674919  18.0596995
  15.4412270  21.5004826  18.4211576  14.3620765  22.4864173  18.8140368
   0.1877753   0.6206194  54.3162251   0.3505905   0.3334806  53.4177399
   0.6214383   1.4717096  54.3779802  78.4796810   3.6489338   6.9908744
  78.1912422   2.9922664   6.3569802  78.8757753   4.3384415   6.4580321
  60.0275660  13.8215268  50.5659389  59.6662378  14.0942609  49.7225618
  60.0204277  14.6171212  51.0981131  75.2101183  15.0563931  49.8407936
  74.4335604  15.6137490  49.7903681  75.8345699  15.4605949  49.2383766
  62.4846268  10.9878099  13.8182354  61.6975737  10.5910528  14.1915429
  62.6623678  11.7419291  14.3803251  58.6688709  62.6146555   0.7391939
  57.7992821  62.7390671   0.3589675  58.5562897  61.8998098   1.3657311
  38.4858179  26.0781288  12.7720213  38.0323601  25.2829456  12.4922121
  38.5040355  26.6309428  11.9908071   8.4803975   2.2625926  43.2338810
   8.0244571   2.6137611  43.9987516   8.0757678   2.7070159  42.4888992
  38.8039207  18.0041122  37.0495701  37.8508878  17.9302847  36.9994497
  38.9676309  18.9440882  37.1262312  70.8352137  72.9149723  17.3865819
  71.6940928  72.5706720  17.1416020  70.9245872  73.8642025  17.3016775
  27.6029825  71.5312195  50.7918453  26.7321181  71.6663837  50.4182673
  27.7453446  72.2955418  51.3502121  41.1172056  71.4846230  21.5343595
  41.7990732  70.8856487  21.8385243  40.6684637  71.0034800  20.8391190
  21.9921613  35.8745766  54.4259834  21.8328190  35.4417300  53.5872412
  21.9933987  36.8086910  54.2170238   3.8853899  73.6452866   5.2674752
   3.9905813  72.8112984   4.8096165   3.8671419  74.3007278   4.5701259
  45.5182171  22.0113873  55.6719589  45.0542498  21.5525436  56.3722658
  46.0924101  21.3475490  55.2900457  28.2689404  27.6536989  26.2009573
  28.5440683  27.3397207  25.3395891  28.4305525  28.5967994  26.1749625
  13.0599201  38.7764859  62.7829552  12.6630747  38.0087423  62.3714781
  12.7212691  38.7703252  63.6782265  66.4445639  61.8617821   2.6879287
  65.8664751  61.1396408   2.9340085  65.8513260  62.5852442   2.4856895
  70.5539608  62.1859694  39.0892625  70.7692671  62.8482580  39.7459555
  70.9272099  62.5251484  38.2757044  36.9982433  53.1594467  24.6630096
  36.9859076  53.3563519  25.5996585  37.0104194  54.0170860  24.2381072
  21.9965458   6.4568084  66.2268066  22.8367901   6.5094018  65.7713318
  21.9760871   5.5714989  66.5901804  62.5248909   4.4403800  36.2985396
  63.4094286   4.2565298  35.9822726  62.0022869   4.5415616  35.5030012
  30.3902721  22.4615407  35.8118987  29.6890974  22.7223802  35.2147818
  30.0177383  22.5810266  36.6854954   3.0444187  33.8590074   4.5337415
   3.4961176  33.1095886   4.9217740   2.4466512  33.4731007   3.8934433
  22.9372954  55.7111549  27.7365708  22.9146051  56.0788155  28.6200547
  22.2758651  56.2068224  27.2538161   7.0480031   2.7234611  13.8361168
   7.4038440   2.0361882  13.2728541   7.8039813   3.0468062  14.3261945
  58.1452656  29.7621679  59.4555521  58.6807108  30.3478360  58.9202738
  58.7717199  29.1481853  59.8387146  79.1758251  36.3823104  18.5776675
  79.0345907  37.3182416  18.4351277  78.6373377  36.1722970  19.3406582
  50.5442524  29.5991087  55.1999712  50.2092934  28.7918091  55.5902386
  50.7336473  30.1659608  55.9476614  22.9526114  67.9022884  65.8212805
  23.7385368  68.4095955  65.6183147  22.7530432  68.1234837  66.7309380
  49.8869181  27.2024179  56.1726809  50.6037855  26.5698791  56.1255026
  49.4173956  26.9729400  56.9746256  19.4833469  41.3226032  66.6843891
  20.1386166  41.2339020  65.9922981  19.3878007  40.4384613  67.0385027
   1.2550648   0.3880373  24.0144372   0.7960136  -0.3748497  24.3658757
   0.5576761   0.9631601  23.6996102  18.2909596  17.9489064  59.3807364
  18.8933587  17.4911654  59.9670982  18.4005737  18.8742948  59.5995331
  11.1765182   0.7473589  21.4296508  10.8496249   1.1927985  22.2112870
  11.7645943   0.0717831  21.7672825  39.8917365   7.3284084  53.8410378
  39.7164893   8.2305980  54.1085720  40.3440809   7.4111074  53.0015278
  33.1365609  20.2282119  43.1598091  32.8509545  19.8136806  43.9739513
  33.8608074  19.6820462  42.8541946  42.7057934   6.3357311  61.6818953
  42.0271301   5.7343167  61.3753796  42.2291613   7.0034248  62.1750879
  63.9512682  13.3523655  58.1229019  63.2536554  13.9476061  58.3972216
  63.7189007  13.1076872  57.2271538  12.2075725  56.9335604  11.9859552
  12.9720545  56.3878393  11.8015981  12.4821281  57.8189230  11.7472458
  24.0475392  37.3079705  41.1410332  24.4516206  37.3068309  40.2733040
  23.5459375  38.1226826  41.1705828  51.9328213  69.8521376   0.8456714
  51.7213058  70.0359488  -0.0695922  51.9924259  70.7150269   1.2556741
  66.1567211   8.5820943  18.6075556  65.6013250   8.3347285  19.3468642
  66.4451694   9.4716555  18.8117850  64.0474558  60.9656429  10.9261942
  64.0493488  60.5708122  10.0542212  64.7480583  61.6171455  10.8956373
  82.7616405  56.5137053  36.0576177  83.0493259  57.3768234  35.7601380
  82.3393250  56.6793489  36.9004917  25.3336430  23.7769961  53.0434036
  25.2695084  23.4519577  52.1453714  25.4912996  24.7162390  52.9474831
  26.4680767  21.2674069  53.5800982  26.2230635  21.5453911  52.6975298
  27.0235538  21.9744587  53.9083576  71.9497538  12.1694660  20.4162741
  72.8510046  11.8483949  20.3864861  71.9801760  13.0111206  19.9613857
  43.8576746  48.3929729  68.3829832  43.9557648  48.9729404  69.1381359
  43.7438536  48.9849997  67.6394892   4.3353665  56.0446072  15.2719152
   4.6057904  55.3125811  15.8262074   4.1806811  55.6505823  14.4134009
  38.4621668  52.6108551  18.4778702  39.2233276  52.0342112  18.4119093
  37.9432535  52.2417307  19.1925085  24.3487382  12.2454607  50.3585672
  24.1861272  12.9645491  49.7480726  23.6246729  12.2929001  50.9828377
  26.2477851  68.1726122  46.3223314  26.7870259  68.1833935  47.1131134
  26.8783140  68.1860399  45.6022692  19.8776066  36.3016891  62.0409250
  20.2999020  35.4487300  62.1427059  19.6506679  36.3472867  61.1121321
  23.6270690  32.8552032  59.3858480  23.5413480  32.7297187  58.4407902
  23.7246394  33.8012576  59.4939709  39.0751457  27.0269966  38.6422205
  39.4696426  27.8267312  38.9901114  38.5523462  27.3224664  37.8968263
  45.5200005  24.9998069  66.5575504  45.4088116  24.0619254  66.7132711
  44.8886395  25.2045870  65.8678532   2.7979240  43.8642693   6.5562564
   3.2153776  43.0290890   6.3454682   3.4931555  44.3846703   6.9588363
  50.0486183  26.8684959  64.3982744  50.8256626  26.5106392  64.8276615
  49.9650812  27.7535510  64.7531366  20.2621174  43.5728502  62.1466351
  19.4379473  43.9957666  62.3877096  20.2836204  43.6175537  61.1907244
  26.8463850  42.8753614   0.4628013  27.6244879  43.4323645   0.4860093
  26.4796019  42.9394007   1.3446185  67.7978611  63.2129622   6.2531954
  68.6729145  62.9673624   5.9528661  67.4740887  62.4358463   6.7087042
   5.2769357   2.1112835  11.7820275   5.7857811   1.9445197  10.9886181
   5.9178090   2.4385831  12.4132073  17.8263628  16.9119406  46.5707016
  17.3587513  16.1902642  46.9911242  18.6821818  16.5454710  46.3482046
  65.0826025   1.5755633  12.0996869  64.8763943   2.0845497  11.3156962
  64.3590975   0.9538657  12.1787965  46.5644836   6.1045170  54.2147732
  46.8623257   5.6762820  53.4121895  47.0865536   6.9051093  54.2669964
  60.9978628  51.1775780   6.8870109  61.1326313  51.5521336   6.0165060
  61.4103651  51.8026114   7.4831718  35.3263521  28.0385756  62.1707582
  34.4145155  27.7778220  62.3003340  35.2872682  28.7220073  61.5017080
  48.0526972  63.8232470  50.4379463  47.3038387  63.4448242  49.9772596
  48.5992908  63.0709839  50.6650352  45.7056808  48.5448265  28.7484312
  45.0253296  49.0334988  28.2852292  46.3693094  48.3676863  28.0817604
  34.5048738   1.5934448  10.9218264  35.2318335   1.3663609  11.5016496
  34.2080522   0.7542328  10.5699003  55.0481749  55.5351686  56.2239981
  55.3583717  56.0354233  56.9788218  54.1385889  55.3237343  56.4341974
   3.7709185  41.5427113  37.7865434   4.1262692  42.0639181  38.5064745
   4.5279896  41.3513279  37.2329664  54.7155571  64.9241495  47.6012945
  54.6160698  65.6853962  48.1729937  54.6295500  64.1719246  48.1869507
  21.4505577   2.7611992  13.0009627  21.5849996   2.2976375  13.8275635
  22.3257017   3.0518085  12.7442479  49.5922565  59.8028851  33.8148475
  48.7154961  59.4374800  33.6965346  49.5532894  60.2500677  34.6602726
   1.1327361  54.6841526  39.9667645   2.0798488  54.6917200  40.1051569
   0.8992361  55.6060123  39.8577499  39.3304944  30.7369494  13.9186597
  40.1482201  30.3863549  13.5656142  38.9004517  29.9824691  14.3212187
  62.9262161  36.0043645  49.2243624  62.7628708  35.4763484  48.4428596
  63.7779760  36.4109778  49.0649652   6.8015999  53.3125591  64.5484018
   7.2992688  53.3011103  63.7308311   6.3540608  54.1586828  64.5445442
  61.0938835  40.1348925  10.5385661  61.3742971  40.4905415  11.3818419
  60.9025717  39.2144322  10.7185161  66.5986586   0.1492755  60.3666210
  65.9125614  -0.0597503  59.7327328  67.2828484   0.5726898  59.8481274
  73.8421345  64.3148851  57.1863508  73.2663155  63.5836411  57.4098301
  74.0253067  64.7401953  58.0240822  54.5159531  70.0822735  20.2923250
  54.4461012  70.7187557  19.5808196  53.9072895  70.4005432  20.9590077
  73.3398724  67.9777050  11.1110437  73.1517601  67.0581532  10.9232450
  72.4820089  68.4023285  11.1119640  67.4647522   2.5684923  56.3719082
  67.8906345   2.7690285  55.5384588  67.2680044   3.4244955  56.7524099
  27.7318287  46.5914297  23.3893037  26.8111467  46.7710018  23.1986952
  28.1448245  46.5188408  22.5288415  36.1951828  50.7389355  23.7257242
  37.1041870  50.4541874  23.8198495  36.2061453  51.6623306  23.9776254
  17.3808360   7.8393841  21.9042730  17.5821865   8.4498394  22.6135230
  18.0047679   7.1228611  22.0206165  22.4247122  34.3266225  23.2591820
  23.1057334  34.9869823  23.1312561  22.2734213  34.3185663  24.2043161
  18.9893556   1.1743488  13.0065501  18.6839771   1.2077629  12.0999849
  19.8108768   1.6655751  13.0008137  69.6037197  76.4896631  45.4319191
  69.4699240  77.4349546  45.3629494  69.7891283  76.3410330  46.3591528
  58.7198591  44.3222094  55.9519243  59.2287302  44.4119358  56.7576742
  58.9129210  45.1183367  55.4568100  42.9543877  45.9471035  32.4506712
  43.1863117  46.5684986  33.1408238  43.5215569  46.1821175  31.7162871
   1.0673500  45.8478451  62.7259398   1.3863014  44.9693537  62.5191641
   0.5198134  46.0861111  61.9778299  41.9180775  62.2741556  51.8984604
  41.3260603  62.8161240  52.4200058  42.7875280  62.6359940  52.0698071
  32.3544312  22.3043275  31.8223500  32.2762275  21.7252445  32.5804901
  32.6848102  23.1272960  32.1826291  68.2830524  13.9085507  67.2150040
  67.7130365  14.4286704  67.7813864  67.8287745  13.8870847  66.3727427
  34.8726082  69.4549036  61.6081953  35.5360436  69.9985790  61.1833429
  34.2099690  69.3134689  60.9320784   4.9063438  58.0618143   0.6035883
   4.3033496  58.6572170   1.0486974   5.4490858  58.6328554   0.0599205
  30.3695178  70.8768940  33.3809114  30.1901245  70.6030750  32.4814272
  30.4055142  70.0593662  33.8774824  53.5174608  26.8886113  46.3134909
  53.0728960  26.0597157  46.4910460  54.1148043  27.0031428  47.0526123
  10.6255817  12.4396157  25.9611177  10.1441050  11.6336203  25.7746148
  11.1362445  12.6025128  25.1680732  34.6595359  12.2474456   6.2819272
  34.7685528  11.5566039   6.9354457  33.9313364  11.9489706   5.7370716
  46.0770559  13.3228183   8.2130569  45.2408028  13.7885535   8.2116079
  46.6697741  13.8963294   8.6988598  61.0665464  62.4203491  61.2049007
  60.3808451  61.7550850  61.1459970  61.2249947  62.5185204  62.1437740
  72.9770374  10.3120565   7.0985854  72.2331810  10.3582418   6.4979386
  72.6153326  10.5657649   7.9477233  20.7286787  18.3072603  16.8279541
  21.4718342  18.7198699  16.3878357  21.0958195  17.5207019  17.2313964
  40.2912617  68.9804411  54.9292040  41.2029314  69.1842365  54.7204876
  40.2186918  68.0363703  54.7888422  53.2400274  66.1819744  67.5734377
  52.4864101  66.7263746  67.8013039  53.7461376  66.1223173  68.3836985
  25.8471155   1.8252702  46.6949368  26.5073872   1.3155627  46.2253952
  26.1649036   1.8554290  47.5973415  46.3255787  53.5906982  19.1089714
  46.0840130  53.9445543  19.9649298  46.0314846  52.6801538  19.1345537
  53.7191868  54.5141125  46.8368244  54.1878748  55.0969553  47.4342012
  54.0562487  54.7386408  45.9695292  25.7053852  13.4359539  19.4991493
  26.6556287  13.4525657  19.3851650  25.4347205  12.5946605  19.1314554
  62.9529190  58.1599140   7.7637768  63.7947750  58.4871197   8.0807161
  62.6359034  57.5934744   8.4672540  34.6282506  71.8751907   5.2708334
  34.8937106  72.6277971   5.7993656  33.7944484  72.1382761   4.8812267
   0.2466970  59.8947906   6.0260850   0.9247312  59.4367123   6.5227377
   0.3693069  59.5988083   5.1240909  26.5568233  76.7025709  12.0265174
  25.6136036  76.7860794  12.1664965  26.8708658  77.6047993  11.9665730
  16.2697721  27.8841591  15.9219706  16.0994232  28.3904648  15.1276982
  17.0019305  27.3130631  15.6895423  12.2872972  63.6321402   3.4345827
  13.0599630  63.1402683   3.1565842  11.8014109  63.7922239   2.6255587
  43.3337831  61.2766171  27.7620101  43.4306240  60.3243828  27.7519298
  44.0775156  61.5984058  27.2525501  56.2341881  62.2669601  65.7651234
  55.6702185  62.9775238  66.0705233  56.4302206  62.4909115  64.8553753
  72.4490833  20.6214428  52.7435112  72.3138714  21.2618732  52.0450878
  73.3476353  20.3163338  52.6180410  49.6752310  53.5144091  41.0862589
  49.4654799  53.1755447  41.9565487  48.8420534  53.8454628  40.7509232
   6.8753219   2.7830312  45.3068256   7.2747880   3.0207202  46.1435795
   6.0207993   3.2141832  45.3183126  62.3423386  47.5123930  49.2120123
  62.9482985  46.8982410  48.7974453  62.8766489  47.9791069  49.8546028
  31.0969687  44.6883106  28.7671661  31.6664791  44.8401690  28.0129576
  30.7389307  43.8121557  28.6243725   8.7659633  63.2211304  12.4455118
   9.2554647  64.0063238  12.6906443   8.5794419  62.7857494  13.2773089
  59.5973635  31.0249329  57.3909950  59.4785309  31.9244623  57.0861101
  60.5062819  30.9912348  57.6892614  31.7039537   2.6896760  44.2892265
  32.1179867   3.5391584  44.4414997  31.4088178   2.7267271  43.3794165
  58.3773518  39.0747714  63.1239748  58.8037062  39.9291420  63.1910849
  57.9557896  39.0843034  62.2646570  69.0541267  48.4027529  58.2848167
  69.3399906  48.9803600  57.5770855  69.2880058  47.5239754  57.9860210
  52.3626757  59.7813320  36.7170620  52.7894402  60.1501226  37.4904299
  51.5449095  60.2724457  36.6376877  79.4945145  60.2295637  53.2140017
  79.5149231  59.7093010  52.4107981  78.9164829  60.9644032  53.0087662
  72.6701593  72.3060608   8.0910856  72.3990059  71.6162825   7.4853539
  73.4569645  71.9595671   8.5119373  40.1617479  66.0247564  45.9202719
  41.0779810  65.7479525  45.9317970  39.8938751  66.0045815  46.8390036
  52.9953718  45.0737619   3.8352245  52.5003386  44.6860743   4.5569372
  53.8182163  45.3568268   4.2340192  46.4001131  66.2464142  29.6919918
  46.2144184  65.9937811  30.5963826  47.1557236  66.8304396  29.7567844
  52.5829601  15.5208433  51.8664694  52.6373720  15.2866447  52.7929783
  52.5824690  14.6812284  51.4068174  43.4105682  14.8317528  55.6176043
  44.3483782  14.8354352  55.8092594  43.1999922  15.7473123  55.4341888
  27.5568581  71.5500164  44.8392725  27.5426722  71.3815928  45.7814360
  26.6347694  71.5519953  44.5824099  74.2926788  13.1916821  46.9049549
  73.5234594  12.9624701  47.4264812  74.4865179  14.0967178  47.1490192
  54.7658300  48.0228376  49.3656063  55.6423044  48.4072304  49.3818140
  54.9073839  47.1149588  49.0973711  27.4014568  44.2949104  26.6507387
  27.6480937  44.9887466  27.2622871  27.4956298  44.6935415  25.7856059
   3.1996199   3.4742284  51.7261410   3.0341280   4.1698331  51.0897589
   2.5052923   2.8346330  51.5678406   0.7724592  60.1068211  52.9655123
   0.4750559  59.7230291  52.1405935   0.0711271  60.7079029  53.2166243
  66.7923164  47.6537704  61.0268211  66.4319563  48.5335779  60.9158850
  66.6427469  47.4482870  61.9496632  55.8621788  76.7571640  48.1418419
  55.8993435  76.0731506  48.8104057  55.0781631  77.2616768  48.3586836
  82.1153355  18.9702475  56.3282776  81.7323875  18.1359088  56.0572529
  81.6807461  19.6228588  55.7792282  36.1019659  20.2958155   7.0448142
  35.5135226  21.0352111   6.8923020  35.5227542  19.5769739   7.2978204
  31.7670131  56.6431761   7.7623200  31.7430186  56.1280441   8.5687298
  32.4366808  57.3080540   7.9226685  52.9325962  56.0208416  29.5996428
  53.5537148  55.4721260  29.1207290  52.7621222  56.7577219  29.0129757
  80.7472610   8.1960016  21.4581323  80.6609535   8.9707720  22.0135736
  80.2656651   7.5124472  21.9240236  82.6833057  59.6603394  56.7083216
  82.9910088  58.7574720  56.6284513  83.4134769  60.1271677  57.1147156
  18.5237455  19.2195356  30.0611353  18.2070899  20.0512886  29.7087908
  19.1750097  19.4694984  30.7165766   7.1612370  55.3911209  59.8355532
   6.2880212  55.3762531  59.4437599   7.5767875  56.1697340  59.4650030
  29.1106129   3.5930520  24.8851228  29.9481964   3.8998103  25.2323723
  28.4630156   4.1905072  25.2591515  41.4798498   7.9821253  11.1448669
  41.3148403   7.5473040  10.3082466  42.3392105   7.6599914  11.4168286
  29.9833131  20.8269668   5.0888705  29.9327755  21.4847517   4.3953305
  29.1500998  20.9044218   5.5536139  11.2125754  20.8530021  16.8288016
  10.4618287  20.8061814  16.2368393  11.4469981  21.7809033  16.8454003
  41.3566685  76.9826841  31.9431138  41.7221975  77.3752785  32.7358866
  40.6964445  76.3677788  32.2628498  38.4758949   7.1482438  60.8930874
  39.1914201   6.9723332  61.5040827  38.8396525   6.9411755  60.0322533
  54.9448681  22.7317047   0.4650501  55.7623434  22.2423577   0.3728177
  54.6527147  22.5440288   1.3570458  69.5271015  25.4358482  42.7048445
  69.0508556  26.2381220  42.4908781  69.7513485  25.0565696  41.8550873
  61.9826078  56.8356037  30.1119328  61.2543535  57.4560308  30.1427293
  61.5669155  55.9852171  29.9695301  42.9794979  70.3059721  27.2238517
  42.6823759  69.7755384  27.9631686  43.8476038  70.6142569  27.4838161
  76.0569763  63.5115719  53.4360266  75.1960564  63.8968515  53.2728958
  76.2584305  63.7498331  54.3409491  77.8880358   3.5978064  14.7875869
  77.0991611   4.1308218  14.6885920  78.5538483   4.2109451  15.0990164
  38.7545943  65.1380014  15.2939546  39.5973039  64.7994232  14.9915600
  38.1310558  64.4389296  15.0971437  80.6035995  75.4120636  60.1504183
  80.9832478  75.3383827  61.0260153  80.2426720  74.5436573  59.9720001
  28.9405346  61.1896086  66.4212036  28.6845708  62.1118736  66.4331341
  28.7407899  60.8741856  67.3025894  47.6678991   3.1929183  20.8970308
  47.7821970   3.8043842  20.1695180  46.9753313   3.5824478  21.4307475
  26.0582566   3.6246878  66.9523239  26.2086201   3.8482293  67.8708267
  26.4275718   4.3600094  66.4633036  60.3604841  77.1949053  49.7814417
  60.0775957  78.1087446  49.8147011  61.2714863  77.2366190  49.4906378
  34.0525150  28.6325431   4.0422130  34.9300528  28.5087991   4.4039416
  34.1619158  29.3098187   3.3747086  42.0135689  20.8424807  48.3221769
  41.6078281  21.2498593  47.5568962  42.7868843  21.3787413  48.4972143
  69.0768003  69.2339706  66.4996481  68.7464094  69.9340105  67.0626974
  68.9011431  69.5394039  65.6096554  72.7540398  55.8987856  16.0898507
  72.6151276  55.2047968  15.4454017  73.2282495  56.5786886  15.6112134
  72.0238209  27.7016544  15.3655636  71.9694471  28.5933924  15.0219417
  72.3635054  27.1839833  14.6355867  57.5001764  36.7449903  55.8894205
  56.8834972  36.0455108  55.6733894  57.9567289  36.9241095  55.0674057
  77.4146366   8.5849380  32.4915385  76.5951824   8.6836535  32.0067859
  77.7242756   9.4810033  32.6235223  70.0740719  22.4182463  42.0336008
  70.8123827  21.8110561  42.0831347  69.8997021  22.6580477  42.9437208
  69.6962357  72.2681427  43.9262676  68.8696575  72.7351046  43.8039923
  69.7035027  72.0330048  44.8541069  24.4611406   3.4640935   2.8379154
  25.1966071   3.3494750   3.4397316  24.8690009   3.6849120   2.0005855
  31.9008851  75.1040792  34.7507644  31.1093926  75.5981493  34.5370579
  32.5425887  75.7722378  34.9916220  79.2714016   1.9400700  68.2996989
  78.4931986   2.1669348  68.8087760  79.4855945   2.7403124  67.8201546
  33.0052280  78.4500837  60.3894138  32.5612640  77.7155399  59.9656582
  33.1906915  78.1389618  61.2754393  67.3428440  18.1780088  53.4220219
  66.5849876  17.6247513  53.6112118  67.1162033  18.6237311  52.6058102
  41.0335445   0.9169190  22.1467829  41.2469339   1.7740226  22.5156593
  41.2864447   0.2934498  22.8276348   7.1410000  61.5570784  39.2776012
   8.0718696  61.7694569  39.2097116   7.0291209  61.2562323  40.1793814
  57.4116230  60.9976053  51.7873621  56.9530964  61.5755701  51.1774921
  57.1222305  61.2850857  52.6532936  17.8561914  12.8441107  44.0195799
  18.1306219  11.9451749  44.2007875  17.4429584  12.7991843  43.1573439
  20.8577299  53.1499577  26.5770292  21.2027788  52.2995138  26.8489075
  20.9696198  53.1610441  25.6264567  61.6286325  55.7317877  38.3393359
  62.1612406  55.1768923  37.7695584  60.9197283  56.0426807  37.7762747
  70.8205605  51.9948578  37.5184941  70.4191160  51.2064695  37.8838897
  71.4100695  52.3042297  38.2062459   7.8483701  76.1992359  37.3155546
   8.5594904  76.7735434  37.5996470   8.2895863  75.4140902  36.9913578
  36.7880487  58.3805275  63.2275057  37.4395394  58.3565331  63.9283752
  36.0080791  57.9801941  63.6117125  35.4041767   8.9907998   4.0500072
  34.8019075   9.5916098   4.4887903  35.1400185   8.1224304   4.3539599
  48.9425468  41.6137218  66.2674141  48.5488462  41.0175133  65.6304216
  48.9046383  42.4727058  65.8467722  81.3006878  76.4113522  51.8358612
  81.5849018  76.6189814  50.9457254  81.4567852  75.4710817  51.9239378
  57.8118753   6.0565537  48.2336617  57.9912090   5.1989067  48.6190367
  58.6447048   6.3230586  47.8443050  42.1648550  67.3371124  56.7286444
  41.8222475  67.8659201  56.0080767  42.7634621  67.9228878  57.1920776
  13.7339211  58.0673504  52.3197126  14.5693803  57.9071236  52.7585363
  13.9735949  58.2734203  51.4162064  46.7023945  68.9784527  22.2225761
  47.3272085  69.6989918  22.1409035  45.9303904  69.2750931  21.7406583
  53.0170441  64.5367146  36.2227321  53.9646387  64.4685841  36.1058927
  52.7327061  65.1337814  35.5307126  41.9351292  28.6077809  10.2508056
  41.4912653  28.9186668   9.4617754  42.8504705  28.8578725  10.1249862
  72.5101852  62.4810410  33.0042744  72.8678513  61.9727135  33.7322211
  72.7494097  61.9819736  32.2232914  16.4441419  35.4547143  17.2467172
  15.8808780  35.6254625  16.4918602  17.2556961  35.1164222  16.8683398
  17.8415859  46.3672304  56.2378025  18.1833994  47.0526457  55.6636953
  17.7034938  46.8051100  57.0776939   3.8441855  16.9248164   8.2255208
   3.1795493  17.0337892   8.9056790   4.5405287  16.4230633   8.6492920
  73.5696554  53.3730507   1.7574912  73.4123850  53.7145424   0.8772192
  72.9467487  53.8432837   2.3116502  74.7344446  30.5785656  59.7008753
  74.8878813  30.7824349  60.6234407  75.3660679  31.1201692  59.2276430
  49.9871111  61.9175005  42.6042223  50.5570793  62.2059059  41.8913507
  50.2061605  62.4957323  43.3348989  19.0070963  28.3818293   0.9544447
  18.7402606  28.5110021   0.0443104  19.9637020  28.3676076   0.9238632
  23.5118747   0.6066793  45.8405733  24.1609955   1.1889967  46.2352610
  23.1625748   1.1037166  45.1008606  80.7776737   1.8221684  53.3341980
  81.5105152   1.7923087  53.9492559  80.0198650   2.0442437  53.8751602
  72.8906250  75.7830524  63.3254147  72.3985863  74.9775696  63.4845543
  73.2713556  75.6632137  62.4554062  70.6081390  68.4566259  49.8322201
  69.6654129  68.4473419  49.9978113  70.8677578  69.3665314  49.9767876
  51.3448715  53.1330204  31.2107229  50.6361055  52.5288582  31.4318061
  51.7097044  52.7865124  30.3964400  73.3437920  53.2675266  20.9683824
  73.5544205  52.3885727  20.6532526  73.1205416  53.7584019  20.1775384
  37.6999211  49.8624086   4.0304992  36.8429852  50.1751184   4.3205166
  38.0771184  49.4447994   4.8048085  29.3405461  46.1798048  12.5312901
  29.4525313  47.0275259  12.1011043  28.3962989  46.0241079  12.5116134
   1.0307677  44.9446154   8.3224648   1.4964516  44.8238707   7.4949437
   1.6317548  44.6075821   8.9868879  74.5753241  27.1175027   7.7351260
  74.4684696  26.3127279   8.2422268  73.7336159  27.5658560   7.8172028
  19.2598748  38.8841772   9.5341492  18.4174824  39.0788484   9.1234064
  19.3792963  37.9437423   9.4016755  47.3688745  42.1813869   4.7584072
  47.9806805  41.5135241   4.4487622  47.8703451  42.9962873   4.7320107
  73.4457207  68.8565063  63.2471037  73.9380217  68.7962246  62.4284220
  74.1067171  68.7556696  63.9320469  62.7426624  18.1413388  27.5732899
  62.3860025  17.7893496  28.3888435  62.2546864  18.9520109  27.4286556
   3.5622460   8.6161846  45.3449297   3.6732757   7.7830976  44.8868132
   3.6932853   8.4010327  46.2683868  75.4100561   4.0792292  60.0519657
  75.2026796   4.2251852  60.9749603  74.5572567   4.0018767  59.6241999
  62.0739698  67.2748613  49.3495941  61.9978809  67.6100588  48.4562397
  61.3599110  67.6984406  49.8259735  13.0750406  27.6068592  11.1476171
  13.3220387  28.5171866  10.9847498  12.5601876  27.6389647  11.9539213
  56.9248152  48.6930561  57.3907185  57.5773573  48.0327368  57.1574736
  57.3111391  49.5219183  57.1079302  59.6244287  63.2215166  66.4982224
  59.5082092  63.4555006  65.5773640  58.9645243  63.7373590  66.9615459
  81.9603348  36.0893202  26.8664670  81.1870098  35.6089616  26.5707517
  82.5876713  35.9981561  26.1492729  70.7219744  69.8365116  45.7012033
  70.7693481  68.9865971  46.1389589  69.9690247  69.7622871  45.1148653
  57.5770521  51.3042688  55.5096531  57.8313875  52.2262049  55.5493546
  58.2937384  50.8781242  55.0395536  61.6794205  66.7586994  14.6520114
  60.8645296  66.5232277  14.2084551  62.1234369  67.3467016  14.0409982
  83.2533741  41.2525988   7.5615805  83.2549000  41.1749506   8.5156244
  83.6739063  40.4491568   7.2552109   6.1291754  47.8103876  37.1223807
   6.5859765  47.8146267  36.2812233   5.2852345  48.2230091  36.9387007
  39.1753983   9.9444950   2.1893938  39.2378664  10.8172250   1.8012299
  40.0477171   9.5678359   2.0735423  31.0284019  68.8232183  46.6549397
  30.1111531  69.0966463  46.6661978  31.4619160  69.4136620  47.2711182
  71.5935230  42.4228287  30.1774025  72.3577547  42.8063154  30.6076598
  71.2381744  41.8104362  30.8215547  57.5395775  26.1057353   1.3206771
  58.4715891  26.1552835   1.1082466  57.5151968  26.0251951   2.2741710
  34.3288589  42.8438759   6.1361969  33.4064364  43.0328035   5.9639281
  34.4465637  41.9396448   5.8450854  57.8580904  78.2445478  29.9806929
  57.6180935  78.9447403  30.5876231  58.6488390  77.8601551  30.3591013
  49.9723196  36.6383576   4.9648744  50.8295059  37.0340323   5.1226956
  49.3542671  37.3644614   5.0486529  29.0591097  53.2316589  50.0141335
  29.9044013  53.4282827  49.6103334  29.0184355  52.2754765  50.0311470
   3.9245981  13.1281376  38.8466883   3.3796960  13.6369717  39.4470215
   4.4747293  13.7796974  38.4118795  20.1840520  68.1877708   2.8924853
  19.9920011  69.1247606   2.8551435  21.1084652  68.1422949   3.1366652
  81.6457748   8.6036885  58.8246346  80.7942104   8.1857562  58.6965466
  82.2639656   8.0322587  58.3690691  71.4074659  74.0923691  37.9515576
  72.2152758  74.2233229  37.4550414  71.4650202  73.1912708  38.2692647
   5.6272691  37.4411535  64.2270708   5.2459013  36.5727997  64.0976477
   6.0237336  37.6568604  63.3829594  60.6987667  53.0538368  58.6592579
  60.2965069  53.7286329  59.2061329  61.1004782  53.5381413  57.9379320
  57.7872038  58.9922714  54.1428518  57.5183153  59.9031210  54.2623472
  57.3385859  58.7128401  53.3447933  58.0458546  46.7091417  61.7947721
  58.3622599  47.1451330  62.5859976  57.2534752  47.1904612  61.5566635
  55.8427000   9.9524015  54.0679693  56.3356733   9.8760432  53.2510376
  55.6997395  10.8928585  54.1744328  53.3473206  72.8520632  30.9707022
  53.2761574  71.9558525  30.6421089  54.2283010  72.9019070  31.3416743
  39.0149069  73.8359594  19.4402814  39.5481062  74.2859983  20.0955629
  38.2659888  73.4984159  19.9316263  46.3166761  66.1742353  32.4218941
  45.3606844  66.2217760  32.4290824  46.6003942  66.9967604  32.8208780
  52.7721405  69.3814564  54.1517067  53.2251024  69.3580008  54.9946213
  52.4998474  68.4762859  54.0008593  59.2807722  66.5118504  50.7447433
  58.6130619  66.8390512  51.3475180  59.7433758  65.8378553  51.2426996
  50.2397871  71.4709282  49.0925694  50.5450106  71.8921709  49.8960733
  50.1704550  72.1851921  48.4591246  37.9016113  17.2678161  58.0055904
  37.9490471  16.8028367  58.8409233  36.9783473  17.5035477  57.9147863
  58.9122915  58.9561129  36.2993073  58.2182121  59.5234203  36.6349435
  58.7164736  58.8640642  35.3668833  64.5726681   3.2244772  10.0583637
  64.2501402   3.0230612   9.1799337  64.3428612   4.1438872  10.1929176
  56.0793161  71.8512678  66.1898899  56.4575148  72.2181654  65.3907776
  55.3618097  72.4453831  66.4099836  11.9661093  18.9697146  37.4256229
  12.2679293  18.2146001  36.9207072  12.2708929  19.7281826  36.9275594
   1.9637620  34.7781348  45.3755522   2.7767178  34.6016026  44.9020863
   2.0706587  35.6680417  45.7115126   0.7404748  17.1732426  43.6377668
   0.0502178  17.1480787  42.9750872   0.2908979  16.9760942  44.4595003
  55.9071970  55.6136465  64.1067123  55.5084372  55.9640217  64.9032402
  56.8218517  55.8917904  64.1544342  20.8096385  14.3989336  20.5956554
  20.7221031  13.8504136  21.3752031  21.1492538  13.8077998  19.9237525
  23.9054942  16.5801716  29.9088883  23.1583858  16.9643950  29.4501591
  24.1594195  17.2434282  30.5506396  24.3848228  65.2686357  39.0122867
  24.8882627  66.0818768  38.9746499  25.0376415  64.5906687  39.1867018
  67.1419430  58.4964609  45.4481602  66.8690729  57.7915812  46.0354567
  68.0019188  58.7609673  45.7748270  14.7389305  55.0504160  61.2346029
  14.0117490  54.5372629  61.5868998  15.2302909  55.3309441  62.0066786
  80.6001663  61.8651438  66.7087126  80.9633923  62.0617294  67.5722265
  79.7229052  61.5273666  66.8891239  66.5357924  50.4899168  27.8987336
  66.3578558  49.6085644  28.2270455  66.6191721  51.0267735  28.6868095
  68.2784843  71.9033194  12.6802731  68.6430454  71.9750118  13.5624230
  67.6591301  71.1755896  12.7354825  46.4702463  62.5115776  16.4752007
  45.9474277  63.3061934  16.3680625  45.8254385  61.8063688  16.5312576
  82.1539688   5.6323856  40.8481693  81.3510418   6.1527866  40.8750200
  82.0939159   5.0597316  41.6128206  82.2828865   3.6714959  45.5263948
  82.7709961   2.8965431  45.8046579  81.4041901   3.5420153  45.8832550
  39.3123460  78.4088230  55.2839947  39.9263120  79.0303850  54.8929214
  38.7008619  78.1997156  54.5778847   4.6129242  65.9545565  63.4192038
   4.8553830  66.8799019  63.4535170   4.4276625  65.7216024  64.3289518
   3.8934469  24.9024081  25.3445506   3.1168446  24.3683910  25.5117273
   3.8296783  25.6212974  25.9733295  64.0272856  70.6423616  19.3463790
  63.1984377  70.8223295  19.7900569  63.9334869  69.7485304  19.0169835
   3.4781057  25.9888220  12.0573413   3.1604996  25.5432367  12.8427148
   4.1821456  25.4278898  11.7318952  35.3080678  55.3554630   6.0099000
  35.5554175  54.4386721   6.1304885  36.1304498  55.8004951   5.8052886
  30.5162430  35.7311678  17.4471807  31.0369539  36.3645411  16.9532883
  29.6084476  35.9600043  17.2477472  17.6877522  22.8543925   7.2146851
  16.7531693  22.6503682   7.1806139  18.0428624  22.4865484   6.4054757
  63.1668901  74.2628336  37.1113420  63.6330891  73.5629606  36.6541004
  62.3187351  74.3134212  36.6705441  67.1868324  43.2057524  64.6986389
  67.9373455  43.2828951  65.2877188  67.4685431  43.6403179  63.8936377
   9.0812707  25.8237958  48.6718178   9.9425441  26.1888194  48.8747931
   9.2679095  24.9604917  48.3028984  55.3630924  62.7318954  49.0309763
  56.1437798  62.9890156  49.5215321  55.3616285  61.7753839  49.0673018
  67.1053219  70.3655386  43.8183069  67.8960085  69.9380541  43.4892178
  66.3933468  69.9751806  43.3114100  12.8365684  26.3092542   2.9425636
  12.4655545  27.1498084   2.6741433  12.8171396  25.7744861   2.1489146
  79.0790033  11.7804694  23.8184977  79.4602728  12.2811699  24.5397210
  78.2530928  12.2253859  23.6283565  13.4561932  50.6761980   4.2862758
  12.9673934  50.7951689   3.4719342  13.2898414  51.4763689   4.7845569
  68.0303764  61.4532185  58.4550953  67.1452522  61.1026621  58.5545778
  68.1890965  61.9365501  59.2659187  66.1984253  47.4068451  63.7735128
  66.9167519  47.0020247  64.2596769  65.4140711  47.1828842  64.2743683
  81.5680313   5.1216388  50.0292778  81.4310932   5.3695655  50.9436131
  81.8724346   5.9245998  49.6063995  21.4278889  17.2152555  11.3595760
  21.4378858  16.4315677  11.9090903  20.5584788  17.5919557  11.4954162
  82.8043842   0.4740070  58.2091236  82.2484970   0.7037461  57.4645185
  83.6846066   0.4067118  57.8391171  80.9741020  56.1422682  55.0709963
  81.8640423  56.0767317  54.7246647  80.8408833  57.0794106  55.2132988
  70.2571392  38.3542848  63.2173014  69.8234653  38.3592176  64.0706110
  69.6711493  37.8490734  62.6537323  30.6721020   5.8033824  28.2494760
  29.9792004   5.4709542  28.8200998  30.5552769   5.3262943  27.4279094
  66.4062738  56.9664192  58.8564205  66.8153048  56.2612152  59.3580341
  65.5203915  57.0313978  59.2130995  80.5726719  63.3922243  59.4371796
  80.5971527  62.4384308  59.5140648  80.0313950  63.6780214  60.1730967
  17.0899510  38.9796233   8.1323338  16.3854003  38.3821511   7.8815979
  16.9377196  39.7640300   7.6053035  74.8598671  74.6866703  37.3911285
  74.8374271  75.4553032  37.9611540  75.6874037  74.2550421  37.6035285
  80.2134705  57.8684187  58.6874962  80.6908798  57.0489788  58.5577822
  80.7091427  58.5162592  58.1866550  19.1755128   4.0409777   9.5811200
  19.0434003   4.8447269  10.0838780  20.0954318   4.0713271   9.3183255
  33.3987212  12.9690433  24.0922689  33.1693959  12.6814508  24.9759722
  33.7887120  12.1967697  23.6827135   1.1452870   1.1605761  63.9656782
   0.4875344   1.3032293  63.2850599   1.1438701   1.9717130  64.4738960
  60.8056879  62.0237446   8.9910096  60.0656414  61.4372921   9.1479784
  61.0739470  62.3098660   9.8641670  41.8159771  12.8273606   4.0842682
  42.3704720  13.5200167   4.4434211  41.2987328  13.2620275   3.4062129
  83.8725662  60.7676220  46.4622593  84.0339375  60.8117056  45.5197906
  83.3258724  61.5311575  46.6476250  14.3580949  39.5931673  24.2472696
  13.4602761  39.9215198  24.2956018  14.8086500  40.0196123  24.9762249
  35.5410814  11.8002701   2.4248125  35.0979638  11.8875861   1.5808602
  35.6662178  10.8574975   2.5332201  73.8601255  46.3375092  40.2473021
  73.6685991  46.5139294  41.1684036  74.5720768  45.6980658  40.2689123
  34.4462371  76.3069773  31.2794161  33.8503933  75.5849266  31.4790249
  34.2685699  76.5176964  30.3627586  16.4440465  16.8030822  22.1159434
  16.9473958  17.4872696  21.6746283  17.0192504  16.0380578  22.1054459
  54.0453339  57.1863604  39.3464994  54.5574903  57.8636885  38.9047337
  54.5096731  56.3716221  39.1546106  63.8196898  37.5893831  53.8186550
  62.9410028  37.3860288  53.4980488  63.9876652  38.4793544  53.5088730
  44.6101093  40.6796551  64.9168634  44.4892168  40.8815575  65.8446836
  45.4813004  40.2860022  64.8689461  67.9409599  68.8727093  49.7660351
  67.8931284  69.4308805  50.5421734  67.7236938  69.4552994  49.0382862
   0.4782646  11.5599763  42.4238253  -0.1009296  10.8260238  42.2186947
   0.8719437  11.3266981  43.2645559  42.8106976   0.9156108   2.2002195
  42.4400711   1.4690411   2.8876647  42.3959160   0.0627230   2.3297174
  11.8775249  68.9712143  53.5755110  11.6223240  69.7388935  53.0638695
  12.1763515  68.3373499  52.9234743  23.7381721  24.8594642   8.1527811
  22.9241610  24.4337487   8.4218228  23.8564658  24.5952129   7.2404158
  70.7514524   7.1006286  28.1067181  70.2724218   6.3354111  28.4248447
  70.6607866   7.0611727  27.1546388  66.3774347  45.3219700  59.5580339
  67.1261263  44.9851990  60.0502491  66.3386917  46.2506723  59.7866058
  32.9047871  11.2180114  11.7687142  32.3493028  11.1680484  12.5466430
  33.7399268  10.8414519  12.0461583  31.6818166  69.6871996  57.0235348
  32.2164321  70.1643944  56.3889408  31.1431527  70.3612757  57.4378920
  65.4903173  56.0565042   3.1041598  65.3165054  56.5942430   2.3315927
  65.8584785  56.6669273   3.7429640  21.9339418  71.9538784  18.8624716
  21.8046784  72.8586912  18.5781622  22.7037907  71.6578531  18.3767390
  73.0504656  44.1762972  59.0417337  73.0181122  45.1151609  58.8580942
  72.9306984  43.7609339  58.1877089  23.9328718  12.1537161  21.7606974
  24.3461609  12.7191281  21.1082125  24.6530223  11.6341066  22.1179414
  68.1502771  33.9112544  33.4418011  68.3547211  32.9763508  33.4220910
  68.6744690  34.2860317  32.7339911  36.7218399  63.3452368  66.6685152
  36.2585425  62.5403643  66.4366341  37.6172757  63.2030773  66.3615656
  51.4319324  78.5323286  28.9529037  52.2981739  78.2594585  28.6505842
  51.6026592  79.0254641  29.7553396  46.3684130   9.4663316  59.6324158
  46.9258022   8.9678508  59.0348625  46.0457945   8.8167310  60.2570486
  21.4202309  22.5299096   2.9689112  21.3318372  23.2511139   3.5920340
  21.7669773  21.8050694   3.4891099  48.1671619  70.2849674  42.4787807
  48.3828306  70.1551151  43.4022808  48.7086296  69.6467352  42.0143414
  55.8454370  35.8724332  63.5223722  55.1785374  36.5121317  63.2728481
  56.4293385  36.3519907  64.1100073  34.9167514  56.8205833  13.0334401
  35.8346462  57.0341587  13.2010257  34.4884157  56.9209814  13.8835466
  30.1494217  31.3983965   2.9910785  30.7063723  31.5190530   2.2220013
  29.2747545  31.6508770   2.6953706  31.9839692   3.4428295   7.9159003
  31.6614175   2.6385149   8.3224344  31.9560456   3.2639861   6.9759709
  50.7611799   5.8687943   1.1956483  50.1351547   5.1493347   1.1137917
  50.8534098   5.9998310   2.1393406  31.6788769  23.0995202  60.1184988
  31.4622355  22.5054932  60.8371305  32.1357751  22.5492501  59.4823551
  54.1664314  67.2054768  49.1903353  53.4329557  66.9706106  49.7587442
  54.1777134  68.1625843  49.1970301  35.0507760   1.3679349   7.0819116
  35.5804658   2.1523118   7.2247887  34.8961329   1.0201043   7.9601663
  20.2382398  68.2965517  12.5035429  19.8729300  68.2460880  11.6202343
  20.9248114  67.6297235  12.5172436  70.2743769  59.5030308  62.8168631
  70.6240273  58.8214540  62.2429085  70.1023722  60.2422905  62.2336435
   7.8781080   3.9953384  40.6951618   8.3296680   4.8327112  40.8006716
   7.6511067   3.9610544  39.7658992  16.3245475  22.5460052  52.5642586
  17.0735884  23.0716538  52.2834396  16.1663318  22.8182268  53.4681940
  80.9367466  43.8693285  58.4610462  81.7158031  43.9042568  59.0160942
  80.6461239  42.9588032  58.5132027  83.1997395  36.8373466  54.3922710
  83.5445309  36.8745518  55.2844381  82.7956295  37.6942515  54.2557383
  66.5203142  68.5166168  40.3429365  66.7889786  67.9108238  41.0336351
  66.2124157  69.2925406  40.8113194  74.2139006  78.3824110  51.9586229
  74.1997290  78.8233662  52.8080893  74.4753122  79.0638781  51.3393497
  23.3536506  76.2354279  42.3333597  22.6820016  76.6490459  42.8756142
  23.8089681  76.9669819  41.9165277  74.5982409  18.7687492  47.2915983
  75.4514694  18.9560437  47.6829529  74.8043966  18.4026730  46.4315271
  81.8907356  20.7431078  63.2934093  81.9663811  20.6991506  64.2466021
  81.4104462  19.9503577  63.0544424  55.3599024  65.9476137  57.1870804
  54.4242048  65.7534695  57.2419357  55.4858685  66.6887951  57.7795410
  70.7559347  69.0929604  54.1057444  70.2004242  69.5083714  54.7653389
  70.6886768  68.1563473  54.2913914  43.2428217  70.4985142  45.8077574
  42.8049994  69.8300409  45.2807951  42.9607153  71.3287878  45.4239655
  48.4797573  63.2946491  35.0706649  47.8400230  62.9786873  34.4325900
  49.3091822  63.3055258  34.5929980  73.6871767  74.3481493  51.7834139
  74.3574667  74.9917889  51.5539026  73.7787008  73.6611986  51.1231422
  20.9909630  24.4891715   4.8076692  21.7694259  24.9860239   4.5559439
  20.3116107  25.1527882   4.9273589  78.6664629  50.0190496  49.6142864
  78.3411264  50.9126186  49.7234583  78.3046055  49.7332144  48.7754869
  41.7641878  31.7632604  16.0563779  41.7792034  32.0790625  15.1528978
  41.3663101  32.4780560  16.5533662  62.8696214  78.4929897  42.6190519
  63.4906487  79.2024951  42.7838516  62.4785064  78.7088377  41.7724895
  23.5248446  51.9685221  62.3700333  23.5880280  52.8741980  62.0667362
  23.4774709  51.4497662  61.5669870  24.4996476  61.5438652  21.6104865
  25.2281284  61.0308981  21.9603610  24.6391964  61.5430832  20.6635141
  48.0956602  64.5313215  22.1769929  48.8704348  64.8452568  21.7107296
  48.0305004  63.6067533  21.9379067  14.0145743  24.2507386  64.1569996
  13.1834435  24.6567297  63.9107847  13.9689612  24.1704631  65.1097393
  55.8391142  38.4306645   6.0339922  56.4428568  39.1399121   6.2546515
  56.4005661  37.7374911   5.6868422   6.8008727  23.0895519  44.7802019
   6.6856062  22.3836231  45.4162931   6.1825299  22.8835893  44.0791559
   8.4081781   8.1712383  37.5805593   7.9610050   7.3317105  37.6876163
   8.0490673   8.7240982  38.2745457  37.6459312  75.7655811  50.1992273
  36.9208431  76.1509895  49.7073555  38.1942177  75.3516150  49.5327091
  52.0450020  50.3136444  33.9811611  52.6168776  49.5474482  34.0273547
  52.3979139  50.9157658  34.6362448  20.3646398   7.7122420   0.2064125
  19.4645500   7.4341309   0.3758991  20.8043408   6.9221377  -0.1076410
  46.1891603  12.4424195  36.9172072  46.7211962  12.3627579  37.7089286
  46.1506939  13.3837962  36.7482042  22.8923416  67.7300072   3.6149475
  22.7234244  66.8192720   3.8563100  23.5562301  67.6764154   2.9274794
  44.1690016  73.6117220  38.9324212  43.6181068  73.1924915  38.2713699
  44.3469620  74.4830418  38.5783482  56.6424656  63.7793541  57.6976681
  55.8509302  63.3113956  57.9635811  56.3612270  64.6889830  57.5991249
  29.3240666  32.7486587  13.7121022  29.5938945  32.8746939  14.6217954
  30.0640178  32.3001862  13.3027387  19.5053053  28.3592916  16.3807893
  19.1878211  27.5980377  15.8950627  18.9525437  29.0814781  16.0822392
  25.5564761  64.0528965  66.7193174  25.0340414  63.3198690  66.3937902
  25.5725455  63.9325571  67.6687860  63.3938456  53.3544779   4.9891877
  63.6407614  53.4471416   5.9093392  64.0072393  52.7076006   4.6405786
  61.1203337  60.3597403  37.5622177  60.5235577  59.9442863  36.9397283
  61.0498905  61.2955046  37.3735070  19.8727214  16.4825964  14.6090829
  20.1337600  17.2634363  15.0973248  18.9843321  16.2961018  14.9127543
  50.6555319  73.5693169  13.2699561  49.7307014  73.5290003  13.0264497
  50.8938742  72.6612473  13.4565759  36.4603376  78.7903118   5.0994992
  37.4064183  78.8129902   5.2432078  36.3503122  78.2562351   4.3128043
  54.3185091  43.1072807  58.9363194  53.4989166  42.6142550  58.9740705
  54.3233871  43.6257935  59.7409010   3.6018890  73.4292746  19.1096437
   3.1869793  73.6902428  18.2874644   2.9755658  73.6865520  19.7862232
  51.5928793  69.0902042  50.1359177  51.1515951  69.5902967  49.4493294
  51.9901848  69.7548628  50.6985950  26.0252261  11.6882014  36.0393739
  25.5891705  12.4475229  36.4260483  26.9089842  11.7067826  36.4066052
  67.7208853  35.1691699  67.9871273  68.5537338  34.9471879  67.5708151
  67.1076012  35.2670145  67.2587490  74.6500492   6.8663657  56.1231947
  74.0278196   6.4520937  55.5253363  75.5074644   6.5638894  55.8238888
  57.7408743  44.3863392  14.4379795  57.4652290  43.4965134  14.2178416
  58.6246061  44.2829227  14.7908962  63.7937784  18.1510711  43.0896235
  64.7207403  17.9824173  43.2585239  63.7502575  18.3306801  42.1504354
  63.3031416  57.0372200  63.2864904  63.9377451  56.5141296  62.7967119
  62.7919769  56.3946819  63.7785053  16.3090265  50.4624319  17.1568429
  17.1615279  50.4141760  16.7242396  16.2695539  51.3512802  17.5098670
  50.8993578  75.3577471  53.5694790  49.9975920  75.6785297  53.5572290
  51.1397743  75.3542852  54.4959879  75.7496119   8.9468670  59.3062401
  76.6142654   9.3382925  59.4302893  75.2425528   9.6234560  58.8575220
  49.9632359  33.3197236   9.8647130  49.6789742  34.2266393   9.9784195
  50.7195187  33.2312584  10.4447460  67.3969173  68.9123774  56.4357376
  67.5870466  69.7186279  55.9561110  68.0145121  68.9174128  57.1670246
  68.0363894  74.5661020  44.1946411  67.1653748  74.9528265  44.1051102
  68.5597181  75.2490711  44.6140623  47.9925776   0.1434411  33.8906097
  48.1478548   1.0823869  33.7881327  47.2222137  -0.0322933  33.3503437
   9.8229289   8.4387708  19.1292155   9.3335491   7.6204020  19.0454793
   9.4552070   8.8592762  19.9065113  44.6065998   9.2599720  39.1544867
  43.6976480   9.5589876  39.1794991  44.8802185   9.2482758  40.0716734
  27.8339362   6.3729048  57.8811121  27.0411491   5.8392447  57.9352045
  27.6699591   7.1062124  58.4740734   3.1904778  18.2339871  63.5948277
   3.6810085  17.5411475  63.1525803   3.3790547  18.1050599  64.5243692
   5.6142348   1.5104745  16.2777376   6.5243882   1.6687423  16.0271299
   5.3956133   2.2390987  16.8587232  20.9406734  31.5688062  53.9565277
  21.2153888  32.3676133  53.5063410  21.7360926  31.2476015  54.3812227
   7.4483681  26.2636757  68.0286884   7.4678254  25.6140757  67.3259258
   7.8992605  25.8399820  68.7590408   0.4248359   5.3003716  14.9159348
   1.1314633   5.1189429  14.2962635  -0.2902030   4.7278422  14.6381557
  51.8406916  33.4433913  61.3081217  52.2255850  33.0835843  60.5089808
  51.2527895  32.7560091  61.6213369  38.3006334  46.0765123  34.0376782
  39.0977407  45.9423733  34.5503759  37.6432228  46.3400555  34.6815634
  72.7788734  77.5522518  28.9952350  73.3197880  78.0699110  29.5916200
  72.8255415  76.6612434  29.3418789  26.3675094   2.8910166  58.1727886
  27.3078775   2.8799036  58.3511639  25.9642625   3.0614772  59.0240049
  69.8238802  43.7628841  48.6284256  70.6988859  43.7717009  49.0163946
  69.5409441  44.6769333  48.6548567  79.5484686  13.5247004  38.9949083
  79.1254473  12.6775348  38.8549328  78.8988781  14.0408146  39.4722795
  65.3158426  10.2386606  40.1651621  64.5095778  10.2185476  39.6496391
  65.4533005   9.3292671  40.4303837  44.6727705  77.9879856  59.2644453
  44.9246216  77.4349022  60.0039721  45.1460552  77.6201582  58.5181618
  64.7887659  64.4786978  46.4324284  65.3795385  63.7416077  46.2777948
  65.2153063  64.9868536  47.1224117  53.6177683   5.8892435   9.5381474
  53.0646896   6.5873224   9.8888928  54.4712925   6.3024867   9.4079369
  14.8548317  71.6779995   6.2892199  15.3807795  72.3169184   5.8081865
  15.4384601  71.3559246   6.9761527  53.6230659  27.3946476   9.9620825
  53.5367727  26.5953946  10.4816794  54.1965675  27.1478820   9.2365253
  40.2756071   7.0358580  62.9322052  40.7794666   6.7782569  63.7042141
  39.8299503   7.8412449  63.1948376   9.2802447  33.5220599  11.0480738
   9.8184091  32.7311683  11.0149240   9.8757559  34.2277265  10.7958150
  32.5492692  69.1308308   3.6690724  33.1220007  68.6402369   3.0795559
  32.9604983  69.0447330   4.5291370  33.4223104  14.6527708  21.7906904
  33.4523296  15.5277121  22.1777391  33.1287313  14.0854561  22.5035691
  82.5453186  23.5885262  15.5204725  82.6514339  23.9207673  16.4118695
  83.3104134  23.0307055  15.3801107  28.5804796  46.5897274  20.8164954
  27.8377962  46.0962582  20.4684472  28.3209896  47.5068808  20.7285571
  10.0041020  36.4829850  43.8426685   9.8801261  36.1193609  44.7193861
  10.6123054  35.8789706  43.4166574  45.4948759  25.3907228   3.5638425
  45.7851982  24.7610879   2.9039130  45.8687878  26.2248659   3.2798868
   6.5257967  72.5678444  44.5176792   6.4313132  73.4232473  44.9367142
   5.6939977  72.4299240  44.0645552  67.0309925  77.3979473  65.7376051
  67.4010181  77.1783209  64.8825788  67.6681566  77.9962921  66.1277866
  44.6506023   3.5316855  48.4544420  44.3489504   4.0129352  49.2249203
  44.9213362   4.2120206  47.8379393  59.4019794  78.1001234   5.9671658
  58.8949251  77.4801350   5.4430097  59.1118288  77.9469824   6.8663824
  69.9495125  57.7987862  40.6495714  70.6130600  57.1553183  40.8983326
  69.1197777  57.4019527  40.9147167  55.6114721  47.7416182  63.6667585
  56.4949179  47.8795433  64.0084267  55.1282072  48.5251331  63.9290428
   9.8718655   9.2050046  33.7980056   8.9206839   9.2916012  33.7348652
  10.0338209   8.2664984  33.7020469   0.4234416  21.1625671  49.5872593
   0.6166691  21.9970655  49.1600513   1.2826219  20.7947016  49.7939348
  70.5954885  39.1068578   3.4088442  69.7147179  38.8357377   3.1500512
  70.4886866  39.4541264   4.2944115  69.1515589  24.1286349  53.1095028
  69.3089533  24.8041105  53.7691927  68.7941933  23.3904600  53.6030769
   0.7397284  64.3861914  47.7607203   1.0458054  63.8022089  47.0668125
   0.7707030  65.2594137  47.3698807  42.6264572  20.7916880   0.9049039
  41.6723585  20.8266711   0.9735283  42.9271650  20.6722903   1.8057647
  82.8618209  28.1161554  68.5351906  83.2144134  27.4815853  67.9113097
  83.5274069  28.8025625  68.5806594  45.8349466  27.8648305  10.4834127
  45.4063320  28.0167294  11.3257003  46.7025852  27.5319195  10.7127750
  46.9566584  29.9395680   0.0811799  47.4036169  30.7614923   0.2834223
  47.6446581  29.3720150  -0.2663405  17.7580412   0.1358381   6.2452805
  17.6435240   0.0435844   7.1911174  16.9413431   0.5329672   5.9427482
  47.3921204  61.2322187  41.7491579  47.7793550  60.9305906  40.9273911
  48.1414843  61.4843798  42.2887039  39.9103999   4.2354283  25.6281376
  39.0609622   4.6757358  25.6567049  40.4417467   4.6977651  26.2763238
  34.5642638  10.3102720  43.4849167  33.7483025  10.7649744  43.2759094
  34.2961335   9.4104236  43.6709547  78.8196564  38.4846759  53.0299616
  79.3110514  38.6489797  53.8348007  79.3317032  38.9142871  52.3447800
  16.3713002  19.2247510  51.2784767  17.2125340  18.9603567  50.9061146
  16.0467625  19.8993576  50.6819725  45.2424049   6.7783666  60.8295298
  45.6016254   7.1754318  61.6229630  44.3376827   6.5643114  61.0573101
   0.9441546  23.1235528  62.8554296   1.8706186  23.0051160  62.6459789
   0.8451307  22.7420712  63.7277222  28.3432031  32.0881367  46.5829134
  28.6074877  32.9979539  46.7193556  28.6349344  31.8846846  45.6942415
  60.7830238  48.0632687  36.7168403  60.8306170  47.1132135  36.8234181
  60.0391006  48.2015467  36.1305928  33.2719111  70.8918142  55.1672316
  33.1229615  71.0478020  54.2346478  34.1960645  70.6492281  55.2248859
  81.8307972   2.5051001  50.5455160  81.8354893   3.4550163  50.4277515
  81.4983749   2.3755088  51.4337349  57.9956818  51.0621548   6.1598736
  57.8574896  51.9099855   6.5821511  58.8098192  51.1694098   5.6680387
  27.2460246  25.5935740   0.8720557  27.8428197  25.0179505   0.3938047
  27.6529217  26.4583182   0.8183748  45.3656101  67.9554462  52.7281666
  45.9395504  68.4541559  52.1466875  45.2326059  68.5288763  53.4829664
  57.5286198   7.3650664  35.5002642  57.3749828   8.2660729  35.7845426
  56.6918564   6.9228005  35.6433177  31.0898590  24.6501899   4.2135388
  31.4069033  25.4222703   4.6821591  30.8995366  24.9672723   3.3306637
   8.9131606  32.9332471  66.7060518   8.4579796  33.3018255  65.9489584
   9.6812272  32.4985409  66.3354635  64.4224262  72.8276396  35.4116654
  63.8739347  72.1375895  35.0385404  64.3987560  73.5300636  34.7618437
  28.2821107  73.3175039  58.6536026  28.3417654  73.3981133  59.6055365
  27.9847050  74.1781521  58.3585262  34.6776724  31.5016174  63.3823681
  34.7262096  31.1024141  62.5137424  34.8300004  30.7763171  63.9881468
  48.1682634   7.2254717  67.2536993  47.6300955   7.7084893  67.8808355
  49.0552187   7.5569367  67.3939657  59.6899128  72.1588755  59.5206213
  59.3568087  72.9466867  59.0909386  60.5663872  72.4013710  59.8193169
   1.6395096  11.1149883  44.6875715   1.1266713  11.4258790  45.4336119
   2.0348714  10.2982819  44.9923849  66.6098404  66.7917776  35.8797359
  67.5540876  66.6671276  35.7843709  66.5243101  67.6143694  36.3616729
   9.4930089  11.1357582  39.7338772  10.0249898  11.5827954  39.0755582
   9.3600541  11.7905307  40.4193163  22.7477407   4.5118177  42.3531246
  23.2561851   5.1657307  42.8328228  21.8377209   4.7867405  42.4649811
   6.3396549  36.0701346  53.7294149   7.0145780  35.4935193  53.3713293
   6.8254119  36.8102384  54.0934467  84.0978572  28.5182309   0.7248836
  83.2913261  28.6868668   0.2377481  83.9382221  28.8949561   1.5902308
  18.3076012  32.6403165  38.8888597  17.9454958  32.8348207  38.0244064
  19.1707444  32.2678137  38.7086987  55.8363867  76.1396265  51.2201500
  55.3786993  75.4828691  50.6953430  56.6032219  75.6805038  51.5627956
  60.4747581  57.7187252  43.5922813  60.7876587  56.8636465  43.2970476
  60.7510376  57.7720499  44.5071936  19.3844020  55.5833149  61.3870573
  19.5886159  54.8857689  62.0099211  20.1838255  56.1080456  61.3445330
  23.7293506  12.6219475  39.3376589  24.1981363  13.0612028  40.0472546
  22.8090024  12.6623547  39.5975757  56.3033438  67.2390413  38.0780864
  57.1669531  66.8334103  38.1547713  56.4165545  68.1150103  38.4469891
  21.1472392  74.4006109  25.1839685  21.2025261  74.6006346  26.1184025
  21.9764876  73.9671040  24.9823523  26.2128425  43.3683586  10.1612318
  26.0382843  42.7829981  10.8981943  26.3432002  44.2272234  10.5632079
   6.6920704  56.3175631  43.8679981   7.4005508  55.8434916  43.4326363
   5.9563625  55.7052326  43.8641310  79.3236160  27.0240593  44.2136860
  79.0706396  27.5741625  44.9550486  79.2290878  27.5931883  43.4498882
  26.5452671  76.6011572   1.5325995  25.7419538  76.1397457   1.2917365
  27.0720720  75.9436893   1.9869575  45.3330612  51.4424515  11.1855340
  44.5725965  51.1082745  11.6611874  46.0861254  51.1120987  11.6754258
  27.8432751  21.7175412  50.1543093  28.2255006  20.9544206  50.5876446
  26.9084120  21.6621423  50.3522873  57.4172354  25.2106237   4.1049626
  56.6106987  25.6098890   4.4310156  58.0635309  25.3827715   4.7897258
  72.6895857  70.2052259  33.4634328  73.3120012  69.4785357  33.4360266
  71.9099092  69.8695993  33.0210686   0.3341505  61.8398285  43.9887190
   0.9304735  62.1089125  43.2899857  -0.2638033  62.5801611  44.0916157
  22.8694201  18.1547880  65.4131031  23.4624004  18.3811688  64.6966124
  22.9808784  17.2109616  65.5271149  72.5638151  19.1756868   3.4953338
  72.6917362  18.3237743   3.9126033  73.3054590  19.7022390   3.7935659
   1.0665736  69.1969442  61.8150711   1.0983197  68.3284760  62.2163010
   1.9517264  69.3381119  61.4792013   4.8770601  56.7619085  47.6054144
   4.0771660  56.2568474  47.4594212   5.5820680  56.1831951  47.3150921
   0.5822398  73.6036921  54.6441746   0.7902161  74.2439270  53.9636755
   0.2325191  72.8515148  54.1665173  41.9971466   6.9637817  39.2908812
  42.0012522   6.5740007  38.4166455  41.6587639   7.8490824  39.1568184
  24.8334098  14.6859503  41.3002205  24.0656137  14.7225881  41.8706417
  24.7105670  15.4101169  40.6864452  11.4054370  59.1124344  64.6956253
  10.8132148  58.5330629  64.2162180  11.0814047  59.9936199  64.5092010
  23.4260559  43.4286594  12.1878064  22.7942872  43.1429291  11.5279126
  23.3644605  44.3838501  12.1806049  54.5650673   4.0515354  45.7460451
  54.3552589   3.2689890  46.2557840  54.7444773   4.7242710  46.4029121
  25.4899907   0.0716269  25.4387665  25.7799578   0.8647106  25.8895087
  24.9274516  -0.3723989  26.0732937  21.7070007   7.8262842  47.6401281
  22.5904226   7.6063401  47.3444510  21.4771175   8.6120343  47.1441603
  42.5545692  31.2275267   3.9932340  43.3899879  31.2308073   4.4604594
  42.7889776  31.4043021   3.0821720  23.4238291  34.4461441  16.5372598
  23.9637780  34.5204949  17.3241270  23.9976215  34.7294140  15.8253968
  35.4644489  22.2468162  22.8816032  34.9189258  21.5860271  23.3082128
  36.0286999  22.5787807  23.5799241  79.4148159  77.5763845  47.6782942
  79.3045235  77.9821014  46.8183804  79.0983438  78.2352352  48.2963514
  33.2222080   0.1860393  51.2548447  33.3061790   0.5428971  50.3706312
  33.4082794   0.9274188  51.8310118  13.5735977  58.3111620  17.8224421
  13.9763117  57.4562025  17.6704717  12.6321483  58.1431150  17.7816534
  66.6151714   7.0184052  61.9291735  65.7325602   6.9628972  62.2954369
  66.9909716   6.1506158  62.0773172   2.4889430  46.5270376  59.6094847
   2.8260824  45.6949615  59.9414778   1.8361279  46.7959452  60.2558231
   6.1532080  25.9840441  14.8970628   6.0454816  25.8484936  15.8384728
   5.5551350  26.7016888  14.6884286  26.5240765  75.1517439  51.4721441
  25.6713486  74.7733164  51.2579536  26.9588637  74.4802999  51.9978428
  74.8359299  37.0044041  28.7914896  75.4113531  37.6407409  29.2159867
  74.0744591  37.5155473  28.5174036  38.6467147  24.2909455  63.6055899
  38.6927772  24.3726707  64.5581818  38.4443998  23.3677483  63.4539080
  20.9968615  74.7847939  18.7933600  21.6328812  75.4974699  18.8550174
  20.3591919  75.0880909  18.1471241  39.9299788  10.2156818  35.1702285
  39.6027589   9.9908990  36.0412216  39.9728942  11.1719203  35.1699162
  19.8515916  38.8478494  40.7172060  19.4665611  38.4162164  39.9545264
  20.6783319  38.3873677  40.8610392  34.6291852  10.7152891  23.3512044
  34.5515823  10.1568329  22.5776815  35.2144480  10.2341866  23.9362144
   6.0053873  12.6492310  56.5276098   6.2778842  11.8454123  56.9701624
   6.3490337  13.3535433  57.0772314  80.8486366   9.9784380  23.6076450
  80.0881863  10.5283821  23.7960792  80.9657001   9.4523740  24.3987131
  30.5602217   2.9984516  20.5277181  30.9401870   2.1391338  20.3448772
  30.1698828   3.2694474  19.6967971  68.6505556  73.0577612  47.4466658
  68.3682871  73.6834717  46.7795515  68.0064011  73.1493092  48.1487465
   5.0747234  76.1402607  58.5350800   5.2578956  77.0776367  58.4717989
   4.6242461  75.9285164  57.7174854   9.6807683  61.5295362  61.4159393
   8.9172906  62.0236158  61.7146349   9.8148042  61.8183565  60.5132532
  38.9842153   4.2850816  42.5833130  39.5535779   4.9840516  42.2616005
  38.1047177   4.5491633  42.3131752  53.4908962  78.2280016  44.0884829
  53.8519001  77.3891735  44.3753290  52.9208565  78.0043983  43.3527660
  73.1687021  27.1669698  41.9848251  73.4211493  27.2658062  41.0668182
  72.3302221  27.6235986  42.0531511  24.6520805  63.5536575   5.9447473
  25.1828694  63.0405760   5.3354508  24.1355872  62.9024267   6.4194703
  78.0744457  35.9425735  58.7837029  78.9581156  35.9242344  59.1511488
  78.1147957  36.6070461  58.0958939  82.2081757  14.5391262  53.0290270
  82.4122906  15.4320359  53.3070183  81.7430878  14.1569805  53.7732697
  31.8480134  44.5423889  33.5578823  32.2495651  43.7508202  33.1995416
  31.3510513  44.9106216  32.8273582  36.5717220   7.1761483  13.2695413
  36.4020705   6.5345407  13.9593172  37.3213792   6.8214327  12.7916062
   0.9181517  65.7903767  13.2680643   0.0579015  65.7842302  13.6877823
   1.3843083  65.0554085  13.6665034  17.6350081  23.4129643  27.1584129
  17.5633454  24.3025970  26.8125129  16.7294157  23.1380820  27.3018479
  77.2988892  46.8999338  30.7898736  77.9177761  46.6541624  31.4774823
  77.2678757  47.8559446  30.8260798  10.9792829  18.0982745  49.7015572
  11.5259957  17.7210152  49.0123415  11.4016294  18.9306808  49.9135828
   1.8001661  75.5823565  46.0399532   1.8812621  75.1719618  45.1790047
   0.8948379  75.8913469  46.0736752  15.9537506  64.0801620  64.8805237
  16.2242353  64.7806835  64.2869473  16.2293696  63.2750797  64.4422197
  80.9221935   6.3713413  52.6143932  80.6136894   7.2208846  52.2992229
  80.8702087   6.4363658  53.5679674  58.9104176  49.3129492  40.3956556
  59.4794178  48.9243603  41.0600901  59.4803524  49.9111605  39.9123907
  21.4402962  78.1783152  40.0441122  20.7249618  78.4797716  40.6041622
  22.1005750  77.8503847  40.6546259  31.8198562  32.1259332  41.2413836
  31.9678164  32.9249978  41.7471838  32.6983786  31.8108654  41.0288715
  68.1153154  43.9138603  12.1921670  68.5525084  43.8907290  11.3409579
  67.1817636  43.9322901  11.9815135  71.3734674   1.5070209  45.1070976
  70.9992170   1.9835365  44.3660831  72.2896576   1.7831405  45.1313257
  59.9852800   0.3706178  35.3847623  60.4723406   0.7891869  34.6749711
  59.1087389   0.7513997  35.3308249  68.0310154  40.6374454   7.7150100
  67.8766680  39.7004247   7.8350085  68.4608889  40.7020950   6.8622148
  66.6076756  74.5955229  62.6519060  66.3928366  75.5107641  62.4718761
  66.4423466  74.1434717  61.8245316   7.6744211  13.7395012  31.1130047
   8.1513560  12.9876184  31.4643407   8.2307965  14.0671456  30.4063725
  46.1265516   0.8770713  29.6734953  46.3001156   0.3140815  28.9190745
  46.3328886   1.7597839  29.3661261  26.6406679   1.3912778  49.6527386
  26.7323995   0.8419971  50.4312658  27.4898744   1.3304329  49.2152691
  77.2683907   7.2392952  34.9622297  77.3173380   7.3580819  34.0136909
  76.3351822   7.3067993  35.1642251  77.4275637  28.1564522  66.5970659
  76.5786123  28.5660863  66.7635250  77.7636528  28.6079288  65.8228302
  33.6411119  48.4454155  15.1118708  33.2904100  47.5659132  15.2522755
  33.4433031  48.6386728  14.1954887  83.7247181  65.8144569   1.2936494
  84.1964817  65.1643038   1.8142045  82.8034019  65.6727028   1.5111478
  32.5978851   5.1265061  44.5784807  33.2801390   4.8980567  45.2098036
  32.5269222   6.0792893  44.6367979  12.5272858  75.4564047   3.4939823
  11.7339730  75.7795763   3.9211211  12.2077477  74.9462318   2.7497691
  53.8206005  74.0879726  61.6442442  54.3649483  73.5046101  62.1730137
  54.0128708  74.9638557  61.9790411  45.1305962  26.5310788  45.7020473
  44.8874807  27.0324349  46.4803600  45.4025745  25.6784773  46.0416508
  55.6684971  23.7892270  46.2243128  56.1034393  23.4280610  46.9967270
  54.7404718  23.8066149  46.4582014  72.6249599  33.1209517  61.3612080
  72.8338623  33.4068084  62.2505188  73.2884550  32.4611187  61.1596489
  48.1975889   1.4585342  26.7879224  48.8292933   0.8820033  27.2177982
  47.3542500   1.0221323  26.9086075  59.4677687   6.7136544   8.8041770
  59.8605347   6.1558294   9.4755948  59.5589161   7.6023954   9.1477829
  36.0571146   9.7237396  58.3995676  35.7893014  10.5682659  58.7618971
  36.9168591   9.8906422  58.0132866  16.6305935  14.9365699  34.3648624
  17.2349918  14.2159212  34.1871047  15.9095538  14.8016548  33.7499380
  66.1540270  27.8672528  51.8207502  65.9388494  27.7837372  50.8917952
  66.7266273  28.6329603  51.8660688  31.2714648  18.9869070  19.7804070
  31.6651750  18.6235332  20.5736184  30.9997320  18.2206309  19.2752194
  21.5750599  13.5086870  16.7068613  21.9853258  13.0913305  17.4643099
  22.2366285  13.4564340  16.0170603  56.7945862  76.5899038  61.8941927
  57.3007822  76.8088865  62.6765251  55.9572744  77.0369673  62.0177794
  51.9613228  57.3624007   0.3593761  51.1422787  56.8670265   0.3582889
  52.5620733  56.8330864  -0.1651781  68.6904907  45.0976419  14.6710944
  68.8940001  44.2119217  14.9716282  68.2395124  44.9696922  13.8365436
  24.3875670  13.8657272  64.4086647  25.1072049  13.3431697  64.7626257
  24.7748089  14.3388867  63.6721897  77.1688175   9.7252220  47.8087997
  77.3014641  10.4463029  47.1934319  76.2224913   9.7026181  47.9508829
  15.1418388  20.6514668  66.5586281  16.0603046  20.6468844  66.8281269
  14.6943212  21.1509895  67.2415876   0.2167531  62.5948524  36.7659473
   1.1416964  62.4681616  36.5546131   0.0247460  61.9187307  37.4157357
  18.0974627  19.4154370   6.9020265  18.6540842  19.3451047   7.6775640
  17.2466397  19.6922636   7.2421718  17.1772039  69.7775602  23.3705759
  16.5925038  70.5345774  23.4063792  18.0495322  70.1539850  23.2540512
  36.3808203  75.6040573  18.6661172  36.6839147  74.7652674  18.3185482
  36.7745042  76.2586594  18.0892813  36.8439317   6.4320326  32.4834251
  36.5433574   5.8626878  33.1917572  37.5730467   5.9556913  32.0862818
  18.1028366   3.7038395  19.6100509  17.7620018   3.5575333  18.7276351
  17.6747644   3.0361283  20.1459122  43.9500618  15.4938650  30.3069186
  44.5193815  15.8390367  29.6191978  44.0573120  14.5442533  30.2524543
   4.1559878  75.8585119  33.5634494   4.9157640  75.3500032  33.8469815
   3.6213332  75.9502506  34.3520927  52.8777218  77.7182722  59.4687700
  53.5480976  77.9162121  58.8148212  53.3422518  77.7498388  60.3050995
  34.2578125   3.4511957  67.5602627  35.1934385   3.5085726  67.3664951
  34.0602732   4.2617095  68.0295992   0.4055752  71.5735531  44.7328234
   0.8971944  71.9842625  45.4440641  -0.1795466  72.2622299  44.4172525
  68.0636835  54.3014431  28.0966687  67.7330542  55.1530552  28.3824492
  67.5640965  53.6661625  28.6095595   4.8266754  21.7520142  43.3700657
   4.0510395  21.2477326  43.6156654   4.9441063  21.5717578  42.4373531
  14.7334230  70.0781012  43.5380983  15.1510632  70.8735847  43.2079315
  13.7967932  70.2286768  43.4104872   4.8340032   8.9737666  24.5281458
   4.4197023   8.2695752  25.0268459   5.1929247   9.5599478  25.1943278
  43.9159632   8.4017408  53.0897570  44.5460701   9.1199374  53.0315256
  44.0101242   8.0723798  53.9835596  25.0027943   2.1147728  35.5458713
  24.9082851   2.0040721  36.4919376  25.3066802   1.2622973  35.2341485
  44.5932388  10.2215111   7.1828133  44.9544334  10.8937371   6.6049862
  45.3314734   9.9546224   7.7305478  43.4847069  66.2021017  42.7115870
  43.1138229  65.8536434  41.9008780  44.1326904  65.5499935  42.9782295
  76.6819382  17.4472928  25.0588417  77.3507786  17.4756348  24.3746758
  75.8586931  17.3317182  24.5843458  11.2121272  18.7422240  33.9356899
  11.6747940  18.0178297  34.3569088  10.4252136  18.8648736  34.4666862
  40.5223274  17.9076254  41.3958216  40.7043982  18.0491507  40.4668140
  40.2216101  17.0002449  41.4454365  21.6457605  10.0430787  58.0794239
  22.0769596   9.7581571  58.8851023  20.8260345  10.4399884  58.3739471
  46.1464119  16.6880274  51.1035872  46.0109806  16.1530542  51.8856955
  45.7035971  17.5139093  51.2986898  61.8135738  17.4346173  45.1958323
  62.3150158  17.1649206  44.4263840  61.5882921  16.6142321  45.6345272
  17.3684335  26.0869408  36.4249635  17.8500438  25.9737492  35.6055284
  17.0327222  26.9823909  36.3837433  50.8172703   9.1332603  49.0859127
  50.8921766   9.5528907  49.9429607  50.3335238   9.7635448  48.5520887
  71.5687084  74.9852848  48.2470655  71.2619638  75.0879049  49.1479588
  71.8783617  74.0807247  48.2010508  14.9957013  26.3267040  39.6104360
  15.4157746  26.1884022  40.4593420  14.0704763  26.1382341  39.7675037
  24.8632574  10.0604331  13.4391260  25.6950831  10.5330312  13.4699667
  25.0877810   9.2038608  13.0756629   4.1084987  76.6341972  46.8499994
   4.0447280  76.0228205  47.5837469   3.2276323  76.6520262  46.4758492
  20.3168344  70.4394627  40.1476526  19.9097979  69.6293402  40.4546595
  19.5952535  71.0664940  40.0988054   2.7929050  71.2986135  37.3452783
   2.4083671  70.7768822  38.0496669   2.0803648  71.8660450  37.0511031
  50.1040554  22.5985169  51.5607977  50.5205536  23.1982613  52.1797228
  50.7782793  21.9469881  51.3680077  11.2659705  38.3151340  49.6612453
  11.7244422  38.7926316  48.9698505  11.7845380  38.4779668  50.4491568
  24.5964241  17.1045101  39.8022175  23.9488769  17.4314344  39.1776896
  24.3280029  17.4764836  40.6423473  27.4235439  15.5317664  39.4089341
  26.6420794  15.4651082  39.9576592  28.1321907  15.1995075  39.9599838
  65.9026337  58.4509420  25.1094627  64.9991989  58.7251043  24.9517679
  66.3508272  58.6143112  24.2796040  70.8197689  24.6476316  63.7469769
  70.8406544  25.5933475  63.8933086  71.5812540  24.3148899  64.2220068
  47.7446222   1.2950927  41.6427517  48.5887957   1.6753486  41.8856764
  47.1010256   1.8101218  42.1293259  74.1321898  44.0041780  24.3095660
  74.1269779  43.9396143  23.3545613  75.0597000  44.0512991  24.5413828
  11.5125346  17.4283636  54.2658854  10.8486915  17.9368401  54.7317123
  12.2648621  17.4176097  54.8575974  53.0065918  64.4034290  57.5848246
  52.3446178  64.0435648  56.9944715  53.4415340  63.6348152  57.9539967
  25.4235482   8.7578368  52.2499609  25.2971220   8.0003059  52.8212738
  25.0151944   9.4840491  52.7212334  80.5613136  12.1214223  26.5549564
  80.5101109  12.9167628  26.0248208  81.1079788  12.3660636  27.3016405
  60.2704430  13.7679493  44.1667795  59.4039345  13.3616602  44.1848087
  60.1500368  14.5661974  43.6524487  53.0146933  34.4353199  45.9594536
  52.7780628  34.7090769  45.0732851  52.2429991  33.9684534  46.2800074
  50.4570198  75.4975510  42.2066116  49.7977495  74.8853397  42.5334024
  50.6666565  75.1778603  41.3290691  24.1787434   6.1632848  35.4670286
  23.5647678   6.6191721  36.0427332  24.3815255   5.3499234  35.9291482
  46.7030954  13.2593000  31.3641596  46.6158724  14.2067301  31.4690471
  45.8615494  12.9797387  31.0037708  33.5256743  17.7557635  61.5499115
  33.8865161  16.8712342  61.4896250  33.0824852  17.7763462  62.3980808
  17.3313308  63.2111263  42.4547434  16.7949724  62.4571896  42.2095203
  18.2226276  62.8654432  42.5029755  62.6615667  67.0666409  36.8239594
  62.9182386  67.3612070  37.6977921  63.2005024  67.5867891  36.2279534
  14.1524243  79.1625166  16.7218447  14.2514312  78.9959526  15.7844615
  13.7379551  78.3702040  17.0634305  21.0359788  78.0253601  65.4575586
  20.4427528  78.0855131  66.2063551  21.8728089  78.3519745  65.7881165
  31.2967396   1.2261997  31.4200258  31.4499068   2.0610803  31.8624568
  31.3290215   0.5745269  32.1203923  53.1388569  25.4998803  12.2946382
  52.6132536  25.1534581  13.0157232  53.7264681  24.7816372  12.0599580
  13.7102246  78.0422449  67.5085974  13.8747203  77.8347588  66.5887451
  14.4606709  77.6741791  67.9750586  48.1227160   4.1314754  48.5096645
  48.2877398   4.2497945  47.5742483  47.1822166   3.9631099  48.5675383
  35.9715390  22.3006463  47.8711367  36.9111991  22.3062277  47.6888180
  35.5956316  21.7621803  47.1747303  69.1803122  73.3922195  40.8948851
  68.8841438  72.6451206  40.3749228  70.0853968  73.1809425  41.1238384
  60.8154154  53.1269646   4.8382971  60.8441734  52.4601173   4.1522098
  61.7327404  53.3547878   4.9894667  77.0760441  22.3279715  49.0018368
  77.8069878  22.8249359  48.6344385  76.3487005  22.4928594  48.4018278
  26.2524080  29.1432548  35.3588438  25.9526014  29.1827726  34.4506645
  27.0427084  29.6830964  35.3738809  34.2135501   6.7583340  35.2504277
  35.0317526   6.4486766  35.6388736  33.8677216   5.9981710  34.7826815
   9.3044245  51.7665100  66.1509943  10.2537942  51.7939234  66.2700653
   8.9689690  52.4372673  66.7457962  44.6898222  30.8842230  47.3564434
  43.9871836  30.5578709  47.9186058  44.2552280  31.1020088  46.5318632
  64.1408491  16.3430786   0.7279462  63.2274628  16.3224328   1.0134813
  64.5784426  16.9071114   1.3656074  54.2608690  37.0566702  67.7375507
  53.6597157  37.3007703  68.4413004  54.0803576  36.1301160  67.5789690
  64.7851610  27.7971625   1.1985543  65.6133175  27.5977230   0.7619681
  64.5579433  28.6749125   0.8917008  36.4877439  28.7195301   5.0937068
  36.4460778  29.1929150   5.9246111  37.3498559  28.9352679   4.7381076
  15.6873035  77.0286226  33.2350469  15.3484035  76.2034082  33.5820341
  15.9050596  77.5436735  34.0119219  22.5547624  41.9067812  54.0678787
  22.0548296  41.7990446  54.8770046  23.2777214  41.2846231  54.1483831
  58.6963081   7.3566949  63.3559084  59.4896793   6.9468224  63.7005806
  58.9531708   7.6903915  62.4963188   9.6635813  36.3741493  32.8269482
  10.2167583  36.6864824  32.1109366  10.1830184  35.6906271  33.2502866
  73.8859034  75.5079985  16.4075983  74.0361547  75.4973888  15.4623234
  74.6782970  75.1215410  16.7804205  56.8698263   3.2203004  29.0956736
  55.9358215   3.3604562  29.2512941  57.2397184   4.1018832  29.0485287
  28.3245611  47.7444792  50.6743813  27.4543691  47.3814392  50.8393002
  28.4894919  47.5605488  49.7496128   1.3286184   8.6476219  64.5965767
   0.4368576   8.8760006  64.3342066   1.2269863   8.2288110  65.4512691
  40.8367395   7.8710902  25.4926038  41.3604975   7.1776360  25.8938885
  40.3933334   8.2927513  26.2286901  75.4473782  77.5748777  13.6964977
  75.2904510  78.5149145  13.7855721  76.3537931  77.4554396  13.9800060
  31.6151738   1.6798858  35.2115679  31.5973544   0.8175664  34.7964549
  30.7372832   1.7877319  35.5775070  58.8653708  13.5140884  35.0217366
  59.1461992  14.2743063  34.5123863  57.9104137  13.5771823  35.0394988
  32.0716381   3.7502044  32.2741890  32.4822593   4.4240880  31.7324281
  31.1967087   4.0916637  32.4589562  17.5820971  61.8957853  13.7211442
  17.3977733  62.3500872  12.8990328  17.4648607  60.9686565  13.5139632
  44.0512037  19.1219914  34.9638319  43.6612368  19.9823332  34.8090148
  43.7555170  18.8793862  35.8412957  30.9357595  17.0563734  50.4285145
  31.2528014  16.4707923  51.1161280  30.5544925  16.4720094  49.7732401
  46.0816288  10.1244640  35.0867677  46.2554789  10.8008325  34.4321418
  45.7902670  10.6083429  35.8595562  80.6451511  69.6749258  48.0093145
  80.7766342  68.9162827  48.5780001  81.4944839  70.1162243  47.9984999
  16.9841003  46.7192507   9.6143478  17.4350202  45.9193373   9.3440843
  17.3595595  46.9285488  10.4696000  42.3891926  10.9315825  47.0845842
  42.5108719  11.8402755  47.3597288  42.9014015  10.8544207  46.2796497
  38.3931661  38.9684153  27.0214176  38.5996652  38.4865665  26.2205338
  38.3004975  39.8776031  26.7367744  32.7137446  33.2730699  58.4659290
  33.0313849  33.3831382  59.3621540  33.4772778  33.4530115  57.9174089
  49.7334433  20.4622674  19.3201542  49.3479204  19.5881939  19.2601371
  50.1475382  20.4826760  20.1829052   6.5431178   7.9337311  42.6413202
   6.0714686   8.6525095  43.0621958   6.0159886   7.7196014  41.8715668
  14.3171191   6.3965887  54.8268604  13.3674026   6.2785840  54.8083019
  14.6371305   5.6781155  55.3724051  41.7883348  75.7848310  62.5951099
  41.4558601  76.6786861  62.6770163  41.9352293  75.5003262  63.4971714
  33.9066839  38.0036306  23.0354810  34.5152593  38.0831075  23.7700224
  34.4071531  37.5490379  22.3579073   8.9543259   3.2394409  47.3722982
   8.8725990   4.1777802  47.2017908   9.8677474   3.1220984  47.6332998
  33.0661988   5.4547024  38.1809640  32.8394127   5.4546660  37.2510195
  33.1310225   6.3814241  38.4116507  77.2603083  73.9114714  29.8161483
  76.4089394  73.9417219  29.3796945  77.5132227  74.8296928  29.9117184
  65.1959467  21.0415936  38.5023475  64.3244886  20.6458282  38.4896803
  65.5856419  20.7365680  39.3216944  48.9013481  22.0636153  63.4893084
  49.2531538  21.5901899  62.7354288  48.7382412  21.3844514  64.1438055
  42.9774284   7.3117751  67.9437208  43.6287498   6.6298282  67.7795267
  43.4111452   8.1246734  67.6842642  18.7283170  26.2357759  15.1504827
  19.0397680  25.7472658  14.3885195  18.8338244  25.6291866  15.8833873
  74.9827433  78.0461168  57.3085594  74.6595526  78.1822109  58.1992102
  75.9280300  78.1819963  57.3734093  23.5246682  76.6150618  12.0073462
  23.3349371  76.2927580  12.8884566  22.8901505  76.1681843  11.4470577
   8.9106768  11.1516356  12.3608506   8.6809450  11.0953414  13.2883668
   9.6689862  11.7352676  12.3369181   9.1963470  33.0664945  33.2785058
   9.2400968  33.7893915  33.9043975   8.2937974  33.0797601  32.9599786
  36.7910004  12.5918341  60.7489967  36.4671922  13.4622478  60.9808588
  37.6142907  12.7571118  60.2895355  41.2063932  21.8072438  17.0776463
  41.4887190  22.7131629  16.9518101  40.2561998  21.8347049  16.9653738
  49.0221071  26.6836143  47.1530199  48.5566139  25.9271765  46.7961550
  48.6690855  27.4313855  46.6708899  36.6578054  17.3542821  66.6071606
  35.9855962  16.8493962  66.1494923  37.4612045  17.1846426  66.1152220
   5.2507490  73.5641766  56.5581083   4.9922758  74.3910789  56.1510992
   5.0108492  72.8959465  55.9161234  43.6682177  32.5092793  55.1274681
  44.3608856  32.9245925  54.6136904  43.3015156  33.2198167  55.6536770
  14.1633642  62.5240517  60.5692863  14.9141371  62.8044128  60.0458670
  14.0464938  63.2222080  61.2136078  31.3839650  39.9196100   8.9604843
  31.7444992  39.3506217   8.2804114  31.5924644  39.4735479   9.7813308
   1.0293263  24.9706984  46.3614988   0.2362401  25.2515912  45.9050465
   1.4904153  24.4233966  45.7258177  21.2971854  27.1574926  46.7934752
  22.0377088  27.4569511  46.2660456  20.5621243  27.6971817  46.5025282
  33.5965586  61.3864040  40.9574986  33.3926725  61.8855619  40.1666117
  32.7554417  61.2917662  41.4044857  34.2759752  38.2954431  43.4973240
  34.1206455  38.0139422  42.5957394  33.7813377  37.6735497  44.0310049
  66.2550545  78.6933517  46.7726707  66.3519096  77.9670429  47.3885679
  65.5408955  79.2191792  47.1328306  42.6699638  24.6077180  47.5108576
  42.4410963  25.5291963  47.3894882  43.5865498  24.5510149  47.2408867
  28.3291531  35.1078916  39.8943138  28.5234690  34.3255973  40.4105425
  29.1879606  35.4570484  39.6560550  26.8722868   0.2245720  51.9398928
  27.3414683   1.0128985  52.2130966  27.1035862  -0.4317030  52.5971842
  39.4697571   3.1042182  38.8333416  39.2338085   2.3082680  38.3568716
  40.1410103   2.8214905  39.4544029  41.2210608  14.1647947  19.4044626
  41.9833565  14.7370732  19.4918334  40.7206821  14.3080580  20.2077889
   0.5314771  69.2642975  47.9814625  -0.1463434  69.9179173  48.1534338
   1.2588163  69.7650194  47.6120186  32.9743314  54.1075325  35.1687789
  32.0697784  53.8035631  35.0938416  32.9348207  54.8228312  35.8036160
  38.2808447  76.8109131  38.1093216  38.3734393  77.4392939  38.8254166
  37.3354006  76.7011595  38.0077267  37.8768778  25.7543159  47.6584578
  38.5852098  25.4904127  48.2457018  38.1324315  26.6238761  47.3505783
  38.8246536  34.2837524  39.4330144  38.5368037  33.6815906  38.7468839
  38.0216336  34.5183444  39.8981547  18.0904198  30.6380820  62.0153475
  18.3772779  30.2135825  62.8238916  18.3790135  30.0476384  61.3194180
  62.8696442  17.9896748  36.1453319  63.8117266  18.1393433  36.0659266
  62.6001930  18.5429084  36.8785167  46.1526918  14.2745614  49.5184994
  46.1959791  15.0851917  50.0256824  45.7344055  14.5287478  48.6959028
  19.9065292  24.0927148  17.4854445  20.7373810  23.6174440  17.4912512
  19.3330801  23.5658145  16.9288814  53.8785601  26.9992661  59.9090290
  53.6768866  27.6739359  60.5573940  53.6075020  26.1801314  60.3234816
  54.1973400   3.1369445  29.5848489  54.2960882   2.8948599  30.5056500
  53.2688904   3.3502489  29.4915152  29.0706468  65.6209230  11.5195644
  28.9629340  65.7843208  10.5825841  28.2191658  65.2890062  11.8042469
  33.8853097  27.0604992  26.2280607  34.6260381  27.1681213  25.6314278
  33.4129310  27.8913736  26.1757326  62.1668148  21.3556910  56.9235516
  62.9726648  21.8015194  56.6626310  61.8079472  21.0114527  56.1056566
  53.8418388   7.2359943  65.7366943  54.7629023   7.0763141  65.5308247
  53.4824800   6.3672036  65.9163952   9.3603939  58.1329775  48.0958223
   9.7517395  57.5378942  48.7353182   8.7819391  58.6935329  48.6129284
  29.5010090  10.7752872  62.1388292  29.9818039  11.2257338  62.8332090
  30.1723695  10.2917576  61.6574717  36.9953108   9.1773415  65.0433922
  36.6663074   9.8574156  64.4556141  37.0378351   8.3907801  64.4995689
  39.0264511  20.9599996  34.2450476  39.8355842  20.9724927  33.7337971
  38.5610318  20.1820159  33.9378667   3.6583236  48.5396910  29.1494203
   3.8488048  49.3188143  28.6270070   4.5165247  48.2290792  29.4379354
  17.4143064   1.8063350  63.8680506  18.0842555   1.4834146  64.4706440
  17.7209485   1.5368520  63.0022669  12.6287866   9.1526335  43.5449839
  13.3844101   9.1705644  42.9576635  12.5635469  10.0473940  43.8787174
  26.4038754  17.7530777  45.8146381  26.1014009  16.9352949  45.4197073
  26.4265871  18.3758795  45.0881195  66.6161823  66.1847830   0.5670623
  66.9747210  66.4653540   1.4090610  66.1862230  66.9653893   0.2177505
  11.0530460  57.9639626  34.1043043  10.9204018  57.2376347  33.4951329
  11.8636250  57.7457809  34.5642948  70.6674051  64.9233770  59.5272779
  69.9779129  65.2213478  60.1206112  70.8783245  65.6934118  58.9992714
  53.5273266  18.3370912  62.9034567  52.9686117  17.7020872  63.3516073
  53.8509560  18.9061952  63.6017513  49.1075182  62.2423792  31.2487316
  48.3153629  61.7592144  31.0136414  48.8568592  63.1632996  31.1758518
  30.9684372  56.6335630  50.6425381  30.7360721  55.7079744  50.7169056
  31.5904331  56.6667080  49.9157286  34.9032235   5.5495787  55.8448029
  35.5602789   6.2390321  55.9405375  35.3921676   4.7974396  55.5109596
   5.9060383  52.7611303  56.6147041   5.9397787  53.6704683  56.3177204
   6.3937479  52.2740078  55.9505653  42.6463175  57.7755213  14.8307288
  42.2586584  57.1471262  15.4398859  43.5592127  57.4991608  14.7502327
  70.2354622  56.6460133  30.6478763  70.8593130  55.9492922  30.8518982
  70.7750130  57.3567724  30.3015518  33.6497188  49.9383974   1.5141875
  33.9801812  50.6750011   0.9999530  33.2551169  50.3433704   2.2865327
  14.0292811  38.6396265  58.7488604  13.2295048  38.7593889  58.2367611
  14.1411078  37.6903534  58.7999010  13.3364952  49.5891142  64.2219877
  13.8042021  49.4640303  65.0477219  13.3093584  48.7173367  63.8276529
  52.3578978   3.2868087  53.0907583  53.1330299   3.5680833  52.6046658
  52.1269274   4.0422943  53.6312485  73.5624838  46.0728216   1.1382400
  73.1836271  46.2932396   1.9891888  73.8268948  46.9151449   0.7683568
  21.3611794   1.9582210  15.7423353  21.2010050   1.2666652  16.3844609
  20.7546473   2.6572099  15.9868002  12.8118539   5.6752926  65.3999901
  12.2274935   5.2756971  66.0442543  12.2245979   6.0432482  64.7397089
  50.5345583  33.2756782  46.2808800  50.1597309  33.6723781  47.0672464
  50.5186224  32.3348379  46.4563704  34.3764949  35.9467244  41.5502024
  35.2010083  36.4318490  41.5828800  34.3968034  35.4965115  40.7057333
  32.0054245  42.0510626  32.3793268  32.1175528  41.4977455  31.6063452
  31.1678576  41.7753792  32.7517629  49.8859501   3.1232002  36.1328626
  49.4071865   3.9353561  35.9672689  49.5069170   2.4926254  35.5205393
  48.7383032  58.5411930  13.3369172  48.2968330  58.9113855  14.1013074
  48.3830643  57.6556301  13.2607019  38.2099700  43.2714128  63.9714670
  37.9719448  42.6879835  63.2509184  37.5672126  43.0823088  64.6550846
  44.9403572  11.5588629  60.0675106  45.5217266  10.8478785  59.7978020
  44.8561335  11.4529884  61.0151005  36.6262746  13.7224126  44.2613697
  35.7314301  13.9611650  44.0195322  36.6942215  13.9548564  45.1874304
  76.4589882  16.2407589  52.2529030  75.8116770  16.1588657  52.9532671
  76.2255239  15.5530632  51.6293669  60.4685545  52.2632217  11.1576128
  60.8161783  53.1069374  10.8685982  59.7278690  52.0969391  10.5745459
  46.6564989  75.7664299  36.0393858  45.9870768  75.5841255  36.6988301
  46.2027550  75.6640434  35.2028084  70.4594088  59.9421215  58.1778860
  70.0504875  59.1508245  57.8273678  69.7404051  60.5692768  58.2549524
  48.0052948  23.3726215  45.5342245  48.2168579  23.0739689  46.4186907
  48.8509560  23.4181976  45.0881243  32.7085447  22.9145718  24.7442961
  31.9772816  22.8364086  25.3569746  33.4825134  22.9859042  25.3029704
   5.2465975  60.5391645  62.8374243   5.0300974  60.8103991  61.9453526
   5.5600834  59.6395111  62.7448034  80.3187180  17.7212679  37.8305984
  80.7239723  17.9954076  37.0078874  79.4022131  17.9838991  37.7453279
  37.8394437  24.2630601  37.2604394  38.0740786  25.1417422  36.9619489
  38.1082892  24.2423511  38.1788754  79.9861670  16.4621282  62.8376055
  80.0248337  15.8218145  63.5480547  79.3159580  17.0869327  63.1145048
  48.8675880  21.0911131  42.5751591  49.6844769  21.5039206  42.8553534
  48.3473873  21.8094802  42.2151947  58.7815952  40.0252295  43.0188274
  58.3032179  39.2276716  43.2452965  58.6423492  40.1289082  42.0775032
  54.1230488  37.8771734   4.1659611  54.5601702  37.5392747   3.3843064
  54.8312378  38.0183506   4.7942683  78.3204269  13.2798147  66.3667965
  79.0572166  12.9080307  66.8517208  77.7126789  13.5759115  67.0444345
  63.6015987  23.4636879   1.8730928  64.4230843  23.7494731   2.2727409
  62.9523897  23.5517073   2.5709563  80.7806301   3.6549866  27.7664828
  81.0664654   4.5139748  27.4555612  80.3712654   3.2479462  27.0029593
  41.4717770  17.0659983  29.0638137  42.0499563  16.5450966  29.6211290
  40.6004238  16.9413197  29.4398856  66.5857744  57.9636383  39.0703130
  65.9701729  58.0104494  39.8018026  66.8213272  57.0375586  39.0143943
  28.2743955  20.8370733  33.1919646  28.7038517  21.0728073  32.3696327
  28.5295415  21.5288806  33.8023233  54.3611145   5.4576820  57.6569891
  55.1207876   5.5773389  57.0870686  53.6658049   5.9657872  57.2391272
  12.2862065  34.7366071  26.7846751  11.9422507  35.2429819  26.0488009
  11.8840635  35.1335216  27.5573158  52.1335077  26.5187740  53.1773901
  52.8359699  27.0637441  52.8227234  51.5827608  26.3159037  52.4212503
  73.8064480   6.5466499  45.5999327  73.2053614   6.8405217  44.9154091
  73.2403183   6.3421273  46.3441753  25.4664159  20.3650570  28.9678955
  24.9936867  20.2865314  28.1392860  26.3197994  20.7233381  28.7237597
  56.1442995   5.4591012  38.9676690  55.4965544   5.4491299  38.2630014
  55.7709217   4.8942238  39.6442270   4.2451641  71.2980747  27.1913671
   3.7841907  71.9943380  26.7234397   3.7694031  71.2087870  28.0171466
  19.0062475   4.5836848  50.3493357  19.1090584   5.4549003  49.9663925
  19.6333265   4.0379533  49.8748016  74.0706539   1.5275840  39.5687079
  74.6772051   0.7927350  39.6599531  74.6337748   2.3011968  39.5431566
  77.8802013  74.6604919  61.9291878  77.9479551  75.6035471  61.7799187
  77.8526974  74.5701313  62.8817177  75.6484509  51.6206741  51.0646629
  75.7647371  51.6403961  52.0145702  76.4915037  51.9081163  50.7141399
  68.0525494  29.8923111  50.9983635  68.6936951  29.6430659  50.3327465
  68.3990717  30.7019401  51.3734055  62.2660303  17.8687763  62.9240227
  62.5495720  17.1106589  63.4349966  62.5646973  17.6828873  62.0338154
  27.8658366  23.2784629  10.5263460  28.1493235  24.1695189  10.7310033
  27.3547053  23.0085492  11.2893152  36.7859221  17.3901331  39.1739821
  37.6839304  17.0627749  39.1225195  36.8172550  18.0707288  39.8463202
  41.8890572  23.8090611  43.6704016  42.5009918  24.4761276  43.3592939
  41.5020561  23.4483504  42.8726864  69.5837975  16.5785539   8.0016989
  70.0990343  17.3692799   7.8419644  70.0958681  16.0842466   8.6417550
  20.0920439  72.4777031  32.8336310  19.5061600  71.8724203  33.2881665
  20.9686399  72.2265863  33.1247520  70.4115200  71.2939024  19.4855845
  70.5697298  70.3938007  19.2009449  70.4714203  71.8127918  18.6834645
  79.7382545   2.7305943  62.8752613  80.1006603   1.9919063  63.3643770
  80.0127125   3.5029396  63.3696175  34.3696713  19.9429512  30.7264924
  35.2475142  19.7223723  31.0378933  34.0277052  20.5491161  31.3836503
  57.1865416  50.0251865  38.2791662  57.7485847  49.6647787  38.9650559
  57.2959328  50.9732103  38.3534193  28.9630890  18.5394037  25.5753231
  28.1844974  18.5475576  26.1320639  28.9642334  17.6686156  25.1778841
   0.1550641  58.1272268  23.2363248   0.7814493  57.7344370  23.8442612
   0.6545570  58.8067961  22.7836347  34.9518657  40.8198833  65.6012583
  35.8153772  40.4987812  65.3414965  34.5417380  40.0751638  66.0410547
  37.8031874  25.1971769  58.4658146  37.4583077  26.0154271  58.8232470
  37.3201013  24.5117521  58.9273930  -0.1017740  73.8227320  33.0825114
   0.8525301  73.7768078  33.0239773  -0.2685333  74.3946171  33.8317609
  40.0381708   7.6733321  51.1050034  40.3309059   8.5010004  50.7235575
  39.2370296   7.4593347  50.6268740  71.7688322  24.7874570  33.4809136
  71.7278719  23.8494301  33.6670828  70.8832550  25.0142002  33.1970644
  48.8282394  10.1691616  35.9941530  48.3084869  10.3573442  35.2126956
  48.1984091   9.8125464  36.6205525  48.2099628  35.9387970  42.9576683
  47.2927237  35.9376240  43.2313442  48.3642483  36.8287778  42.6408672
  41.9487762  13.4878266  57.7386522  42.5636482  14.1589475  57.4424124
  42.3783636  13.0859470  58.4937572  69.9268198  68.3414507   3.7354133
  69.0891838  68.2124424   3.2904953  69.8487520  69.2014837   4.1483015
  46.5860033  15.9031272  31.9094348  46.1504316  16.6384554  32.3404837
  46.8527365  16.2487030  31.0575771  49.3244410  28.5800266  61.7322636
  49.5986366  29.4931340  61.8176174  48.4210825  28.5706472  62.0486259
  32.8672481  24.7662544  42.4592018  32.8873849  25.0332808  43.3781815
  32.5553036  25.5409455  41.9914627  22.2681618  18.2841885  57.0198870
  22.2977185  18.2453620  56.0639334  21.9802046  17.4110603  57.2862720
  47.3391199  12.5862765  45.1995230  47.9208326  11.8643904  44.9613571
  47.9292774  13.2938397  45.4589415  61.8859863  65.0439692   5.2884775
  61.7604876  65.9015656   5.6946939  61.1613894  64.5135880   5.6199580
  76.3370371  43.8744736  35.1626539  76.5554523  43.6074257  36.0555220
  77.0444489  43.5170650  34.6259403  35.0626254  29.8466825  42.9624748
  34.9227619  29.7364473  43.9029646  35.4644060  29.0243816  42.6820755
  30.1667833  29.9960375  28.3323574  29.2831898  30.0996447  28.6855674
  30.0963211  29.2617226  27.7224016  43.3673191  48.7055779  18.1939375
  44.0922499  48.3061171  18.6747038  43.2285547  48.1260920  17.4448240
  79.8415184  22.3281860  15.2778375  80.1836205  21.4343524  15.2616429
  80.5698299  22.8689623  14.9722898  60.5935335  22.4040937  30.5225873
  60.8579063  23.3096123  30.3601909  59.7220325  22.4751925  30.9120274
  61.9004583  15.0164914  46.7967749  61.0525513  14.6614349  46.5298986
  62.0510483  14.6482038  47.6673603  12.8027701  22.2695494  24.3112016
  12.4421906  23.1487298  24.4263315  12.0367551  21.7129993  24.1708279
  60.6268024  71.5702677  27.5753021  59.8562098  71.1486864  27.9556823
  60.8862925  70.9923363  26.8577409  52.4689817  16.1908305  47.2326803
  51.8208647  16.8952155  47.2286701  52.7865410  16.1524081  46.3305092
  33.9629483  19.5985353  20.4636669  34.0702820  18.7610042  20.0128317
  34.7665668  19.7007966  20.9735417  48.7523317  14.6862614  46.2359619
  49.5287752  14.6423185  45.6778955  49.0749121  14.4755173  47.1121788
  27.6990628  17.0620942  55.9047508  27.1965408  17.5169730  55.2288914
  27.9155016  16.2157750  55.5134344  21.1124229  10.4378104  30.4462838
  21.3267350  10.4312241  31.3791609  20.9542489   9.5187914  30.2303767
  74.9931192  22.2963023  39.3901706  74.6126509  22.3251557  38.5123086
  75.7837486  21.7658782  39.2912340  75.4450989  30.4100823  34.7129107
  75.3836679  29.8523569  35.4884100  76.3806581  30.4397130  34.5127010
  73.5288286  41.4158201  45.9862661  72.5949860  41.4631176  46.1910439
  73.5633612  41.0192490  45.1157713  80.7848835  74.2538929  54.9614716
  81.5511417  74.5995903  55.4192495  81.1372089  73.5807753  54.3792248
  51.5050983  37.6876235  44.3790674  50.7317114  37.6052308  43.8211060
  51.2868977  37.1884370  45.1661110  58.0544424  19.1415024  42.7068520
  57.3043394  19.1329801  43.3014154  58.8063049  19.3179965  43.2723427
  25.7161117  69.2447615   5.8990252  25.7322621  69.7651339   5.0957894
  26.1913610  68.4444952   5.6755567  65.9571886  14.7737384  41.8594456
  65.5576372  15.0962782  41.0516357  65.4726219  13.9738870  42.0635605
  46.0935783  71.1439085  45.7771969  45.1938725  70.8191204  45.7414818
  46.6309834  70.3866482  45.5448484  55.8258677  32.7995038  42.1934509
  55.4829216  31.9859433  42.5632334  56.1352873  32.5545073  41.3214016
  51.7973995  23.8179255  53.1602430  52.3161840  23.3443666  53.8105011
  51.8675232  24.7363663  53.4205961   1.1343225  77.0377445  68.3301306
   2.0253141  77.1966124  68.0184793   0.7816812  76.3852978  67.7249956
  26.3457298  18.7329865  16.5802085  26.7008352  19.4092691  16.0033441
  27.1058297  18.4044111  17.0603323  49.9818468  13.7861168  61.9253969
  49.7985792  13.0914807  62.5579548  49.7484779  14.5940518  62.3825741
  65.2041245  29.1540670  46.1181068  65.0884628  28.9721870  45.1854897
  64.7059155  29.9573302  46.2690687  80.9194374  54.3648672  43.6372280
  80.0582409  54.7447586  43.8111734  80.9616661  53.5964823  44.2064667
  43.2393456  27.6493526  54.7755003  42.3925781  27.2747469  55.0181770
  43.0660343  28.1279635  53.9648676  55.5508232  65.1972103  36.1111331
  55.9282255  65.4703379  35.2749491  55.3928757  66.0158205  36.5814090
  48.9003325  26.5617180  53.5089731  48.6540890  26.7037439  54.4229889
  49.0400267  27.4416447  53.1590509  49.7853899  20.3050590  49.5054865
  50.6176853  20.4594445  49.9523449  49.2959642  19.7368503  50.1003218
  12.8097689  31.1722541  48.5241652  12.2736788  31.5520287  47.8280258
  13.1915271  30.3873086  48.1312847  69.1032171  63.2392931   2.7430725
  68.1707573  63.0287075   2.7921098  69.4153214  63.1558228   3.6441037
  42.3082113  56.5224981  32.2738647  42.9171991  56.1446762  31.6393447
  41.9939089  57.3243093  31.8560863  68.8747549  10.6517220  54.7961760
  68.6264420  11.0230970  55.6427288  69.8268986  10.7445252  54.7639275
  78.5607052  42.8417158  34.0035892  79.2137766  42.9324579  33.3096910
  78.5375643  41.9030190  34.1894460  58.1440592  30.0114226  43.9760590
  57.3021650  29.8611927  44.4060230  58.3539295  29.1746092  43.5614109
   1.2043847  29.1206217   5.3923988   2.0829457  28.7510514   5.4805976
   0.9104888  29.2572474   6.2930596  60.5863857  63.0232716  37.5034523
  61.1685514  63.5676527  36.9733953  60.1676702  63.6372757  38.1066990
  66.9572210  25.1675653  52.1713352  67.8164339  24.9782157  52.5483465
  66.9839287  26.1034918  51.9724321  30.5362892  17.6858640  10.2441549
  29.6799994  17.9820919   9.9355322  31.0756016  17.6479471   9.4542587
  63.5147238  35.5077648  60.9113264  63.2280827  35.0316310  60.1319885
  64.3034506  35.0467777  61.1970425  10.7813466   0.6681483  32.4792814
  10.2789807   0.9100261  33.2573271  10.7678568   1.4532349  31.9318414
  31.7534828  31.8441272   0.9364478  32.5081134  31.2746263   1.0862219
  32.0873356  32.7285624   1.0866156  48.9252329  47.0239353  39.0525675
  49.5258379  47.2565794  38.3444810  48.9134884  47.7949476  39.6196961
  14.8411572  69.9715185  17.9208326  15.4327071  69.4457626  17.3824251
  15.4214120  70.4834795  18.4842443   0.8844536  47.8199530  29.3821359
   0.8020645  47.0957327  30.0025797   1.8193759  47.8571844  29.1802311
  53.3627319  46.2079430  45.9042454  53.2502317  45.3457069  45.5040836
  53.5408592  46.0226727  46.8262959  60.9953785  47.7296257  65.0129557
  60.8332348  47.5226116  65.9333324  61.1788607  46.8830109  64.6057606
  63.1503868  60.2623987  55.9250927  62.4256802  60.6488514  56.4167118
  62.7477837  59.5550585  55.4212952  39.4624543  68.2457733  44.5265722
  39.9330068  67.5851011  45.0348234  39.6811461  68.0479813  43.6159182
  20.9819341  59.4050503  14.2007613  20.6625319  60.1976538  13.7694883
  21.5330124  59.7262239  14.9144781  64.2464495  32.9168034  55.3941584
  63.7086487  32.2915936  54.9082422  64.2599487  33.6997414  54.8436499
   7.1764636  19.7293234  55.2050114   6.5163845  20.0042510  55.8413601
   6.7482573  19.0389085  54.6988487  70.2999067  61.7061043  20.8012629
  70.9477997  62.1810913  21.3216972  69.4631481  62.1069813  21.0365677
  70.3303051  49.6312904  43.2325220  69.6694326  49.0554428  42.8479815
  71.0031223  49.0362787  43.5634422  60.2302790  37.8215981  40.4507780
  61.0086155  38.2901621  40.7522202  59.5380735  38.4827185  40.4498911
  81.7823315  51.2934875  67.0422649  82.4250412  51.5974712  66.4013672
  82.2946739  51.1219311  67.8323984  59.7431564  61.6823912  21.5139055
  60.2035236  61.1342716  20.8784080  60.4373264  62.0477247  22.0624352
   4.6577233  78.8979435  22.7227545   5.0672036  79.5917416  22.2058344
   4.1990328  78.3584070  22.0787549  60.3189611  51.3537836  38.8820910
  61.1371756  51.4250565  39.3736959  60.5933571  51.3022614  37.9665112
  45.1123476   8.4821981   5.0567228  46.0029840   8.8256866   5.1274806
  44.5768499   9.1009557   5.5533254  71.2829351  39.3587518  43.9751482
  71.5695429  38.4635186  44.1558218  72.0946550  39.8622847  43.9135599
  55.6150961  60.0860786  49.6403313  56.3673544  59.5852041  49.3249416
  54.8552179  59.5618629  49.3873119  65.5976582  18.5562682  20.5117297
  66.2206554  17.8965425  20.2069950  64.9970818  18.0740964  21.0801077
  46.3548565  59.5716619  14.5754921  46.9994640  60.2716303  14.4717765
  46.2728977  59.4599438  15.5226099  54.3788671  64.2337513  32.6957774
  54.6093702  63.5016966  33.2677913  53.5571766  64.5686960  33.0547547
  14.7264028  11.3814735  24.3224716  14.3747139  11.9207382  25.0308084
  15.5714762  11.0752177  24.6515465  35.5530691  50.0810289  30.0767231
  35.6909418  50.1011801  29.1297197  36.3372517  50.4909992  30.4417062
  11.2352324  71.7645788  29.4345641  10.9658515  72.4045086  28.7756562
  11.0005784  70.9174490  29.0557075   2.9484296  18.6365795  22.1893549
   3.4529918  18.7236392  22.9980993   2.9509297  17.6972187  22.0054364
  54.7635603  61.8831205  35.3264213  53.8419437  61.6389132  35.4113984
  54.9675131  62.3367834  36.1442375  63.8725758   1.2178101  31.8059826
  63.9004326   1.0274747  30.8683109  64.3561935   2.0386854  31.8982220
   0.2408089  40.4789639  67.3277950   0.9362281  40.4050303  66.6742229
  -0.1467855  41.3396168  67.1688080  75.7680273  54.3473053  52.3934507
  74.9105358  54.6788692  52.6599216  75.7548141  54.3901205  51.4373016
  76.0728693   6.8968922  44.0805960  75.2781916   6.9071621  44.6140909
  76.3294506   7.8167510  44.0153551  25.4371715   7.7070260  60.9650135
  25.4489160   8.1769991  61.7988110  25.2173710   6.8058193  61.2011147
  57.1444845  65.1553488  60.2887201  56.6795111  64.6222591  59.6438551
  58.0510426  64.8517704  60.2415371   6.6194850  66.8286610  61.4331627
   7.5498682  67.0041752  61.2924051   6.6020977  66.0037041  61.9183207
  53.6928654  72.4825668  54.4013500  53.4579420  72.2234058  53.5103512
  54.5528555  72.0881653  54.5466232   4.4061181  23.4170485   0.2010794
   3.9010009  24.2301202   0.1991458   4.6398941  23.2824969   1.1194891
   7.4765080  72.9891777  15.8074141   7.6089680  72.6620626  14.9176490
   8.0886245  72.4835443  16.3420951  26.4795566  56.2151670  43.6546183
  26.6243553  55.4830360  43.0552435  25.5301738  56.3371801  43.6587286
  68.7207413  41.8366957  28.6811781  68.7686300  41.0291052  29.1927838
  67.7922773  41.9305944  28.4681845  59.2344284  35.4490376  62.2810936
  58.8721800  35.2886987  63.1524706  60.0084686  35.9894896  62.4392271
   1.2595648  70.1907921  50.5009842   1.7033689  69.6607924  51.1630821
   1.4150216  69.7262335  49.6786404  76.2100267   3.0053660  36.3376665
  76.5683365   3.8929492  36.3441300  75.2643204   3.1294280  36.2571406
  74.5236397  43.2037640  67.4086046  73.9816189  43.3867455  66.6411686
  74.1126347  42.4412060  67.8158045  82.2473335  10.8497250  34.9621773
  82.0089626  10.7208538  35.8802199  83.0631256  10.3604770  34.8555923
  55.3962755  49.3213701  42.5066900  55.2330112  50.1872253  42.1326923
  54.7198200  49.2181444  43.1760073  55.4426813  37.6519775  49.4014549
  55.2490711  36.7154241  49.3612671  55.5388355  37.9161549  48.4864712
  16.4686036  53.0326986  64.0154076  16.3047624  53.0853224  64.9570131
  15.6670749  52.6547146  63.6535883   7.7874780  13.7896574  25.4702353
   7.7492368  14.0412378  24.5474815   8.5449994  13.2074273  25.5285549
  45.7690048  20.4466939  47.6630878  45.7419586  20.0243378  48.5216427
  45.9071636  21.3739038  47.8565359  62.6730871  54.0990543  13.0412757
  63.0841494  54.3787622  13.8592148  61.7357397  54.0904427  13.2349992
   8.4527129  39.3615055  34.9741197   8.6848819  39.7872090  34.1488266
   8.3297157  40.0839090  35.5899429  53.4814405  64.5405197  38.8662481
  54.3670750  64.3161917  39.1518307  53.4136963  64.1731453  37.9849553
  45.1812506  51.7833853  39.6309972  44.6887922  50.9696198  39.7382188
  44.8263025  52.3681355  40.3005600  50.9728718  53.3214426  45.0179720
  50.2503252  53.0549192  44.4495344  51.7601633  53.1477499  44.5019913
  79.5933008   4.5287484  43.2137489  79.5812988   4.9424684  44.0768385
  79.3003130   3.6317003  43.3740473  55.4586506   5.1105416  54.7526360
  55.1081991   4.6958950  53.9642906  55.3460789   6.0487664  54.6000099
   6.6254407  24.9141860  25.0263000   5.7058120  24.6487164  25.0328088
   6.8927681  24.8742366  25.9445453  21.9957328  73.0252552  37.0855689
  21.2236595  73.5708809  37.2353435  21.6963482  72.1332169  37.2612453
  58.6322021  27.0718193  59.4798088  58.0730200  26.8679261  60.2294588
  58.0521774  26.9999027  58.7217665  78.1603241  53.1693602  60.9110689
  77.7057123  53.5325289  61.6711140  78.0998087  53.8548183  60.2456999
  53.5523462  67.8845549  35.5853057  52.6613283  68.0364847  35.2702880
  53.5643911  68.2661724  36.4630604  23.2602215  44.3736982  62.4810266
  22.6626968  45.0759745  62.7379322  22.7016354  43.6002302  62.4038076
  54.8111296  51.9611979  41.1730194  53.8577986  51.9222069  41.0963678
  55.1119661  52.2059584  40.2979040  82.5152206  45.4605246  66.0348177
  83.0608559  46.0861063  65.5582047  81.7135811  45.9444761  66.2333059
  25.9261227  35.4071665  21.5141392  26.7457747  35.8264065  21.2521458
  26.1953306  34.7013879  22.1020484  81.0599041  50.5296230  26.0013342
  81.0028267  50.4651642  26.9546556  81.5238380  49.7358799  25.7349539
  29.7679925  44.9803829  60.7258272  29.9268222  44.1468477  61.1687946
  30.6193042  45.4179955  60.7264805  74.6241045  36.8452597  43.1775951
  74.5393419  35.8996892  43.0553436  75.4979515  37.0522261  42.8462553
  44.0918493  57.5628328  21.8258810  44.5737219  57.7678967  22.6271200
  43.5778618  58.3503389  21.6473174  59.3378401  65.7581282  13.4979451
  58.9052248  66.2807989  14.1731405  58.8799810  65.9858227  12.6887763
   1.2579782  13.6314476  31.3909221   1.3879503  13.8201678  32.3202896
   1.0620363  12.6949692  31.3618040  74.2750740  11.6348755  34.5318580
  74.6206474  12.4692452  34.2146206  73.3466959  11.8051553  34.6910906
  57.8884792  15.8151615  18.4229720  57.7908945  15.4139459  17.5594127
  58.5803795  15.3069842  18.8463700  55.8399773  55.9204102  28.7157655
  56.6882181  55.4822493  28.6469579  55.9624481  56.5723705  29.4058251
   4.5059940  65.8092833  67.0164680   4.5144582  66.4438009  67.7330875
   4.5937955  64.9594069  67.4480200  81.0040188  44.0606022  28.4733152
  80.6065464  44.6267414  29.1349316  81.8174839  43.7564278  28.8757730
  61.5891171  58.5207844  34.5205784  60.6756592  58.4332466  34.2482424
  62.0925522  58.3823347  33.7183189  69.3782949  58.3211803   3.9990094
  69.9324226  58.2501364   3.2217550  69.9560547  58.0916834   4.7268525
  57.7968645  50.8203077  30.5588937  57.8511095  51.6101122  31.0969424
  57.0073748  50.3748369  30.8662987  59.8390341  67.6974010  44.3333149
  59.2261934  67.7730227  45.0647116  60.3685284  66.9280672  44.5430708
  53.4479952  50.0274658  50.8632755  53.7420750  49.1884279  50.5086470
  53.7728834  50.0340366  51.7636299  65.5988979  62.8135920  41.5223026
  64.7618055  63.0786705  41.1411953  66.0509968  62.3566723  40.8130312
  78.8284302  35.7718158  52.7242899  78.2044125  35.6829119  53.4446621
  78.9032412  36.7162180  52.5873947  60.9890795  38.5450077  44.2841387
  60.4417086  38.2848144  45.0250292  60.4504299  39.1671562  43.7952423
  13.9270365  10.1767814  16.8191934  13.0961370  10.0050950  16.3760638
  13.6816752  10.6544971  17.6115429  60.9383965  34.0153384  50.2698517
  61.6640854  33.4221005  50.0757551  61.2891817  34.8884225  50.0940418
  63.6144304  70.1390219  46.9080019  64.3554688  69.5543957  46.7489195
  62.8758907  69.5514917  47.0679998  36.9953084  17.0445049  12.9314291
  37.6709127  17.5336492  13.4010339  36.8313599  16.2766397  13.4789109
  74.9144268  52.5775528  15.9715688  75.0785637  53.2963610  15.3611541
  75.4637909  51.8617916  15.6520092  36.6432118  20.6620312  68.2170153
  36.4075923  21.5887308  68.2611084  36.3116550  20.3707504  67.3676300
  61.7395735  64.0963745  53.2679129  61.8013334  63.9687061  52.3212767
  62.5984812  64.4350958  53.5204554  59.0192175  50.9164190  42.9193544
  58.3936071  51.6361427  43.0020666  58.6409760  50.3460026  42.2501802
  12.1155190  73.8713026  19.6000600  11.6502714  74.4082117  20.2415442
  11.7345417  72.9985332  19.6968484  71.9217491  55.7905293  41.0918522
  72.0117712  55.9981871  40.1617956  71.7030716  54.8588037  41.1091566
  79.1085148  64.3853045  62.2309351  78.6037397  65.0973701  62.6238632
  79.0556622  63.6737680  62.8690243  73.7001324  13.7754130  58.9433908
  72.9390049  13.2325995  59.1489887  73.4646130  14.6477091  59.2594004
  16.7563772  77.8512907  38.3854127  16.3587034  76.9899130  38.5123658
  16.9923627  78.1385040  39.2674851  67.2331333  52.2463226   8.8957310
  66.6468859  51.5076351   9.0597159  67.3793030  52.2307014   7.9498863
  71.8550730  63.3852243  68.0434418  72.3883200  63.6331177  67.2881794
  72.4872255  63.0729628  68.6908293  30.1175046   3.1757075  47.3936939
  29.6302271   2.5741151  47.9566145  31.0080576   2.8249630  47.3824692
  64.0812206  33.2153797  51.4400244  64.9708366  33.5449171  51.3126516
  63.7910461  32.9640985  50.5631638  56.2082434  16.6451502  13.5929906
  55.3240728  16.2827265  13.6489165  56.1006832  17.5726509  13.8037157
  54.2310238  72.7169609  47.0808220  53.5310936  73.0832243  46.5402889
  54.9490499  72.5586653  46.4679432  36.3697386   7.4491930  49.2021036
  36.6275930   8.2449710  49.6673775  36.9121385   7.4464703  48.4134150
  57.8420496  52.7135801  39.0808725  58.7229013  52.3813868  38.9077330
  57.9841232  53.5380602  39.5459318  70.5510616  52.2170258  46.2373543
  71.1523819  51.4854097  46.3765812  69.8088360  51.8317318  45.7716513
  77.6089048  36.3827300  20.8817196  77.5716543  35.5410480  21.3360500
  77.4889374  37.0336676  21.5731835  54.3060207  17.5048983  48.9753485
  53.9273834  17.0147538  48.2455349  53.8410091  17.1823812  49.7473431
  56.3200665  71.9708681  32.3104692  55.9535122  71.7399740  33.1640244
  56.4883423  71.1293411  31.8865013  65.6957483  65.4778814  60.6304073
  65.1389217  64.8430157  61.0810947  65.2781010  65.6000710  59.7778416
   1.9807558  32.2025871  38.7403798   2.1301964  31.7997313  37.8850412
   2.8045636  32.6455665  38.9437079  10.9105206  20.3124261  56.1799002
  10.4228830  19.5003569  56.3176918  10.2602935  20.9276795  55.8409309
  33.5331273  36.9630957   4.3920526  33.5240912  36.0074377   4.3384781
  34.1135979  37.2373080   3.6820579  10.6460977  78.0105352  68.3119726
  10.1660442  77.1993017  68.4783363  11.4710140  77.7245331  67.9196119
  41.2202883   9.8895860  49.6436739  41.4924479   9.8091662  48.7295103
  41.4607096  10.7834685  49.8873997  63.2510614  70.2461386  61.1761522
  62.9192162  69.5785046  61.7764664  64.2026138  70.2004099  61.2693977
   4.4871962  69.1666651  19.1376507   4.0680510  69.7336006  19.7850573
   5.3844309  69.4946194  19.0772319  48.9311600  65.6671143  46.6673946
  48.7499142  64.9447870  47.2687483  49.5996809  66.1875916  47.1128273
  17.9397559  16.5465045  66.6568136  18.7127280  16.2173843  67.1155357
  17.6391995  15.8049583  66.1314535  83.0044651  50.1086569  15.1614368
  83.3945847  50.9788132  15.0785732  82.5724506  49.9587965  14.3205249
  69.2227697  66.7467308  32.4337482  69.0171814  66.1926365  33.1867051
  68.4083319  67.2156429  32.2519612  25.7210159  36.9305968  31.5966511
  25.5753183  37.5636792  32.2996545  25.3163266  36.1231947  31.9137597
  83.2764244  33.0826735  49.0925455  82.5173759  32.9889297  49.6681261
  84.0254307  33.1169319  49.6875620  53.7984228  63.7816000  42.1394777
  53.5564375  63.5632944  41.2394667  54.0254450  62.9409981  42.5370646
  78.8132095  19.2684495   4.4056916  78.9184761  20.1288152   4.8117983
  79.0399504  19.4082081   3.4862965  70.4483986  49.2823267  38.4592271
  70.2643728  48.4173965  38.0928016  71.4018536  49.3107796  38.5388899
  83.2336998  43.0415392  67.1140051  83.3753872  43.7757158  66.5163898
  82.7345085  43.4162998  67.8396749  69.8208714  66.1924124  53.0312061
  70.0548840  65.9295177  53.9213467  69.1466475  66.8616533  53.1485510
   8.5185629  71.2550163  36.7837548   9.3300879  71.2951469  36.2777424
   7.8260064  71.3892412  36.1367750   0.6350384  65.8783579   7.8542066
  -0.3215941  65.9112787   7.8526843   0.8613734  65.5311871   8.7170351
   8.0105352  72.0352745  29.5237780   8.4818840  72.2103453  30.3382802
   8.0350333  72.8663540  29.0494990  17.9568875   1.2284744  48.2293415
  18.3986855   1.5468429  49.0165472  17.0342779   1.4412734  48.3698368
  61.8500328  70.8732080  67.0150709  62.6805449  71.2511539  66.7258692
  61.4835596  70.4697943  66.2281895  69.2967749  39.1431999  59.2764997
  69.6376181  40.0369263  59.3127346  68.3529425  39.2513776  59.1594172
  65.9729624  48.0227566  15.3208649  66.9220209  48.1464243  15.3358257
  65.8505583  47.1547747  14.9363458  79.5413876  48.0764580  41.9994497
  78.8183069  48.4487343  41.4946747  79.2221022  47.2181463  42.2779942
  52.3794780   0.5769173  12.2613919  52.2833548   1.0086933  11.4125311
  52.6287304  -0.3218349  12.0460987   1.6619159  23.0864811  29.0920234
   0.9803022  22.5435686  29.4881058   1.4483362  23.9779329  29.3675733
   3.2549429  58.1337595  66.1570644   4.2063901  58.1185293  66.2607431
   3.1082571  57.8599453  65.2516699  19.4865453  75.4752541   9.4126570
  19.0911889  75.1192379  10.2083826  18.8610291  75.2644825   8.7194502
  78.7591505  11.9126880  14.0219653  79.6706867  11.6518390  14.1534674
  78.5699272  11.6730094  13.1147826  59.6210384  46.3625050  43.9517593
  59.5418072  45.7794380  43.1967831  60.4758263  46.7795038  43.8436747
   4.0250474  46.6060257  25.8698583   4.1047525  46.8874502  24.9584413
   3.6819592  45.7140541  25.8159757  75.7020140  53.4412766  29.2318583
  76.1965370  53.5522985  30.0438619  74.8343039  53.1550121  29.5171070
  79.2007208  18.5709357  49.8529387  79.9561834  19.1552114  49.9171877
  79.5728588  17.6909673  49.9112654  68.7542868  12.8136194   9.9434936
  67.9838705  13.3812141   9.9205506  68.5306931  12.1318221  10.5770469
  21.9382954   3.5210606   9.5624566  22.4035740   2.6850966   9.5926434
  22.5082397   4.1295102  10.0327563  20.8175755  40.4288578  46.4982080
  21.4757013  40.9318638  46.9778872  20.0009036  40.5914259  46.9702816
  13.8285935  46.9596529  62.9177237  14.1721606  46.6233063  63.7454081
  14.5312440  47.5107288  62.5730085  75.3718042  59.1623354  46.9575310
  74.4616365  59.4558525  46.9166660  75.4006672  58.3917809  46.3903904
  43.2397461   5.1491368  29.5406079  42.5402832   5.7336622  29.8326945
  43.6426258   4.8346016  30.3499222  30.2300906  62.8393888  43.8684559
  30.4277611  62.8268766  44.8049402  29.5243382  62.2012234  43.7640905
  60.6144810  43.6945629  61.2316942  59.7118998  43.4484959  61.0291386
  61.1478758  43.1317377  60.6704855  61.4395046  52.4555397  61.3036394
  61.3321781  52.3784733  60.3556013  61.4694309  53.3984947  61.4654207
  75.9787941  53.0887890  35.0480270  76.4631176  53.9081192  34.9462390
  75.1028442  53.3607864  35.3218198  61.9401884  42.7548933  37.8290105
  62.4951458  43.0096436  38.5661340  62.5009823  42.1991110  37.2878599
  54.8943663  38.1672335  46.1108828  54.9028397  37.7355170  45.2566099
  54.2214632  37.7018809  46.6077518  63.6367655  48.0064583  58.1215048
  63.6102915  48.9408636  57.9155636  63.5090876  47.9663801  59.0693045
  14.1447222  72.6653528  52.2320223  14.3683350  72.9711342  51.3529730
  13.5773134  73.3498621  52.5865984  74.0366220  60.4732132  49.9128151
  74.3103456  61.2557268  49.4342947  74.0797520  60.7286501  50.8342934
  43.3291626  77.7362919  44.6376657  43.9942551  77.1684122  45.0267649
  43.4812212  78.5923719  45.0379610   5.4378587   5.5755043  57.6353931
   5.2967918   5.7089406  58.5726881   4.8343641   4.8706925  57.4003029
  56.4494085   4.9851719  67.0091867  56.8623972   5.0774038  67.8677702
  56.5202904   5.8544135  66.6146898   6.1957872   0.0835320  45.2223349
   6.6526973   0.9094998  45.3812122   6.2394607  -0.0357016  44.2735958
   3.0083606  68.3301687  32.0437431   3.7345365  68.5943556  31.4788508
   2.5342670  67.6738214  31.5331793  71.7061424  65.9674835  36.7883992
  70.9767675  66.0211754  37.4059463  71.9603252  65.0446939  36.7975974
  81.6457653  20.1256514  49.9355745  81.7426491  19.5753157  50.7127333
  82.4759579  20.5977654  49.8713923  76.5727615  12.1296263  64.5365810
  77.3237610  12.6618218  64.7992563  75.8878756  12.3544741  65.1663494
  66.8947220  67.4047518  31.5771723  66.6574478  67.1544647  30.6842613
  66.5337944  68.2849455  31.6831160  36.4043355  52.9626989  28.2340288
  36.1742043  52.1925211  27.7143192  35.5763626  53.2460976  28.6218166
  66.4972544  66.8714523  18.1026614  66.3178444  66.1178160  18.6648703
  67.4356174  67.0295191  18.2062054  56.7828798  63.6945200  13.0476153
  57.2143984  63.9208651  12.2237277  57.5014544  63.4909439  13.6463141
  52.0394373  63.2308340  30.1481152  51.8169880  62.3283768  30.3768516
  52.6466751  63.5089827  30.8337760  70.4225588  44.9700403  31.2272239
  71.3461494  44.7201538  31.2550092  70.1291323  44.7060204  30.3552008
  78.0015516  42.5505352  13.3419597  78.9286280  42.3579931  13.4822822
  77.5503778  42.0793772  14.0424454  69.4421673  59.4853449  24.0980983
  69.7614288  58.6125135  24.3271613  69.6899700  60.0339556  24.8423123
  23.8336523  78.0304639   0.2696211  23.4893711  77.1861426  -0.0216215
  23.0617388  78.5169403   0.5589802  64.8439407  23.3876348  50.1773119
  65.1950598  23.5004067  51.0606194  64.0989542  23.9873314  50.1373386
  73.5808897  19.4768143  55.0921106  72.9903269  19.7211158  54.3795204
  73.3629608  20.0812030  55.8016539  53.0399895  43.1413460  65.4618073
  53.8261175  42.5957012  65.4394293  53.1833839  43.7961292  64.7784805
   6.6652650  30.6840539   5.9865445   6.6619813  30.8522892   5.0442505
   7.5491834  30.3658032   6.1699450  66.3160658  36.0278749  56.5779734
  65.4681158  36.0130787  57.0218134  66.1908388  35.4789257  55.8038902
  55.8836412  55.4513216  38.3960128  56.6641521  55.3041792  38.9302278
  56.1345482  55.1590014  37.5197554  45.8979034  56.7902613  37.6468778
  46.7311144  56.7541742  38.1166506  46.1392546  57.0136642  36.7479467
  75.7399797  71.2746096  57.1610832  75.7308531  70.3217459  57.2516251
  75.3295326  71.4384651  56.3120127  74.8904133  65.5968380  67.2049570
  74.9467897  66.5321589  67.4004745  75.6566954  65.2158833  67.6338148
  35.4816151  17.4742687  29.1933656  35.9990144  16.7746377  29.5921707
  35.8097196  18.2763350  29.5998979  20.6274605  61.0395432  41.1470842
  21.4613533  61.4780855  40.9781647  20.0789452  61.7140484  41.5475941
  36.9211841  55.1234818  39.0095186  37.3859358  54.3599129  38.6671638
  35.9953928  54.8887396  38.9459515  64.6536303  58.4917164  41.1040926
  64.0489006  59.1090059  40.6924057  64.5974731  58.6888742  42.0390844
  68.0083656  41.0743523  35.2515888  68.7684965  41.0856676  35.8332253
  68.0061579  41.9401836  34.8434639  10.1360047  71.8882513  62.2311449
  10.2921033  72.3531342  63.0531836  10.3645587  72.5215197  61.5507269
  63.3469248  75.7965565  39.3658113  62.5712347  75.4166031  39.7783279
  63.4361124  75.3211117  38.5398388  13.3183777  66.0300159  55.5981445
  12.4661922  66.3043451  55.9368992  13.1265688  65.6653261  54.7341728
   1.1972491  75.6471348   5.6912404   1.2718077  74.7244215   5.9346998
   2.0976433  75.9231710   5.5199873  40.1820278  19.1906691  27.7795291
  40.0090885  19.9866474  28.2822633  40.8012962  18.6974037  28.3175159
  51.7219591  60.3233862  32.2501278  50.9086418  60.0602388  32.6808238
  51.5998983  60.0730228  31.3343501  75.2111530  10.7321620  18.4263420
  74.5093203  10.1817870  18.7738299  75.5558586  11.1923277  19.1916263
  13.8780761  51.9381523  63.2673407  13.5385978  51.2224436  63.8046932
  13.2893956  51.9715834  62.5133038  61.7851734  46.2660360  39.6196461
  61.6295958  46.3739061  38.6813545  62.2145510  47.0789289  39.8862410
  68.2133007  54.2034721  15.5823779  67.4316406  53.7262487  15.3039920
  68.9351606  53.5961628  15.4201221   2.0663941  31.2219763  36.2496829
   2.5311491  31.7323637  35.5865526   2.3908046  30.3287244  36.1352706
  80.2323151  46.5164852  55.9445381  80.0035763  47.1623516  56.6129446
  80.2420139  47.0122671  55.1257992   0.6814716  58.3160305   3.8014171
   0.8880831  57.4402523   3.4749961   0.0122102  58.6438227   3.2006896
  53.4158039  73.7362719  37.7524877  53.9867687  72.9686356  37.7835965
  52.6185465  73.4245729  37.3241687  51.1293221  30.6946611  57.9004192
  51.3530397  31.5888000  57.6421547  50.2210379  30.7512236  58.1971550
  83.6113834   1.1006690  32.3098946  84.0944958   1.8295538  32.6992083
  82.8354073   1.0054629  32.8621864  23.2376719  37.3745203   7.0125008
  22.3582411  37.7514172   7.0404369  23.2842755  36.8173862   7.7894568
   0.5244810  66.1268234  52.1256113   1.0020857  66.9362974  51.9442844
   0.8000271  65.8787012  53.0080748  64.2985916  63.8646746  23.4135747
  64.8930120  64.6015120  23.5548806  64.4638491  63.5933781  22.5106239
  32.0982575  65.7840347  44.3232441  32.8137994  65.1555347  44.2272091
  32.0300269  66.2022734  43.4649611  67.6877165  70.8529902  68.4698868
  66.8997431  70.9791660  68.9984751  67.5843668  71.4601755  67.7371645
  75.6673288  67.1130800  17.5327694  76.4995146  67.3920202  17.1508133
  75.1489210  67.9157257  17.5896811  25.7887697  61.5266275   4.5033464
  26.6764021  61.7483473   4.2219543  25.6152201  60.6759262   4.1003364
  71.7377138  62.4034595  50.0561714  72.1144104  62.0358038  50.8556509
  71.1821079  61.7050886  49.7100401  59.5372152  42.3247766  52.0416307
  60.2346420  41.8782234  51.5616179  59.8577833  42.3705959  52.9423904
  79.8346186  74.9387836  19.9287164  80.7784557  74.9781561  20.0831580
  79.4442034  75.1802778  20.7686496  70.3039980  54.7226906  36.9179773
  69.3647623  54.8709488  37.0279408  70.3736782  53.8003016  36.6718602
  73.1590605  40.2027798  37.9643416  72.7560139  40.8622074  37.3995924
  73.3520317  39.4710612  37.3781824  67.8953362  60.8677721  35.6998825
  68.6263752  60.2507162  35.7324147  67.2472191  60.5032444  36.3026214
  73.3697653  74.0529490  35.2568245  73.9698410  74.3216181  35.9524965
  73.9317799  73.6369038  34.6031642  23.3026981  16.0450304  54.7657061
  23.1564450  15.6994784  53.8851213  23.9495420  16.7403305  54.6457815
  69.9645805  59.0462351  66.3307810  70.1223946  58.7269020  67.2192335
  70.6754351  58.6704922  65.8114195  77.6554537  49.6488667  39.8850083
  76.7782021  50.0038719  40.0286531  78.2205915  50.1681280  40.4570341
  63.6669636  41.0860300  43.1986618  62.9458237  41.0483027  43.8269663
  64.4556332  40.9960032  43.7335682  68.1163597  13.5478449  61.8007660
  68.7832880  14.1836989  61.5416718  68.5881424  12.7172077  61.8615294
   3.6715031   3.4115049  57.3520041   3.5840601   2.8685153  58.1354237
   3.5266858   2.8069288  56.6241646   4.1933912  74.8178339  30.8459854
   4.1708356  75.0104952  31.7833257   4.5812148  75.5983829  30.4502988
  83.7581298  77.8483438  33.2662535  83.3833738  77.4322605  32.4899364
  83.4762872  77.2946310  33.9944005  58.0068064  56.5428782  26.9842124
  58.8339376  56.9531822  26.7317462  57.6163816  56.2619543  26.1566377
  65.0097609  76.1084700   5.1924968  64.1316462  76.2506056   5.5459738
  65.5754280  76.0720015   5.9638095  28.0138087  51.3625336  29.8940802
  28.3815241  50.5322838  29.5912576  28.5129356  52.0309401  29.4246769
  16.5809226  28.6700463  59.4333887  16.9013953  29.3030286  58.7908411
  17.3720086  28.2498503  59.7708035  59.6440458  49.1191530  31.9561005
  59.7120762  48.1824398  31.7712355  59.8455954  49.5431662  31.1219406
  40.0154400  11.0959995  42.8045702  40.9129333  10.9982729  42.4864769
  39.5169401  10.4371452  42.3212051  54.1076231  71.9588327  18.4415603
  54.5804024  72.7064848  18.0758715  53.1839132  72.1956301  18.3584177
  56.5446520  47.5539970  40.8352470  57.3737478  48.0320454  40.8178282
  55.9233332  48.1663465  41.2292290  43.6545181   5.1023239  24.3387461
  43.8392305   6.0202259  24.1398263  44.5174074   4.7022688  24.4465041
  75.1955366  49.8620129  47.6931715  74.8605728  50.6670094  48.0881500
  75.2510357  50.0590992  46.7581272  40.1768589  59.1985798  20.1443529
  39.3561888  59.5308304  19.7805631  39.9379468  58.3672285  20.5542326
  82.1388531  62.7274847  64.4126654  82.7323055  63.2137823  64.9849987
  81.3912010  62.5122023  64.9702501   7.6961666  62.1430349  19.4846809
   7.7620304  63.0483961  19.7883511   8.2064295  62.1242523  18.6750436
  11.5145135  58.7358665  67.5092554  12.4190164  59.0448761  67.5604439
  11.3291621  58.6918783  66.5712023  80.3040695  68.4096098  50.7447577
  80.5061150  68.9339018  51.5196896  79.4988251  67.9451942  50.9730673
  81.4828968  68.6857176  67.8564978  81.8912125  67.9598141  67.3847151
  81.9327354  68.7055874  68.7011814  38.3786774  66.8533278  11.9562006
  37.8274345  66.2415409  12.4441373  38.8992834  67.2943926  12.6275134
  58.8924026  54.3427992  63.1074524  58.6828327  55.2329016  63.3903456
  58.6417437  53.7907982  63.8481903  82.2843647  45.8427334  41.3997078
  83.2000446  45.6763268  41.6234589  82.0037270  46.5133953  42.0223522
  36.3406515  48.7031507  15.5326545  36.6358328  47.9080057  15.0889897
  35.4003024  48.7400246  15.3576851  77.8035641  50.5921555  59.8008966
  77.8671551  51.5099573  60.0651503  77.2284746  50.6024981  59.0357828
  58.6536026  48.7506962  34.4555283  57.7183628  48.7384892  34.2520308
  59.0780306  48.9450455  33.6198735  60.0240326  45.0122404  41.4524746
  60.1125860  44.0973330  41.1854029  60.6237602  45.4884958  40.8782434
  73.9540958  68.1865501  28.3787537  74.0441275  67.2371340  28.4608364
  74.4618034  68.5393476  29.1095042  58.8919449  46.9898415  55.2965307
  59.2753744  47.3114777  56.1124754  59.5474863  47.1903372  54.6284676
  16.2432325   1.8133152  19.3101275  15.6145251   2.2147813  18.7103081
  16.5200102   1.0119151  18.8658488  68.4062004  57.8810883  49.4367552
  68.1386471  58.7716198  49.6639252  69.1697931  57.7122593  49.9887037
  14.1062629  74.8944616  45.3517342  14.0546739  74.1941404  46.0022068
  14.8701990  75.4084873  45.6132841  39.4069052  45.8560610  29.1727185
  38.7507844  46.2313128  28.5854220  40.1398325  45.6302214  28.5999680
  11.3483977  50.6941319  11.2046373  10.7336009  50.1638126  10.6976688
  11.9783616  50.0631905  11.5529048  69.5041609  49.7951031  55.6586838
  69.8673344  49.3036222  54.9219418  68.8549709  50.3761482  55.2622318
   1.5405177   5.8467209  36.3683510   1.1080669   5.6417507  35.5393720
   1.3305201   6.7670441  36.5269017  53.0200434  69.6283197  68.1073761
  52.8964853  70.5658197  68.2558870  52.1423578  69.2551708  68.1889629
  14.0737236  52.3248816  39.5004392  13.4315157  52.8387070  39.0107584
  14.9169493  52.7178383  39.2750788  68.3071661  23.4745574  63.6822462
  69.1270685  23.9632273  63.6101675  68.2721138  22.9465652  62.8846073
  75.5352163  69.1299200  34.4730806  75.6108379  70.0025368  34.8591542
  76.2924242  69.0587187  33.8918734  24.2121267  14.5719302  48.7902832
  24.2153883  15.5250454  48.7020063  24.9095964  14.2748785  48.2058764
  57.6711416  77.0041037  14.1126037  57.9035759  76.8331575  13.1999242
  58.3645105  77.5814152  14.4322538  13.1280136  27.8430343  18.3413553
  13.7296855  27.1040630  18.4315908  12.2602785  27.4413824  18.2972622
  56.0535383  64.3221712  39.7574449  56.9530010  64.5977497  39.5806718
  55.6937647  65.0176573  40.3079844  10.3206420  73.9735460  60.3493071
   9.7188991  74.6317863  60.0016546  11.1647415  74.4223356  60.3974581
  74.4681215  60.2799463  39.3910980  73.7902355  60.6979942  39.9220777
  74.5067024  60.8074331  38.5932875  70.0591230   8.6043584   1.7273970
  70.1446581   9.4155365   1.2264921  69.1627741   8.6233008   2.0627041
   8.1158298   8.5067827  26.7831802   7.5729269   9.2181647  27.1229196
   7.5218683   7.7583003  26.7264700  40.6004953   6.3849723  41.8311644
  41.3014555   6.3173741  42.4794817  41.0558939   6.5005982  40.9972143
  73.4716845  63.1486511  13.1486273  73.9926386  63.8567877  12.7699649
  74.1172886  62.5548363  13.5317850  55.5709124  70.5653143  16.1977637
  55.1560211  70.9492302  16.9702303  55.9165955  69.7266865  16.5034401
  45.2298212  18.9609504  60.5910969  44.4285583  18.4931505  60.3557873
  44.9278688  19.7091901  61.1060667  61.6015339   3.6161053  26.1459851
  62.0979023   2.8691363  25.8114886  60.7198238   3.2725552  26.2901664
  17.5201797  32.4908328  14.5668483  17.2135162  32.4184132  13.6629987
  18.1390202  31.7676878  14.6684766  69.4856834  61.8243456  61.1561441
  70.0699854  62.4776745  61.5408421  68.6300278  62.2527361  61.1322927
  16.0489213  67.0197582  10.0175798  16.0572493  66.2436581  10.5777860
  15.6359327  66.7248821   9.2059630  19.1120934  53.7266684  40.4539156
  19.2467594  54.5949602  40.8336020  18.7811399  53.1968260  41.1791563
  33.5051799  37.2015834  19.8112857  33.9689326  36.3816071  19.6415710
  32.5794172  36.9769216  19.7179019  50.1999426  10.6945765  53.3717871
  50.0229359  11.2196970  52.5913095  50.0004768  11.2784398  54.1035986
  13.2518280   2.1236730  67.6170588  13.1032217   1.1999451  67.4148798
  13.8399386   2.4284838  66.9260788  24.4804931  54.8048019  35.5828714
  25.3411365  55.2002716  35.4445744  23.9568377  55.5024862  35.9768939
  19.8851562  46.5900278  46.4628315  20.2226686  45.7197857  46.2507296
  20.5233765  46.9510365  47.0781183  64.6025705  17.1305680   6.8558449
  64.4559717  17.1453631   5.9100538  64.3302965  16.2538016   7.1267331
  51.5026617  67.7241039  16.0298705  50.7530785  67.2554398  16.3969004
  51.3759947  67.6738882  15.0824177  65.4874706  20.1391077  66.1706066
  66.3243532  19.6937799  66.0381651  64.8417139  19.4329834  66.1954880
  47.2033501  45.2717066   2.9668626  46.3027048  45.4393864   3.2442728
  47.6895571  45.1636505   3.7842718  82.7637100   3.8669035   1.3896883
  83.2840157   3.8235691   0.5874136  83.3387089   4.2930064   2.0253363
  31.1134980   0.2862946  45.0873089  30.5515219   0.4029528  45.8533430
  31.3580532   1.1758057  44.8319721  50.1696348  35.8085179  17.3490286
  49.6785450  35.1924253  16.8054390  51.0766363  35.7145166  17.0579159
  73.9011049  39.5853043  64.5517349  73.9617395  38.8495731  63.9424276
  73.5738802  40.3105974  64.0196514  73.1934595  60.3559494  58.5539150
  73.2556581  60.6613207  59.4589615  72.3367691  60.6620312  58.2562017
  31.1584949   5.0741929   3.2327193  31.7579126   4.3562219   3.4363055
  31.6285658   5.8627814   3.5036281  57.6835680  58.9916372  33.6705709
  57.8990269  59.9194908  33.5762310  56.7300129  58.9742804  33.7522030
  60.4933929  62.6151133  45.5823565  59.5460320  62.5190830  45.4848003
  60.7398891  61.9344950  46.2086391  50.0167751  24.0097308  11.1470234
  50.7760620  24.4555664  11.5224516  50.2703476  23.0871511  11.1191201
  69.9867010  65.9283972  62.9027796  70.0129557  64.9716902  62.8868437
  69.4825697  66.1671543  62.1249151   1.9546431  69.3942022  39.3755460
   1.6392663  69.3942118  40.2792978   2.8998488  69.2637539  39.4517136
   8.6591798  72.9688644  48.9762306   8.2366282  72.5683689  49.7360277
   8.2008922  72.5960398  48.2230997  45.5843973   2.8046605  42.5993490
  44.9972963   2.3240303  43.1829071  44.9995613   3.3036509  42.0290804
  25.4520464   1.7044732  54.7904539  25.5881000   1.5644108  55.7275248
  24.9376369   0.9484674  54.5074892  61.5221643  17.7474976  23.4922910
  60.8496904  18.4284914  23.5082555  61.9217491  17.8257382  22.6260090
  15.5433333   2.4733183  49.1943598  14.6378815   2.6953846  48.9773941
  15.6589437   2.7882168  50.0908566  79.4481039  54.3826246  56.6284943
  79.9755526  55.0484896  56.1872959  78.8236666  54.0923977  55.9636021
  38.5687685  15.1070464  53.2920170  39.2434883  15.0115430  52.6198101
  39.0226007  15.5121398  54.0310478   4.4211173   9.1984969  37.6440191
   5.0353813   9.6859682  37.0951271   3.6615646   9.7754717  37.7240944
  30.6396651  77.7986765  39.1561556  31.4871383  77.6837540  38.7262535
  30.4097271  78.7131739  38.9916897  22.2341800  25.2288651  60.7222939
  21.6776252  24.4782138  60.9296608  22.5258541  25.5533767  61.5742636
  63.9028835  35.5583239   4.2111328  64.2607737  34.9326563   4.8409647
  63.3581972  35.0278282   3.6296499  19.2188406  73.7532854  36.9807386
  18.3950520  73.2678366  36.9367051  18.9851487  74.6453810  36.7242408
  32.8822231   7.1666408  58.4269571  32.0716357   6.6719806  58.3065701
  32.9769969   7.2437513  59.3763304   2.3076148  28.6523318  47.0353794
   2.6602849  27.7634072  46.9945145   3.0474362  29.1908431  47.3162746
  32.6787162  24.7211218  39.2187691  32.1549678  25.3729820  39.6845961
  32.5161839  24.9006057  38.2927036  -0.1191309  52.6950645  41.2401199
   0.3715727  53.3973122  40.8131647   0.1687166  52.7222347  42.1526051
  56.2042761  11.1039448   0.4062709  56.7731714  11.7551160   0.8168408
  56.7662287  10.6624222  -0.2305156  56.5995550  64.8799801  31.1470222
  55.8811474  64.6242905  31.7255902  56.1672354  65.2533913  30.3789759
  82.2834873  38.1972289  57.4884558  82.5121689  37.7914023  58.3246613
  81.3518238  38.0078602  57.3771715  77.0337206  43.4730284  68.5729609
  77.4899394  42.9547422  67.9100312  76.1376912  43.5468297  68.2444573
  56.5840101  40.3942251  49.6680117  56.8837833  39.9708200  50.4724360
  55.6432962  40.2193260  49.6415186   2.3979010  67.7912283  12.6468158
   1.9026981  67.0236254  12.9328024   2.1728691  67.8904200  11.7217457
   9.7342002  48.5839748  48.9293909   8.9069331  48.2585573  48.5744762
   9.4878644  49.0323830  49.7383928  77.3288059  54.2720413  31.4110279
  77.8901958  54.4347191  32.1690559  77.9377699  54.0665770  30.7016802
   8.6913669  30.6771684  26.4348626   7.8308928  30.9176350  26.0913634
   9.2265093  31.4609909  26.3104582  45.4740667  43.9227962   6.3097507
  46.0945034  43.5644960   5.6749970  45.6680870  44.8598719   6.3316232
  15.6073666   0.4671235  58.0204582  16.0726464   1.1683209  57.5643110
  14.6915257   0.7454272  58.0166960  27.8076601  67.6843214  59.7983932
  28.4121346  67.9771948  59.1164303  27.5289154  66.8139791  59.5137262
  10.2127695  23.2075477  24.9613953   9.9910951  23.2779670  24.0328836
  10.9015572  23.8590169  25.0932717  52.2574282  54.4735336  50.7912397
  51.9228697  55.2802134  50.3993654  51.5818071  54.2132950  51.4173746
   5.0459909  35.6874633  18.5477078   5.6333822  36.2344384  19.0692651
   5.3571677  35.7915640  17.6485074   2.6076120  11.1791742  52.2291803
   1.9830075  10.5999100  51.7926550   2.0810357  11.9238973  52.5195885
  48.7091160   0.3975390  20.1782584  47.7730370   0.2811211  20.3408360
  49.0609694   0.7045607  21.0138226  83.3692246  56.8339252  53.8523912
  83.9054395  57.6237345  53.9224100  83.6264069  56.4430761  53.0173302
  80.8771896  50.0952625  17.2841156  80.2340889  50.2097845  16.5844405
  81.6114998  49.6478176  16.8636179  74.9910879  63.0333233  49.0417051
  75.0867796  63.9519739  49.2930079  74.3398237  63.0434752  48.3402920
  12.1788633  76.1587286  36.4436603  13.0068660  75.8621407  36.0659337
  12.1975684  75.8363533  37.3447442   8.8834363  55.4090595  33.3653545
   8.3401591  55.8747435  32.7295709   8.3028978  55.2577972  34.1112256
   6.9612092  24.5530009  55.0316381   7.3925948  25.4069829  55.0607967
   7.1827960  24.1440415  55.8682299  26.2900400  31.9382668  59.6814442
  26.1585474  31.6190505  58.7886715  25.4051638  32.0433760  60.0309849
  54.0010500  70.0918388  42.8970146  54.1269159  69.8338032  43.8101435
  54.7632694  69.7359276  42.4403048  62.8408289  68.2227278  62.7267551
  63.7557936  68.1356716  62.4593782  62.3766184  67.5640535  62.2101402
  39.1778183   7.0025080  19.6120715  38.3692861   6.7566127  20.0615644
  39.5721889   6.1689448  19.3554056  62.9803181  68.9085674  42.3309278
  63.5551691  68.5275650  42.9947186  62.5249434  68.1581497  41.9491816
  20.6008053  41.4889050   6.3465917  21.3769293  41.6479921   6.8837649
  20.2442265  42.3608255   6.1767721  83.3914757  10.3001869  28.2433987
  83.6779404  10.9258795  27.5780582  83.2353020   9.4897515  27.7585936
  74.6032190  68.4041405  46.8400383  73.9112759  67.7498484  46.9367409
  75.3808928  67.8975153  46.6059637  75.0391579  55.7531166  40.4726553
  75.9298182  56.0577822  40.2990627  74.7304535  55.4224396  39.6290994
  79.2585230  74.8923302  13.1560290  79.2258215  74.3405199  13.9374804
  80.1844406  74.9101496  12.9139781  41.7974472  63.0796576  40.7063055
  42.7368546  63.1564999  40.5394316  41.7281151  63.0117464  41.6585684
  19.6989894   5.0159085  13.3549356  20.1670623   4.2576680  13.0053496
  19.0887880   5.2620947  12.6597548  32.9575443  17.5541842  22.3795366
  32.3762918  17.9941237  22.9998827  33.6268497  18.2069397  22.1741724
  39.6029925   9.2078048  46.1850166  38.8003063   9.5819074  45.8217335
  40.0038576   9.9278736  46.6718817  79.0323257  51.6610479  32.2386122
  79.2123556  52.6001310  32.2826743  79.4832182  51.2947798  32.9993844
  57.6154566   9.6410364   6.5616578  57.7806568  10.5818224   6.4995259
  58.4800291   9.2547560   6.7014241   6.2360471  78.2475471   2.7402082
   6.7298073  77.5470018   3.1664297   6.5908784  79.0533590   3.1157067
  62.6241112  65.9853554  26.5601420  62.6717091  66.5270376  27.3478889
  62.3693371  65.1197863  26.8797016  83.6474895  71.0768700   1.1103434
  84.1301632  71.2407494   0.3001580  83.5392475  70.1261711   1.1365308
  21.5574718  53.0097723  46.6108370  22.2183442  53.6888790  46.4755821
  21.2550473  53.1453276  47.5088310  31.6333723  11.2603080  14.0669584
  30.8263445  10.9100735  13.6897647  31.5284657  12.2104299  14.0170038
  60.0205755  26.1299491  51.3622713  60.1169682  26.7359114  50.6275940
  59.6427870  26.6613555  52.0630693  62.9633808  70.7755756  55.4277325
  63.6095905  70.9531927  56.1111736  62.9609966  69.8221970  55.3423071
  74.7413206  73.0159044  58.9423227  75.0869942  73.8668108  58.6727047
  74.9778128  72.4241018  58.2281303  39.0506840  77.7251005  24.0396523
  39.7553253  78.1538820  24.5253062  39.4711876  76.9744396  23.6202335
   2.4253772  38.1143618  55.3571558   2.9585338  37.4668431  54.8959637
   1.9790000  38.5966063  54.6611500  72.3651457  59.3364429  12.6475489
  73.1717205  59.5581484  12.1822369  72.2129202  58.4150887  12.4373949
  48.6137629  39.4711328   9.9101537  47.6636553  39.4380593  10.0216329
  48.7908459  38.8718843   9.1850495  40.3497839   9.3571496  19.9766839
  39.9879980   8.5043645  19.7356415  39.8202729   9.6398842  20.7222772
  62.3286533  51.3517857  49.3003225  62.6760530  51.3235998  48.4088326
  61.3976622  51.1527443  49.2009926  60.9853888  35.7361889   3.4565270
  60.4280472  36.1586332   2.8029680  61.4374161  36.4601874   3.8898110
  56.1406660  73.8592720  24.4123197  56.8050528  73.4441566  23.8623190
  55.5992556  74.3568993  23.7995601  17.4550188  50.6707525  43.1951618
  17.7756703  49.9616957  43.7525225  17.0714462  50.2263355  42.4391222
  83.8187867  60.6143665  64.5559883  83.3251951  60.5112600  65.3696012
  83.3329254  61.2757254  64.0632677  27.2909379  56.8658972  52.8793097
  27.3699331  56.7755032  51.9296646  27.8993726  57.5697422  53.1043434
  56.5248775  31.5464020  39.5379710  56.3045979  30.6159449  39.5822191
  56.1540794  31.8410230  38.7061405   7.5029916   6.7982060  49.1063595
   7.0288366   7.3794323  49.7009897   7.0250428   6.8599641  48.2793283
  78.0648947  70.1724195  24.7865891  78.8845015  70.5020523  24.4180441
  78.3245230  69.4105148  25.3045893  53.7711096   9.7263497  31.7151284
  54.0909624  10.6212056  31.8298340  54.4832802   9.1742182  32.0379186
  21.8189073  47.7655506  48.1512690  22.0711398  47.6546621  49.0679550
  22.1255970  48.6430645  47.9229307  70.0075150  74.8683357  54.3215418
  70.4456139  75.7080460  54.1829967  70.7119656  74.2214251  54.2830181
  14.9713147   4.1357103  21.2874126  15.3940189   3.3443260  21.6209745
  14.9385643   4.7254100  22.0406818  16.0074246  66.5037012   0.1141285
  16.5082836  66.8596888   0.8480544  16.6566169  66.3700867  -0.5764711
   1.9946148  31.2390137  31.3826776   1.2984458  30.7893133  30.9037709
   1.5727884  32.0197654  31.7414522  62.1838093  20.4645228   0.8498158
  62.7146721  19.7336876   0.5331229  62.0117569  20.9914112   0.0694198
  80.2096558  49.6666908  60.1837587  80.3569317  49.4438934  61.1029434
  79.2571735  49.7012568  60.0953293  13.8171363  77.8486252  30.7807040
  13.2377040  77.4390125  30.1382828  13.4342182  77.6211691  31.6279745
  25.2138066  60.8797026  36.9109845  25.6814027  61.2317801  36.1536002
  24.6843719  60.1660728  36.5550852  65.4718447  66.2235212  65.4544353
  66.3386488  66.1028147  65.8421421  65.0842905  66.9425678  65.9534311
   8.1952095  30.2848434  44.0381098   7.2849482  30.1598406  44.3064976
   8.2822043  31.2306714  43.9194727  11.2201178  27.1666813  37.6881790
  10.5388880  26.9845176  37.0408964  12.0248008  27.2396183  37.1749568
  45.1245975  73.2393360  47.3100471  44.2066908  73.1014156  47.0762587
  45.6047153  72.6015759  46.7818642  82.9359722  45.4407740  20.7629895
  83.2873917  44.5505571  20.7474208  82.8011131  45.6611919  19.8413253
  33.8736057  16.9177246  27.0194697  34.5389867  16.3292849  26.6627645
  34.2944384  17.3238504  27.7772260  58.3903933  65.7938623  27.9200292
  57.6713324  66.0350943  27.3360848  58.9115572  66.5926600  28.0008721
   6.9147611  78.3979988  63.0650997   6.1789829  78.6329699  62.4997234
   7.5201827  77.9315090  62.4888325  31.1528802  71.1244631  17.4196851
  30.8004928  71.5536499  16.6400361  30.7794499  71.6144705  18.1522667
  10.7122207  12.9057050  52.6762962  10.2017021  12.7762794  51.8770123
  11.0769498  13.7862360  52.5875902  25.5592513  23.5908890  39.3488526
  26.1954594  23.3206606  40.0110054  25.6334043  24.5447969  39.3206668
  26.9471693  33.2830238  23.6818337  27.4921227  33.6205792  24.3926859
  27.5361681  32.7269578  23.1718326   6.9509393  77.0527887  32.6644421
   7.0097375  76.9520044  33.6145043   6.7367798  76.1768103  32.3434615
  74.1910076  11.0375500  31.3943434  74.3813372  10.1031756  31.4777112
  74.0609360  11.3367093  32.2942424   3.4052189  46.9126473   0.4148800
   3.7207229  47.7485607   0.7583029   2.5364931  47.1100996   0.0647909
  26.4883900  52.4112558  16.7257643  26.5442705  52.4248123  17.6812351
  26.6796279  51.5041256  16.4875042   0.9955641  76.4807510  10.2077615
   1.5702276  76.8701077  10.8668470   1.3105015  76.8348789   9.3761134
  48.1226921   3.1496912  39.2977381  48.0262709   2.7748021  40.1731777
  47.6060867   2.5750077  38.7328601  82.0051956  64.6922302  52.6199770
  82.7092266  65.1825190  52.1954918  82.2024727  64.7506905  53.5547972
  50.0459862  63.5699034   9.1154361  50.0307083  62.9563665   8.3808792
  50.8702040  63.3843374   9.5653903  39.3823814  62.0528793  31.7540193
  40.2298880  61.6777039  31.5148401  39.4985843  62.9966068  31.6439867
  77.6001835  67.2620440  57.9596663  77.7026224  66.3147736  57.8679228
  77.8042126  67.4371576  58.8783264  29.5374584  22.0713377  30.8540821
  29.2458367  22.9791880  30.7704353  30.4640985  22.1377087  31.0846543
  81.4874649  71.8802309  19.8857462  81.6878033  70.9478903  19.9684644
  81.5169525  72.2120810  20.7830977  25.3295517  16.3811755  34.5448637
  25.8935738  16.9711721  35.0448799  25.9038496  15.6586814  34.2910576
  49.3303156  78.4942961  48.9017248  49.9812031  79.0746832  49.2963505
  48.9506721  79.0091848  48.1896877  15.5007708  32.1564984  58.4501839
  16.0295594  31.5118647  57.9800081  16.1348307  32.7967882  58.7730265
  10.0000226  46.0844755  20.3921008  10.3018034  45.1766253  20.3609180
  10.2627683  46.4533138  19.5488012  35.0312018   3.6360529  38.2685828
  34.2693090   4.2126966  38.2117128  34.6925616   2.7690315  38.0453587
  19.9166310  78.0693483  11.7398274  19.0389991  77.9141474  12.0889783
  20.4921365  78.0071688  12.5021636  42.1948433  36.2269711  24.6566224
  41.9393349  35.7967710  23.8406086  42.3050261  35.5099416  25.2810907
  22.3546004  58.9208889  19.7631085  22.2982407  59.7776413  19.3399882
  21.7109108  58.3831596  19.3018687   5.5943251  77.8144503  44.6553278
   5.4659092  78.5643053  44.0744162   4.8118889  77.8017569  45.2065659
   9.6015823  60.8748198  33.4429550  10.3504646  60.2795506  33.4754872
   9.9874920  61.7369890  33.2881284  45.4595852   3.4752849   2.4596207
  45.3323698   3.6767381   1.5325478  45.8994055   4.2478719   2.8144458
  10.5015850  64.2749310  51.1076021  10.5392897  64.7009802  51.9639301
  11.3846755  63.9314842  50.9718657  36.9405246   0.5339303  45.0362682
  37.2285175   0.0766563  45.8263254  36.7158556  -0.1658105  44.4229841
  82.5514126   8.3108884  10.5992782  82.4099445   7.7086610  11.3297153
  82.8896809   7.7578974   9.8950005  44.3431234  34.6622729  58.3590937
  43.6159992  34.3719435  58.9097595  43.9433575  34.8372579  57.5071526
  35.5411100  33.3481288  43.9073753  35.1631665  34.2181563  44.0355921
  34.9878812  32.7673173  44.4297075  46.7480087  12.4439836  33.7358117
  46.7330790  13.1801498  34.3474221  46.7234993  12.8513920  32.8699875
  49.1103125  31.5950179  17.8466606  50.0216961  31.5083313  17.5671947
  49.1543627  31.6214108  18.8024819  64.6611357  73.2908773  30.5012465
  64.0496731  73.4231663  31.2257099  64.1262531  72.9152632  29.8019290
  58.7227440   6.2448418  44.8860788  59.1955853   5.6976390  45.5131531
  59.0164042   5.9355527  44.0291452   6.7013520  71.3516617   4.1894877
   6.5288740  70.8543348   4.9889547   6.6806191  70.6973076   3.4911895
  74.1490984  13.0204511  27.2157121  74.6219349  12.6534903  26.4687204
  74.8148060  13.1166852  27.8967404  22.9140306  53.6314774  31.1370730
  23.6749601  53.0827951  31.3272381  22.6182389  53.9363909  31.9948435
  20.3690982  13.7938690  23.6319375  20.3900790  14.4250059  24.3512845
  20.7846332  13.0092168  23.9895463  52.9803181   9.7383314  36.7808366
  52.2798729  10.3033876  37.1069098  52.8070545   9.6591407  35.8427835
  11.3939691  74.9672079  39.1600299  12.1146309  74.3491125  39.2818332
  10.7145250  74.4586945  38.7173128  10.9155762  51.6016531  40.3135824
  11.6542459  51.0068560  40.4432440  10.7409632  51.9599581  41.1838484
  35.4729819   8.6836386  33.1578922  34.8648810   8.0825305  33.5881376
  36.1882138   8.1244284  32.8546405  61.4702988   8.3023512  41.5258741
  60.8127308   7.7106822  41.1601400  61.7733765   8.8158560  40.7770824
  32.8534126  72.0581484  34.5332336  32.4640346  71.2624788  34.1705608
  32.1385288  72.4780941  35.0115800  21.6229081  19.5428455  31.1639595
  22.5700283  19.4048369  31.1760902  21.5009427  20.4024768  31.5669370
  41.4899302   4.7553879  34.2749476  41.9576359   4.0417379  33.8411403
  42.1746588   5.3800839  34.5139813  36.7320347  77.1439266  42.0441294
  36.2874770  77.8891468  42.4481678  37.6326609  77.2004700  42.3633575
  58.2188940  79.2000389  36.5977669  58.3934355  78.2640123  36.4996791
  57.6850939  79.4252777  35.8358264  32.1209478  55.1821947  30.6636596
  31.2856531  55.4074383  31.0732722  32.4825001  56.0217285  30.3795910
  37.1497774   7.4510860  40.6210136  36.7974710   6.5616930  40.6540632
  37.1509862   7.6737845  39.6900821  26.4085579  69.0804243  26.5787411
  27.2560287  68.6405897  26.6463327  26.3280582  69.3040705  25.6515217
  38.8341904  70.0739765  35.8739758  38.9104581  69.1637802  36.1602664
  39.1768312  70.5851698  36.6071272  58.0299520  10.6981540  36.5558720
  58.3931923  11.1839294  35.8153915  57.3967648  11.2988269  36.9489336
  10.0985205  75.5679846  31.7266011   9.4457185  75.6030512  31.0274220
   9.8984683  76.3235426  32.2791791  36.0697412  10.0829625  35.8400655
  36.3458419   9.5997316  35.0612903  36.3340354  10.9866107  35.6674361
  70.5290747   3.3630916  31.0988903  71.0311842   2.5482497  31.0867071
  70.7091808   3.7425721  31.9589996  52.1185017  30.5317044  60.6139946
  53.0056858  30.8766413  60.7147503  51.8316984  30.8542871  59.7596407
  13.0365467  56.8724585  63.9925861  13.1320608  57.0168877  63.0511761
  12.7958536  57.7299738  64.3432522  46.9507122  61.4557886  29.2396951
  46.5311050  62.2520256  28.9138556  47.2918510  61.0265541  28.4550858
  57.1734238  58.6836481  28.9201474  56.9974375  59.4844103  28.4261417
  57.4395704  58.0467367  28.2570171  65.3350544  67.4939823  62.6540136
  65.5824709  66.8966532  61.9481707  65.5305576  67.0103836  63.4565973
  32.5072265   5.5942965  51.2254095  31.9797230   6.3651454  51.4346123
  33.2490492   5.6408399  51.8285370  37.6147199  71.8846083  49.5052671
  37.6840067  71.4500093  50.3553009  38.5209560  72.0569992  49.2498302
  37.5838447  67.0370102  34.8283339  37.3568439  66.1071587  34.8194385
  38.4634161  67.0652390  35.2048850  38.8779712  43.0683804   8.7506491
  38.1655979  43.2184601   8.1291717  39.5015430  43.7730169   8.5749328
  57.6707697  26.2264466  66.8135023  56.9569349  26.8132353  67.0632029
  57.4868107  25.4124498  67.2823334  35.1681685  28.0032825  66.4624357
  34.7335696  28.1063938  67.3090267  34.4650435  27.7596664  65.8603525
  80.8475494  55.9309721  21.2069154  81.0370159  56.8067074  21.5436888
  81.6744328  55.6373644  20.8244348  59.5009470  19.5886064  23.2192898
  58.5442257  19.5662439  23.2396626  59.7165537  20.5144477  23.1071997
   2.6433480  50.2685833  41.7442799   3.2708436  49.5605993  41.8900394
   1.8185896  49.9339008  42.0964098  53.5652208   1.2528306   6.9413733
  53.8921452   1.0135217   6.0741460  53.6133432   2.2086361   6.9601244
  45.5385780  76.4637899  61.5394306  46.2919044  76.1393023  62.0328283
  44.8912716  76.6854048  62.2088432  71.7101383  13.1533134  31.9373608
  71.8459558  13.2108104  30.9915900  70.9320831  13.6864781  32.1004438
  41.7277431  34.4446850  26.6271210  41.6298771  33.4944367  26.6877699
  40.8927822  34.7919726  26.9409108  60.1487494  31.1427546  51.0117102
  60.5028820  31.9993067  51.2507534  59.7335339  31.2841964  50.1609325
  35.5870366  51.4001322  32.7319002  35.0797915  50.6437540  33.0265665
  36.3112235  51.0229683  32.2323656  30.7824850  28.6808991  56.2302780
  29.9077535  28.4353709  55.9289598  31.2118959  27.8475547  56.4236021
  25.8026913  69.1357414  68.2599787  25.3319005  69.0430204  67.4317330
  25.1165322  69.1307942  68.9273594  36.4865756  47.0337629  25.1128435
  35.6323647  47.2311306  24.7286534  37.0755649  47.6873207  24.7357726
  17.4498212  76.9935179  11.7146444  16.6808665  77.0496464  12.2819114
  17.4605143  76.0845137  11.4149284  66.4884853  32.0719314  41.0092783
  66.4456558  32.0899606  40.0532103  65.8722258  32.7486587  41.2894440
  54.6901369  32.8527617  65.4152060  54.7007370  33.6079454  64.8271465
  54.1345835  32.2116899  64.9717903  31.7272878  40.3069353  30.0260711
  30.9405613  39.9219394  29.6399736  31.9697142  39.7030449  30.7280517
  59.1180468   2.9524803  41.3582277  59.7150660   2.3220417  40.9553051
  58.2965612   2.4721500  41.4615631  79.6333838  75.8050299  31.6678119
  79.2524433  76.0918331  30.8378363  79.5860863  76.5765762  32.2323585
  73.5356045  70.2320194  45.0555801  73.8738012  69.7027016  45.7778502
  72.5916624  70.0734711  45.0639677  78.6050320  20.6773829  12.4169064
  79.1730022  20.7613134  11.6510117  78.6452150  21.5350437  12.8400302
  21.8996930  76.3499546  53.6137962  22.1629286  75.6461859  54.2067957
  22.7248025  76.7152166  53.2944107   0.6571318  47.0915651  68.2992363
   0.4282681  46.8501043  67.4017143   0.1796992  46.4663744  68.8446093
   5.6780177  68.5331106  35.9345436   5.3155023  68.2364893  35.0997806
   5.4509741  67.8397417  36.5541625  44.5805120  18.2258868  56.9362783
  44.7103310  19.1431129  57.1772718  43.7192392  18.2074630  56.5190220
  11.4057803  65.3870106  53.6973333  11.7523623  66.0279274  53.0765772
  10.5029106  65.6656885  53.8502932  10.5251908  51.8732929  37.5697899
  11.2257266  51.2949800  37.2680664  10.6502104  51.9268322  38.5172796
   7.2518069  21.2321949  47.1083450   7.7424151  20.8388925  47.8300428
   7.5401741  20.7512999  46.3325739   2.4724536  53.1691980  63.0611801
   1.5764159  52.8327274  63.0728960   2.4821600  53.7996483  62.3409939
  57.5488567  65.2686262  33.8112879  58.1987381  64.6370792  34.1195631
  57.1622944  64.8566675  33.0385685  56.3485050  43.7110806  64.2223024
  57.2303581  43.9846706  64.4747353  56.2855196  42.8029919  64.5183420
  64.5771551  14.9201238  51.0567379  65.0743151  14.7158659  51.8487883
  65.2411938  15.0065649  50.3727674  61.2550402   7.8721792  32.1879601
  61.6698074   8.3677280  31.4818239  60.3245306   7.8685653  31.9635320
  49.6828747  12.0453274  27.8557110  50.0006056  12.2920156  26.9871354
  50.4000998  12.2739267  28.4469509  76.6018677   4.7655249  47.5497055
  76.3705778   5.6519246  47.8272486  77.5577164   4.7421509  47.5948763
  29.6903133  30.4169822  15.4196239  28.8890171  29.9056244  15.5321789
  29.5021200  31.2537622  15.8446133  22.6790857  65.2421856  21.2520051
  22.7443409  65.2866030  22.2059441  23.2599592  65.9358978  20.9396338
  80.6572056  44.7398090  50.3178406  80.9150219  45.5714941  49.9202776
  81.1649609  44.0805864  49.8447227  35.1515341  32.4364471  36.9756746
  36.0462189  32.7496743  36.8427849  35.2337337  31.4833236  37.0077372
  34.1150856   2.9698569  27.0561171  34.5192003   2.1459290  26.7839646
  34.3005872   3.0295432  27.9932714   2.5138697  19.9762321  43.8868999
   2.1834503  19.8528314  44.7767448   2.3910558  19.1255128  43.4656811
  35.1000404  12.2415543  27.1084785  34.2823792  12.6031435  26.7665505
  34.8263741  11.6574359  27.8156877   2.4640381  57.0732164  57.2798824
   2.1755928  57.4531078  56.4499950   2.0967592  56.1892843  57.2791576
  61.5295935  24.4744444   0.2265549  62.4463892  24.3651247   0.4790611
  61.3579750  23.7480831  -0.3727612  57.5379944   9.4716698  29.5143223
  57.5045586  10.4240704  29.6040225  56.7590141   9.2517233  29.0033960
  36.3520074  60.4495621  13.4182322  37.1261668  60.8370590  13.0098772
  35.6216359  60.7431889  12.8736484  57.4506712  11.9685304  13.7203026
  56.5102339  11.7921567  13.7467551  57.5133467  12.9102921  13.5609663
   4.5329687  59.0995216  57.9684877   5.1886857  59.0823936  57.2713709
   3.7098813  58.8872671  57.5283670  10.4946494   6.6440541  61.8175840
  10.3259802   5.7123727  61.6770411   9.9145210   7.0884144  61.1993408
  32.0274997  20.4353976  34.5814705  31.3601613  19.9997461  34.0512848
  31.5314531  20.9080648  35.2498674  28.2938004  20.8137012  21.5820384
  27.7182722  21.2850285  20.9796691  29.1527343  20.8370304  21.1602283
  34.1248894   8.7205154  63.3997107  33.4557986   9.1884530  62.9001284
  34.8730254   8.6655444  62.8051519  56.3630486  13.3609414   4.4013008
  55.7756138  13.3420432   3.6457914  56.6558886  14.2707026   4.4542983
  24.1420531  65.8188772  13.6032450  24.1438794  66.7635393  13.7576342
  24.9615502  65.6506205  13.1381142  34.5552754   8.4477586   8.4667754
  34.0364385   7.6435184   8.4822077  35.2692986   8.2604969   7.8574008
  70.8166504  45.1031065  54.5832443  71.1834049  44.2567730  54.3274260
  70.5179024  45.4928827  53.7616253  79.4357109  33.7715983  36.5136099
  79.5360422  34.2684913  35.7016611  78.7048531  34.1944790  36.9644499
  45.6620216   0.1606035  32.6727295  45.0656176  -0.3497614  33.2205057
  45.0881195   0.6341633  32.0705605  31.4782691  63.4567165  26.9950604
  32.3142886  63.7596083  27.3494077  30.8193588  63.9643955  27.4686980
   5.9538198  76.3693285  28.4218287   5.1159149  76.2476492  27.9753518
   5.8348274  77.1639538  28.9420652  48.8159180   5.3155392  34.6942234
  47.9390049   5.6984478  34.7195888  49.4053507   6.0578495  34.8275495
  37.8691649   7.0949197  47.0794153  38.5521293   7.5476956  46.5846586
  37.9785037   6.1722380  46.8493414  10.2257764  76.6620970   4.7624525
   9.7740990  75.9449339   5.2073044  10.4568005  77.2712612   5.4637206
  30.0261092  77.5571918  31.3572812  30.9296751  77.7908945  31.5698504
  29.5076776  77.9338694  32.0683193  47.3999023  11.5121341  51.5171242
  46.7494345  11.6002715  50.8204508  48.2034874  11.8717515  51.1414099
  55.8829451  19.8263180  48.8915539  56.6480970  19.2855322  49.0873194
  55.1354361  19.2827284  49.1404915   0.4043791  14.3360722  24.8491573
  -0.0332811  14.8340786  25.5395746  -0.2987268  14.0926480  24.2469788
  73.8770866  20.7076263  30.2238679  73.5552406  21.0614157  31.0530138
  74.0982723  21.4800644  29.7036314  10.9412372   7.9140484  15.6692433
  10.9907174   8.8689607  15.6253517  10.1464438   7.6928353  15.1838589
  53.1043911  75.0095654  23.8059807  52.7300167  75.8803129  23.9396834
  52.7558327  74.7262001  22.9607320  37.7606821  31.6399956  43.0804396
  37.1748614  32.2125125  43.5756874  38.1994772  32.2237968  42.4616766
  19.8425770   6.7305690  35.3293133  19.2994821   6.1149079  35.8214951
  19.2336214   7.4114203  35.0432253  24.2210460  50.1033974  14.4253206
  24.4238162  49.4047165  15.0473845  23.5438609  50.6218863  14.8598588
  36.4721751  16.8652892  48.6497736  36.7170072  17.7469599  48.9307451
  35.5660558  16.9512999  48.3534956  65.3875017  70.4811716  41.4939642
  64.5612144  70.0896025  41.7770767  65.2376413  71.4247894  41.5518999
  83.6218739  76.0040092  35.4991317  83.7977505  76.8978167  35.7930756
  83.7808609  75.4620647  36.2719536  38.9552593  29.2196560   3.9113569
  39.1642690  29.9956131   4.4313937  39.7199941  29.0948534   3.3493644
  23.4121752  51.6298723  44.6738815  23.1022239  51.7761326  45.5676222
  24.3655086  51.6862488  44.7387505  64.5742226  18.5160339  31.5370655
  65.1667786  18.6427462  32.2780490  64.4708633  19.3901086  31.1608481
  38.4428620  23.0277872  46.7019081  38.1172585  23.9108586  46.8762636
  39.3350148  23.1603956  46.3814306  12.0831764  67.3744917  38.5352945
  11.2075150  67.2494507  38.1694889  12.6732063  67.2514057  37.7916908
  45.0258970  75.2809381  45.0577974  45.7684994  74.7017860  44.8864698
  44.9063349  75.2427673  46.0067320  28.1111550  67.2454882  34.7379875
  27.6092696  67.2925043  35.5517006  27.4768710  67.4563980  34.0528369
  11.4763355  64.5478249   7.9768676  12.2033477  65.0149250   8.3885705
  10.9381950  64.2486286   8.7097502  22.4446154  22.2538471   5.9492594
  22.0718598  23.0040193   5.4860890  21.8544865  22.1120048   6.6894358
  16.6137040  29.8851061  12.4950767  15.8972931  30.3258753  12.0382285
  16.3617229  28.9616895  12.5011373  56.6175556   8.5814661  14.8214877
  57.1056128   7.8829330  15.2574718  56.8391752   8.4863585  13.8951671
  18.2778120  72.5267601  39.7561789  18.1860983  72.6364994  38.8097239
  18.5126936  73.3976078  40.0766230  63.3630991  52.5900698  54.9703979
  63.4989452  52.2394800  55.8506632  63.6682081  51.8957901  54.3863487
  36.9195342   4.6655682  40.1744795  37.6202297   4.4721884  39.5516920
  36.1146641   4.4459876  39.7052217  53.5974503  64.0549707  26.5436101
  53.5852575  63.6873865  25.6598878  53.1418753  64.8927259  26.4608598
  43.0138159  19.0540302  41.4258385  42.3107338  18.4520757  41.6698837
  42.9174662  19.7916496  42.0282269  47.0975208   7.6832151   8.2007271
  46.2318945   7.2750425   8.1830078  47.1899605   8.0099976   9.0956575
  27.3675966  16.8016994  23.9307189  26.6567898  17.1347380  24.4785047
  27.2287750  15.8548987  23.9076900  79.5724535  65.3904819   5.1958209
  78.8319683  64.9140644   4.8203999  79.2888260  66.3046408   5.2058417
  15.1165962  66.4504051  49.9332666  15.3955364  67.2276688  49.4492435
  15.4464149  66.5898752  50.8209610  14.6429920  20.2028131  30.1704574
  14.1901815  20.9368229  30.5857015  14.8210788  19.5945430  30.8877587
  19.2727149  65.6926060  46.6237068  18.8301897  66.5011501  46.8818951
  19.7700715  65.4335594  47.3994446  17.0595860  78.5665894  35.6488800
  17.1379757  78.4145546  36.5906715  17.3622739  79.4662523  35.5254889
   1.0617626  23.4953260  17.5553799   1.3248628  24.1566420  18.1954348
   0.5729505  22.8494644  18.0654383  27.2417188  68.5566139  42.1305418
  27.8447843  68.3866644  41.4068937  27.0178962  67.6880550  42.4648094
  37.8888798   9.5138359  50.4422522  38.0660868  10.1795042  49.7776365
  38.3170700   9.8440373  51.2320948  53.1630659  67.8267050   5.1504070
  52.7034473  68.5828114   5.5154854  52.5811863  67.0865011   5.3228867
  31.1980033  34.8068357  39.9384546  30.9863448  33.8786983  39.8384953
  32.1524358  34.8287225  40.0078201  14.6090531  30.2134347  26.0359406
  14.4094110  31.1012983  25.7391644  14.6608186  30.2854371  26.9890261
  46.8397570  26.4033675  55.4172421  46.6153812  26.1140680  54.5328236
  47.2081852  25.6261277  55.8372355   4.8972386  59.6486139  24.1713095
   4.1019934  59.5848227  24.7002220   5.2516931  58.7594938  24.1635609
  22.8138709  76.5555334  35.8356929  22.3718047  75.9664059  35.2243543
  23.1878638  75.9756470  36.4990878  76.5572596  17.5136530  32.3927450
  76.0944271  17.4803460  33.2299471  76.0842323  16.8979764  31.8329048
  34.2411637  17.3611307  19.2568910  34.5167994  16.5290797  19.6415305
  33.3491540  17.1991909  18.9497662  53.8125420  25.1129961   0.2741281
  54.2619848  24.2680812   0.2552933  54.5139456  25.7549858   0.3841846
  65.1772261  25.4797316  19.4893360  65.0690174  25.4938388  18.5383773
  66.0959911  25.2465200  19.6224165  39.9655724  68.0215645  41.7794180
  40.2482557  68.9067650  42.0090628  40.7079315  67.6489067  41.3037443
   2.9591683   5.6213385  68.5006428   3.7772691   6.1174405  68.5293818
   3.0014780   5.1372141  67.6759815  63.5916805  33.1633663  17.2594881
  62.6934910  33.3175373  17.5522614  63.5921669  33.4267330  16.3392329
  80.7814312  32.4183059  17.1720302  79.9110079  32.0267653  17.2447515
  81.3745880  31.7483377  17.5119388   3.0917364   6.4990622  55.4270411
   3.8863787   6.6123158  55.9485292   2.8730413   5.5720294  55.5219889
  57.0173836  19.8830175  28.4344125  56.4023399  20.3271961  27.8507543
  57.5974894  19.3984401  27.8471351  59.1644239  15.9693408   2.7603027
  58.6181450  16.0974491   1.9848049  58.5768986  16.1360860   3.4973493
  21.3961172  71.0098267  67.5287151  20.9630847  71.0929251  66.6791248
  21.1858177  71.8243361  67.9854250  24.1602182  73.4397268  14.4822669
  25.0088787  73.8820410  14.4631052  23.5250092  74.1322803  14.3003142
  61.0086250  21.1790919  33.1582570  61.4202881  21.5442133  32.3750257
  60.0944805  21.4568925  33.0999994  43.2762623  37.2475195   5.7112056
  44.1337299  37.3496723   6.1241817  43.2961559  37.8481650   4.9661824
   4.4550213  53.7944794  34.9603033   4.0416393  54.2294216  35.7060719
   4.0878004  54.2336893  34.1931820  54.6445274  28.1609654  30.2558470
  54.7049189  28.9946342  29.7893906  54.7158623  28.3981323  31.1804509
  62.9062176  25.1476645  38.1433654  62.6044321  26.0481739  38.2626987
  63.8610315  25.2144074  38.1332207  54.5589399  51.7832232  11.8113637
  55.3044748  52.1908808  11.3706529  54.3338728  51.0348654  11.2586069
  69.1102362  14.0331066  34.6255493  69.1330481  13.9770067  33.6702681
  69.6500635  13.3001375  34.9214816   0.5370564  16.4867651  20.8039498
   1.4777310  16.3407648  20.9041858   0.1851495  15.6282377  20.5687428
  65.5661583   8.8817120  24.4364119  65.8996773   9.6766758  24.8523855
  66.3421154   8.4623396  24.0645885  23.1992793  12.3531067   6.0180038
  22.9882026  11.5158093   6.4310569  24.0352941  12.1991074   5.5780113
  67.6461935  14.8794627   7.1925443  68.1006527  15.5238330   7.7352113
  67.3218203  14.2284286   7.8147703  45.4756880  61.4481163  25.7859921
  46.3230515  61.3270664  26.2144232  45.3645802  62.3976803  25.7389283
  81.7654228  69.6249294  59.2008591  81.1265755  69.6531820  59.9131107
  81.4932346  68.8803959  58.6643696  61.0123205  33.5361028  18.2764494
  60.7288980  34.4410443  18.4067774  60.5623913  33.0430388  18.9625108
  14.2039061  66.0206366  68.1489849  13.2917285  65.8568430  68.3884335
  14.2433941  66.9631529  67.9866982  71.4416027  27.5478601  22.3981380
  72.2671270  27.5133085  21.9148684  70.9450436  26.7946839  22.0781612
  36.1801982  63.5204029  26.6139889  35.8641553  64.1684151  25.9843612
  36.5895987  64.0391254  27.3064828  61.8932056  18.3340287  15.4331505
  62.7466774  18.2134736  15.8494258  61.9733238  19.1608691  14.9576008
  75.2150917  77.5312090  66.6052580  74.4580603  77.0631838  66.9575262
  75.8235264  77.5912428  67.3417568  28.4488058   6.3312244  10.2430391
  27.7324820   5.8716941   9.8049265  29.0785909   6.5133470   9.5455903
  37.8301573  16.8848491  10.3659248  37.3820877  16.9436574  11.2097311
  37.1444273  16.6322422   9.7477037  17.4514306  38.9312243  37.0291185
  18.3862126  38.8634300  36.8346500  17.3550308  38.5198927  37.8880405
  66.8809986  15.3680360   2.0067696  66.5190268  14.8594236   1.2811512
  67.5203133  15.9500015   1.5958834  79.8309469  20.2922773  47.4183130
  80.6447029  20.2761626  47.9220724  79.5528173  21.2078762  47.4417877
  41.1598253   6.6547620  31.3083243  41.2282085   7.2473776  32.0568991
  40.6699276   5.9031105  31.6418672  54.0616465  13.3014476   8.3517253
  54.1321802  13.0085564   7.4431705  54.9666309  13.3438611   8.6606473
  13.4623635  73.1760025  39.5336342  13.1753862  72.4222517  40.0491285
  14.2338002  73.5029793  39.9964571  68.2442141  49.2126989  35.4328871
  68.5891056  48.4593964  35.9122801  67.4387741  49.4429922  35.8959913
  27.3442483  52.4582911  56.4407206  27.4138737  51.5419197  56.7083883
  28.2048130  52.6678371  56.0777426  73.4332895  24.5465803  17.8851414
  73.6633492  23.9111185  17.2072828  74.2749119  24.8779774  18.1983232
  74.9639988   6.6836011  19.5645463  75.6234646   7.2280538  19.1345358
  75.3353024   5.8014685  19.5502329  50.8087921  27.1452022  20.7419682
  51.3869095  26.9143534  20.0148344  51.3928986  27.2261810  21.4959526
  15.2854347  21.7327666  38.6039519  15.1841772  20.8631039  38.9908218
  15.6357610  22.2712612  39.3135476  67.2132015  61.7357349  68.1955481
  67.0317316  60.8154535  68.3863020  67.5416183  61.7337322  67.2964525
  29.7158384  63.0050564  55.6910467  29.8303604  62.1722698  56.1488533
  30.5649924  63.4399223  55.7689095  58.3607149  27.2060561  46.8571901
  57.7600670  26.8103552  46.2256241  57.8241110  27.8395271  47.3336363
  63.3802843  74.3505716   8.8312745  62.8810978  73.5898256   9.1284364
  63.2836246  74.9907541   9.5362961  18.8452256  54.4790173  10.9100330
  19.5821452  54.0537500  11.3485885  19.2345226  55.2290201  10.4603982
  71.1521673  11.6175771  46.1849451  71.2225294  12.1612144  46.9696331
  71.3790703  12.2059333  45.4648161  62.7703762  48.9662790   7.1513766
  62.4494410  48.5718727   7.9623479  62.1911383  49.7137308   7.0029646
   8.0751264  21.0486627  35.5565786   8.8705152  21.5717912  35.4569507
   8.3863920  20.1442552  35.5938816  57.5641775  24.7516155  50.2557135
  58.0835962  25.5335140  50.0684404  57.6983309  24.1869736  49.4945192
  38.8403344  18.2667994  14.2337513  39.5119905  18.7053597  13.7114727
  39.2334986  18.1755352  15.1016939  34.2247272  68.7051296  29.1770315
  34.5941830  68.2439756  28.4239912  33.4762144  69.1839123  28.8210416
  80.1413822  11.7758775   8.3852279  80.2906227  11.2101007   9.1427606
  80.8641720  12.4029863   8.4085619  64.5374632  31.8047237  19.3854606
  65.3798723  31.6399908  18.9618516  63.9952660  32.1915698  18.6979985
  66.0225868  24.4638109   2.9044470  66.0222006  25.4154134   3.0078235
  66.0599232  24.1257071   3.7991673  53.6716557  75.1057482  16.5853429
  54.3597984  74.7403908  17.1414042  54.1141415  75.7780075  16.0671675
  72.9622030  10.1949227  47.9512024  72.5036955  11.0333490  48.0063677
  73.1308222   9.9537665  48.8620520  77.3984814  29.2194772  49.7176027
  77.5625992  28.3198333  49.4348669  77.3613214  29.1673851  50.6726599
  39.0427184  58.4064198   8.5189575  39.2443967  57.4770832   8.6280274
  38.9877486  58.5299683   7.5713581  72.4727249  26.9372034  39.1084170
  72.4390125  26.4009237  38.3162689  72.5485277  27.8354526  38.7864995
  72.9411173  33.1387401  44.1898251  72.1515846  33.3366585  44.6935081
  73.1006956  32.2086716  44.3502617  80.2539062  34.3443942  22.7194881
  80.9257412  35.0247383  22.6747751  80.6038094  33.7024975  23.3373594
  67.7601576  30.8067703   4.6523970  68.6600828  31.1245203   4.5788911
  67.5519705  30.8901501   5.5829549  52.1434593   8.4322184  20.6321788
  51.2059164   8.5991520  20.5353117  52.4378777   8.2011694  19.7511780
  53.2011509  18.4885669  51.9270277  54.1097212  18.2674038  52.1315384
  52.7188349  17.6738107  52.0676613  35.7300806  73.5107756  49.7586346
  36.3315487  72.7666569  49.7311306  36.0094523  74.0164804  50.5218172
  73.1501532   6.3642687  29.5658350  72.3998594   6.7355978  29.1017199
  73.8675308   6.4060223  28.9334917  55.4821157  29.3259716  45.3902531
  54.9083042  28.6236095  45.0842190  54.9518394  30.1191401  45.3132963
  11.3659346  45.7387304  65.3985691  11.0561359  46.5796089  65.0621367
  11.3858426  45.8535433  66.3486481  54.1419697  27.7982712  27.3052764
  53.7718344  27.5254130  28.1447887  54.4168186  28.7040234  27.4477577
  15.9504259  56.4423418  17.9570675  16.2070870  55.8420849  17.2570312
  16.1858702  57.3095465  17.6272893  41.1419487  61.3126087  26.1549282
  40.9051132  60.3860521  26.1953712  42.0710993  61.3325453  26.3840985
   9.6096975  13.6749125  41.3277006   9.2552161  14.1348016  42.0886707
   9.1162205  14.0240693  40.5855417  83.4208775  23.2340717  43.6828852
  82.9782295  24.0665460  43.5177326  84.3425369  23.4697652  43.7888336
   4.0316954  32.5235105  42.2485161   4.0872574  33.2210588  42.9016399
   4.6742707  32.7674341  41.5823126  71.0938025  31.1660171   3.1623411
  71.2971497  32.0144176   3.5561633  70.2175188  31.2770271   2.7935070
  53.7618399  34.0236783  53.7026310  53.6847067  33.2034302  54.1899490
  53.4759617  33.8033557  52.8160858  78.6938047  16.9994736  22.6872349
  78.8237810  16.1435831  22.2788358  79.4555378  17.1116555  23.2559252
  51.3069010   0.9142146  45.0436544  51.8901443   0.4948270  45.6762457
  51.6019249   1.8242846  45.0125790  57.8111076  23.1892014  57.1553707
  57.4045467  23.1151700  58.0187702  57.8073454  24.1279888  56.9685650
   0.9866662   3.9565921  29.1732073   0.6576583   3.0714262  29.3296266
   1.9291516   3.8435185  29.0500498  81.3348866  53.2087708  24.3081427
  81.3558388  52.6208067  25.0631857  81.3348770  52.6247787  23.5497355
  35.4340124  74.7359562  13.7843382  35.6658530  73.9079809  13.3636904
  34.4835114  74.7955179  13.6882508  63.5851145   8.7650472  19.8487794
  63.1112528   8.9488745  20.6598854  63.4765530   7.8233194  19.7161341
  33.0104494  65.7667065  34.9828744  33.9447641  65.8768845  35.1593637
  32.7079797  65.1634502  35.6617141   9.1740245  68.9786482  40.7857418
   8.8263434  68.4254217  41.4852381  10.1220310  68.9635134  40.9172249
  48.8397360  16.1124086  20.7304168  49.3935776  16.4393723  21.4393497
  48.0117941  15.8902419  21.1563087  55.0790882  23.5824895  12.7759778
  56.0023594  23.7615013  12.5977731  55.0814438  23.1285572  13.6186934
  45.9113789  16.4113784  10.6248486  46.3663006  17.1319640  11.0607791
  45.5587006  15.8827984  11.3407075  72.1244431  11.2134600  26.3843656
  72.0911217  11.7179596  27.1971393  72.5444126  10.3894269  26.6309977
  40.7750702   9.2751169  60.3695250  40.2121735   8.9291519  59.6769285
  40.3715467   8.9686221  61.1815977  57.6126623  57.0884228  61.0916376
  57.1856213  57.7004290  61.6910696  58.5196304  57.0494127  61.3951349
  40.2477980  18.9805222  12.0474041  40.3791189  19.5218861  11.2690008
  39.7133589  18.2475030  11.7419660  12.0946443  76.5308142  45.8073902
  12.4651337  77.4134064  45.8066893  12.8092575  75.9708405  45.5040979
   0.8770023  27.2420335  61.4215803   1.4613616  27.9180408  61.7647552
   1.4645050  26.5803337  61.0565758  42.8500795  46.5122175   7.3013282
  42.8752756  47.4049234   6.9568372  43.7288141  46.1684895   7.1403700
  55.5131054  68.1544876  46.8699503  55.0005674  67.7847719  47.5888729
  54.9053001  68.7406826  46.4191961  72.1493483  28.2332969   9.0816075
  72.6623678  28.9279461   9.4945258  71.9775105  27.6103902   9.7877890
   7.6330489  47.1644974  22.0132518   8.0420071  48.0234289  21.9073439
   8.2932740  46.5449333  21.7026401  69.7668552  22.8015280  21.2995744
  68.8805008  22.7762079  21.6600800  70.2410269  22.1242023  21.7818832
  25.9946561  60.1217031  27.0485735  25.6877971  59.9764490  26.1536026
  25.2176857  59.9915361  27.5922680  71.6211557  38.1748247   0.8369183
  72.4409771  38.6679888   0.8670592  71.3110495  38.1701088   1.7424822
  72.2423077  14.6360016  12.2747028  72.6121998  13.8185310  12.6080978
  72.9815435  15.2438295  12.2572470  33.7481165  62.7098274  50.8642149
  34.2470789  62.6909637  51.6808653  33.6447620  61.7886877  50.6253529
   0.5901776  21.1838889  19.2838621  -0.1818391  21.1830354  18.7179804
   0.2435176  21.3434529  20.1617002  68.1339788  48.3506060  45.1358652
  68.0611658  49.3042421  45.0970364  68.9358521  48.1916952  45.6338406
  57.8175879  30.7203484  10.1185155  58.1203270  30.4036999  10.9695816
  58.5203505  31.2936568   9.8124534  26.0899782  69.9333811  57.2893047
  25.7732892  69.0542650  57.0817232  26.1308265  69.9536896  58.2454157
   2.5554013  29.0639663  53.0416489   2.9465762  28.6774111  52.2582054
   1.6128838  28.9492226  52.9202986  68.6467695  51.0794783  44.7903728
  69.2167664  50.6358528  44.1622543  68.1332111  51.6882133  44.2594004
  70.2180243  37.4384499  57.0057106  69.9655819  37.9029536  57.8036690
  69.6805334  36.6464138  57.0094156  76.5186405  23.5126138  55.8337307
  77.3408318  23.9993000  55.7756519  76.7870474  22.5965047  55.9039927
  80.1909924  51.0271215  47.3443460  79.4711494  50.5415726  46.9414806
  80.6570911  50.3746033  47.8670263  79.4753170  35.0758624  34.0366578
  80.2991676  35.4678321  33.7470675  79.3235064  34.3568730  33.4232736
  59.0384150  70.7046366  37.4141335  59.3173504  70.2921057  38.2315946
  59.3145227  71.6171217  37.4999499  66.8780279   9.0992063  27.5209188
  66.4358330   9.6213919  26.8515778  67.6573563   8.7578934  27.0823073
   8.4623522  28.0273819  26.3089848   8.5682499  28.9787030  26.3116121
   9.2745626  27.6970387  25.9250331   9.3010145  23.8165903  34.9178386
  10.2537906  23.7983394  35.0079250   9.1071165  23.1262016  34.2838049
   2.5091892  36.9992185  46.9027853   3.2183194  37.4119115  47.3957872
   1.8300213  37.6717877  46.8516588  61.0119867  17.0274973   5.7218128
  60.4682159  16.8286026   6.4840376  61.2172794  16.1721754   5.3443044
  72.7566862   7.6891029  11.8255782  73.3628321   8.1850058  11.2752151
  72.5042582   6.9385397  11.2878346  11.1924756  33.9862132  40.3356123
  10.8302832  33.5479212  39.5655823  10.5883360  33.7639403  41.0440207
  33.6974931  61.6485262  59.9263668  32.8282666  61.9349003  59.6458864
  34.2984605  62.0710945  59.3127680  69.6822357  31.0792470  35.1122308
  69.3189859  31.2543607  35.9803414  68.9431286  31.1960387  34.5153117
  76.3083744  38.8718724  30.5194783  75.7832098  39.5760465  30.8997083
  77.1716833  38.9737868  30.9201622  63.2825136  50.7122946  33.1391215
  62.3879719  50.6474543  33.4735298  63.7650919  51.1633062  33.8318968
  13.0011439  20.6503224  26.6880608  12.3014724  20.1083302  26.3234568
  13.1243682  21.3475609  26.0439301  62.2931814  30.5834627  14.3793094
  61.6657019  31.0916734  14.8933387  61.7540407  29.9637389  13.8878810
  78.5691023  35.0730324  12.1684647  78.4157944  34.4432807  11.4640927
  77.7361584  35.5353141  12.2619283  22.3544121  77.1844053  19.1544378
  21.9100928  77.9641867  19.4872344  23.2196355  77.4964952  18.8894451
  18.4388494  44.1665554  39.2481613  17.8024912  44.8397779  39.4890976
  19.0364933  44.6071291  38.6440539  22.4825311  45.2646875  43.7728643
  22.6540637  45.9271097  44.4422007  23.1202126  44.5734262  43.9510489
  11.2615001   7.6770377  64.0348864  10.8789110   7.3009217  63.2421732
  10.6044650   8.2998884  64.3456793  65.4677343   1.1913741  25.3743219
  64.6953583   1.6630220  25.0625300  65.9573126   0.9813107  24.5790720
  72.3097944  77.8951788  43.1755066  71.4425802  78.0995464  42.8256512
  72.3081398  78.2723761  44.0552521  16.3624036  68.7314272  66.1652422
  16.8601608  69.4254065  66.5975237  16.5185046  67.9545927  66.7022657
  16.4824605  11.1196089  47.4521351  16.7454624  11.2792456  48.3585453
  15.5725408  11.4139187  47.4113894  38.3372355   9.4265938  32.8349614
  38.4842110   9.2977208  33.7719893  38.1429195  10.3599250  32.7491379
  73.8631916  35.1253819  30.1942635  74.1568756  35.7694459  29.5499301
  73.2881021  34.5393920  29.7022057  24.8285222  32.9564857  25.4889441
  25.6092405  33.2751465  25.0359964  24.9612236  32.0111012  25.5587244
  63.7921047  32.9620695  40.0431108  63.0959749  33.4792423  39.6379375
  63.5324478  32.8887630  40.9614992  56.6518497  39.6278191   1.6010992
  56.9929552  38.7911940   1.2849697  56.5552473  40.1606989   0.8118333
  35.9188843   4.8273218  60.9159088  36.0405898   5.3968114  60.1562357
  36.7657495   4.3960121  61.0300398  55.5149889  18.1213534  58.2774925
  55.3121853  17.3342264  58.7829971  55.2577257  18.8454390  58.8482380
  78.8515520  46.9850111  17.1051621  79.0219641  47.0658016  18.0435991
  79.7168636  46.8644047  16.7141128  22.5855637   9.9749768  41.3472748
  23.1941032   9.7177196  40.6546497  22.2189260   9.1490382  41.6629219
  68.0748272  22.1681261  47.3795938  68.7592220  22.2111654  48.0474138
  68.5510063  22.1505713  46.5494299  80.3946400  33.9270186  46.8805838
  80.3316593  33.0884266  47.3377752  81.2847614  33.9418006  46.5288639
  64.6873093  39.3668699  48.2812738  64.1494370  38.8273644  47.7017403
  64.0555382  39.8735213  48.7915659  43.8715410  20.2664328  15.5434370
  42.9631186  20.2114248  15.8400416  44.0300131  19.4324565  15.1011693
  62.7192688   2.9921255  46.4497948  62.5876904   2.0440573  46.4405346
  63.5555983   3.1134832  46.8992996  72.7053690  64.7918510  50.5807161
  72.7838802  65.2076769  49.7221375  72.3310518  63.9303970  50.3962898
  75.5477238  22.1916986  19.1742945  75.2966547  21.8226361  18.3275437
  75.2235699  21.5601683  19.8164213  66.6405058  44.3784380  52.3467827
  67.1131516  43.6902332  51.8785810  65.7918644  44.4280624  51.9068050
  32.4349976  74.1188669  27.3720503  32.0774436  73.6933756  28.1513715
  32.3139858  73.4772968  26.6720676   6.9607604  54.5146465  40.9975052
   7.7304721  54.4520855  41.5630674   7.0141387  53.7426662  40.4340982
  62.5677061   6.5276325   5.3970724  62.8565264   5.7789630   4.8752397
  62.5187206   7.2507572   4.7718343  66.6321468  60.2764177  29.5083022
  67.3128796  60.2539539  30.1808524  67.0256758  60.7651043  28.7854242
  54.1400957  75.9667444  45.2190685  53.6703682  75.5138254  44.5187473
  54.8154020  75.3467751  45.4944372  55.5335760  18.6841178  55.6015253
  56.4127970  18.6892891  55.2231359  55.6564760  18.3455336  56.4883661
  77.7805567  39.4303441  58.6198092  76.8721008  39.1293669  58.6386347
  77.7554846  40.2353954  58.1026125  81.0460567  40.6583214  62.2330618
  80.7798576  40.6894350  63.1519747  81.0146141  41.5701580  61.9435835
  83.9140797  40.3691244  24.7399735  83.5658073  41.0862064  24.2101312
  83.1755829  40.0910664  25.2817655  28.0864882  72.0559883  47.5825453
  28.5043716  72.8906775  47.3706579  27.3123574  72.2979307  48.0908918
  66.7022514  43.5234022  54.9764109  67.1898174  43.6076689  54.1570139
  66.9582129  44.2912149  55.4874706  77.1446657  31.5156555  23.4924078
  76.9503403  31.8169856  22.6048994  76.7350531  32.1671581  24.0616155
  36.3957381  60.5739069  66.3998699  36.9491124  59.8378611  66.1386299
  36.1747575  60.3948545  67.3138380  83.3261776  73.0949116  29.5660734
  83.0268669  72.4492264  30.2061796  84.2705631  73.1550121  29.7101259
  46.9416809  78.6806250  46.2511539  46.2716913  79.2009974  45.8078051
  47.4349594  78.2700920  45.5409622  44.9432516  71.1291456  58.4528446
  45.5861282  71.7712641  58.7538815  45.4235315  70.5830288  57.8304911
  55.9632254  12.6358867  28.0284357  56.6997337  12.5768518  28.6369610
  55.2352285  12.9520929  28.5634708  74.0268040  73.5683632  22.5617957
  73.4091616  73.9092112  23.2087708  73.4742689  73.1628180  21.8936110
  41.6074896  53.4998655  15.0120151  41.5083838  54.3657017  15.4079211
  42.3101616  53.0862427  15.5134153  70.6646395   8.9980114  60.9224987
  70.2744579   8.4175068  61.5759563  71.4207029   8.5128123  60.5920744
  81.2574291  29.1748905  65.0836086  81.1568356  29.7762847  65.8214712
  81.1991882  28.3034229  65.4752541   7.8228492  50.2043056  64.4730520
   7.9624933  50.6375599  63.6310196   8.2485068  50.7773447  65.1107597
  66.1153269  44.6277666  32.0202160  66.0372972  44.4657660  31.0800552
  66.4599657  43.8089371  32.3765588  70.1346350  65.8816433  49.2301130
  70.1483202  65.3831768  50.0471640  70.1432705  66.7975378  49.5081425
  72.1974277   8.4716284  35.0475669  72.1444368   9.3064260  34.5822310
  71.6343927   8.5878670  35.8128858  63.5894156  41.1877394  36.3162613
  63.8161659  41.8584442  35.6720781  64.4326925  40.8435678  36.6106439
  73.3924150   9.8773170  50.5084181  72.7706766   9.6295434  51.1927319
  74.0576696  10.3927803  50.9644508  60.7915163  18.6243749  34.3343520
  61.5184975  18.4490681  34.9318433  61.0405016  19.4318211  33.8846087
  48.7701654  65.4758883  67.0710039  48.9705896  64.6019697  67.4061537
  47.8421688  65.6014204  67.2692347  22.8931761  69.1423988   5.8600569
  22.8258467  68.7897730   4.9727270  23.8260913  69.3225145   5.9760624
  72.4594450  30.9096813  67.7642727  73.2564259  31.1416411  68.2409763
  71.9313669  30.4277229  68.4007311  61.2597609  65.9465837   1.9364162
  61.4817905  65.1114130   1.5248063  61.0086489  65.7138014   2.8302765
  63.9227581  33.8351560  14.6382868  64.6820450  33.3868289  14.2658329
  63.1889343  33.5604978  14.0884697  28.6137342  47.9553652  53.7506580
  28.6629748  47.7744293  52.8120041  28.8859916  47.1374989  54.1668367
  76.4229345  33.6992288   0.3775560  76.1499262  34.5262671  -0.0195666
  76.7289591  33.9425731   1.2512636  53.0943394  74.9505281  42.9740047
  52.9288197  74.0081739  43.0023909  52.2322416  75.3409100  42.8304100
  56.6983175  75.3349018  37.6588559  55.7546568  75.4856777  37.7136874
  57.0267200  75.5524683  38.5312366  75.9583378  20.7427955  16.6656208
  75.8610487  20.4422450  15.7620525  75.6979895  19.9907780  17.1975231
  71.6778564  18.9522588  35.6806588  71.0016251  19.5047891  35.2886724
  71.1923647  18.2485688  36.1111784  12.8641677  16.2956822  48.7111568
  13.0535936  16.3908815  47.7777290  13.3440816  15.5103183  48.9740610
  67.0254183  40.8772898  31.5715384  67.7542591  40.4301071  31.1413646
  67.4436569  41.5122318  32.1530533  79.5549440  37.3927784  14.8335040
  80.3824234  37.6923752  14.4570053  79.7626400  36.5434694  15.2230775
   1.8156244   0.6598271  39.4436264   0.9782688   1.0751704  39.6499205
   1.7853044   0.5165505  38.4976959  63.6575603  41.4870596  58.1154013
  64.0248537  41.4116716  57.2346926  63.3723021  42.3985672  58.1787252
  28.8287449  59.0556192  58.9693785  28.3142900  59.5959616  58.3697128
  28.2442737  58.8976574  59.7107792  56.5603414  78.7867578  51.8555784
  56.7681636  79.3773244  51.1315107  56.2148465  78.0009263  51.4320993
  59.8798418  67.8837061  67.0003510  59.5821905  68.6565685  67.4802637
  60.4398060  68.2331800  66.3071394  73.5529613  43.8250160  21.5810919
  72.7459621  43.6330223  21.1034727  73.7171316  44.7525454  21.4108682
  27.0067143  61.5765667  12.4351072  26.1836743  61.4067078  11.9768679
  27.5842857  61.9394016  11.7635489  77.0105076  23.5714078  42.6563263
  76.1362886  23.1816387  42.6638937  77.3669100  23.3770514  43.5231781
  25.1164699  45.9695435  33.0677462  25.7654929  46.6726398  33.0422187
  24.4594932  46.2726736  33.6944246  27.5968552  64.2778873  54.9462318
  28.1310582  63.5496426  55.2632761  27.7350307  64.9737883  55.5887747
   2.6197416  67.6693869  57.3390341   3.3503032  68.0872202  57.7950239
   1.8659455  68.2263041  57.5336361  70.4532337  52.5021887  59.6998549
  69.5156431  52.3098278  59.7118998  70.5355978  53.2559872  59.1157007
  59.8079062  38.3619428  46.5550756  60.1855612  38.5056114  47.4228096
  58.8791084  38.5677242  46.6610336  10.2148545  38.8942575  40.5024195
   9.6924245  38.5748053  41.2381172   9.8012555  39.7216821  40.2563763
  35.9853816  10.9888291  67.0718527  36.5392184  11.7107284  67.3691082
  36.4109588  10.6729639  66.2747669  69.7187281  34.0984535  53.4145164
  69.3173122  34.8634171  53.8267422  70.6566954  34.2059278  53.5722971
  80.6162453  36.6587234  30.8299685  79.8656178  36.0648632  30.8189464
  80.4262733  37.2976422  30.1429987  43.5146427  40.6227016   5.9448928
  43.3044720  40.3653622   5.0472081  42.7957821  40.2703476   6.4695966
  69.9074030  56.9703627  54.5969009  70.7699871  57.1169662  54.9850845
  69.3229723  56.8595409  55.3468323  14.6733916  35.2053237  66.5074873
  14.9791038  36.1047029  66.3896322  14.4041491  34.9272156  65.6320477
  67.4020863  63.8017178  21.0871363  68.1826067  64.2883396  20.8221507
  67.6868105  63.2839775  21.8402004  65.7907915  63.7572432  29.9644637
  66.2142515  63.2958126  30.6883383  64.8646021  63.7813616  30.2049351
  12.1351516  15.5666697  46.2050676  11.3924479  16.1671674  46.2685013
  11.7557716  14.7001755  46.3516665  46.8888855  15.2912664  59.5046043
  47.7291918  15.7015586  59.3002081  46.7014885  15.5637813  60.4028511
  74.3877602  59.2932701  30.6814003  74.6699047  59.0954828  29.7883654
  74.7298002  60.1708794  30.8518124  20.6624198  21.2922120  57.0980597
  21.0308409  20.4180336  56.9703531  20.1844072  21.2321806  57.9251814
  71.2605858  60.1767635  26.4976549  71.6846275  60.4051399  25.6704545
  71.1129665  61.0172892  26.9311929  74.9380398  56.1136103  28.8024735
  75.4540777  55.3110361  28.7262392  74.9276018  56.3034439  29.7406006
  50.6983709  41.1611366  48.5539198  50.6695175  41.6018105  49.4031572
  50.4083586  40.2676439  48.7377453  31.7175603  53.5751009  18.3737063
  31.1688542  53.3036375  17.6378644  32.5997853  53.6314106  18.0066347
  80.0836182  34.9864411   0.4331649  80.3441525  34.0923452   0.2119242
  79.2728567  34.8833156   0.9314180  27.6366353  62.1119022  59.1306496
  26.9742250  61.5856600  58.6828661  27.1738696  62.9082060  59.3913794
  42.6951408  74.2851686  12.7935183  41.8996382  74.3093777  12.2617126
  42.7807426  73.3683205  13.0548370   5.3361714  74.2957592  37.6418090
   5.5381340  74.1247272  36.7219210   4.5253506  74.8039532  37.6185298
   9.6667725  63.6263466  45.1045609  10.0044560  63.1418180  44.3512774
  10.4240191  64.1066122  45.4394531  62.3881674  51.9472122  30.5103803
  63.0152893  52.5919151  30.1828003  62.8728819  51.4578485  31.1750650
  83.5018730  41.8615246  38.6553001  84.1318893  41.6143799  39.3322277
  82.7988815  41.2168646  38.7355328  67.6485109   1.5690398  67.4700356
  67.1763039   0.9575883  66.9048977  67.2079086   1.5013376  68.3170986
  60.6037378   3.2176715  55.4298544  61.0310555   4.0044448  55.7684088
  60.4580355   2.6726630  56.2031364  63.4643173  53.0853462  26.0247040
  63.5799026  52.1669579  26.2684941  63.3272696  53.0663061  25.0775552
  43.9651346  50.4373312  36.6710663  43.1363964  50.8745575  36.8666577
  44.1820621  49.9646664  37.4746585  80.6538010  63.7715483  17.2259021
  81.3154221  63.4465027  17.8365040  80.9697914  64.6378565  16.9692111
  65.3454161  43.8882399  37.6350594  65.4640388  42.9581642  37.8277087
  64.4555950  44.0822744  37.9296851  33.4988379  78.5992861  54.0806580
  32.6352191  78.8941145  53.7917423  34.0943360  79.2963314  53.8054466
   7.7652025  52.5442028   7.0392156   8.4921950  51.9737005   6.7897296
   7.9898280  52.8476429   7.9188162  67.4925184  60.4091644  26.7994189
  67.3199463  61.3275194  27.0069551  67.0031500  60.2499533  25.9923220
   0.5661497  19.7346079  24.7127652   1.2169190  19.5599079  25.3926277
   0.6305192  18.9848018  24.1212606  79.6315765  25.4947758  28.9077187
  79.5719957  25.2279282  29.8250365  80.2052307  24.8426604  28.5053515
  46.1329985  51.8918896  28.1272650  46.6418791  51.7589426  27.3275161
  45.2280664  51.9697857  27.8251719  71.0217857  56.4403677  26.6978955
  70.4659605  57.0440388  27.1907163  70.4295588  55.7410622  26.4213562
  81.9071198  52.1090078  36.0247016  82.6800537  51.5445137  36.0125184
  81.6795444  52.1835375  36.9514656  83.4401703  69.3694115  19.8731554
  82.9469776  69.4291496  20.6913376  83.8516045  68.5056973  19.9040151
   2.6881096  43.9339256  39.0430975   2.4851140  43.1571817  38.5218549
   3.6444035  43.9751196  39.0491223  65.7756042  39.7923350  45.1488829
  65.8605146  39.4380331  46.0340357  65.6977463  39.0203500  44.5883417
  15.0079763  40.8464003  30.3610754  15.5687952  40.2845144  30.8958626
  15.6186688  41.3824415  29.8551607  80.3615475  43.2140350  17.3944020
  81.0737038  43.5427761  16.8457699  79.5642519  43.4694815  16.9304073
  46.1609125  72.7477264  21.2589145  45.9497547  73.6263132  20.9431124
  46.9782352  72.8578663  21.7447972  80.5489635  52.5446177  58.5415173
  80.2449512  53.3101606  58.0539179  79.8133183  51.9330025  58.5101128
  74.9282169  40.7884645  59.4500637  75.6426382  40.3723049  59.9323940
  74.8098755  41.6351604  59.8805666  81.5855789   7.8650725  44.0021086
  81.2839127   7.9982704  44.9007130  82.2136211   7.1454132  44.0644932
  61.6295338  26.7259383   2.5979021  61.3982439  27.6497865   2.5017729
  61.6836452  26.3979268   1.7002872  55.9951210  53.4158611   2.5152081
  56.9046116  53.6730099   2.6666451  55.9737015  52.4806404   2.7180076
   3.5044280  17.2244620  16.2832284   3.1169432  18.0967331  16.2109077
   2.7953172  16.6741991  16.6158020  18.7011015  41.6972065  14.1720164
  18.8084936  41.0993147  13.4322715  19.4673491  42.2693872  14.1307151
   9.3607163  30.9553862   3.7097988   8.9161742  30.1267934   3.5307771
   9.4232762  31.3830352   2.8557298   2.3956934  18.3170140  26.4909768
   2.8878689  18.7559307  27.1847677   1.5663162  18.0741465  26.9025350
  17.3424399  62.1008730  59.5437336  18.0960166  62.1792746  58.9587498
  17.6143980  61.4593220  60.1999998  81.3442516  50.8856916  28.9168978
  80.5042648  51.2783813  29.1544724  81.9985104  51.5000725  29.2496252
  61.3248587  45.0156212   0.7340650  60.9127522  45.0554705   1.5970899
  60.9626818  45.7647324   0.2608859  23.3736157  67.5457239  18.2024145
  23.8951612  67.5521803  19.0050232  23.7005925  66.7926025  17.7103555
  81.4659023  34.5423508   6.8758732  81.2615967  35.4601932   7.0549166
  81.0929203  34.0649796   7.6169777  66.1851835  15.5722260  62.0202589
  66.7320728  14.7869408  62.0418882  66.1622477  15.8227611  61.0967112
  69.2277098  44.5831394  28.6640191  69.0853357  43.6621618  28.4454584
  68.3468962  44.9470568  28.7532496  30.3033519  13.9347386  63.3004189
  29.4736886  13.7481713  62.8610039  30.4465246  13.1804657  63.8720894
  71.0160017  69.3707180  10.1255715  71.0832882  69.1902399   9.1879505
  70.3809643  68.7310076  10.4476476  71.0390806  21.4534879  10.0751269
  71.4185572  21.0913110  10.8757877  70.0968218  21.4698935  10.2427948
  77.1139908  74.3612480  35.4994607  77.3184729  73.7223005  36.1822248
  77.8366709  74.2855310  34.8763824   8.6326605  40.9975386  55.1829243
   8.6466879  41.2875175  56.0950375   7.7030933  40.8974886  54.9776793
  54.1440535  31.9035220  46.7381716  53.5748339  32.6719832  46.6970682
  55.0032616  32.2541690  46.9727707  32.4029589  54.8192596  15.4433763
  31.6085887  55.1772213  15.0470519  32.3479891  53.8774681  15.2813983
   6.9600528  67.0520973  22.9433680   6.1947495  66.5032768  22.7720737
   7.4817729  66.5475368  23.5674334  16.2160611  41.3216543  41.0327435
  16.8162346  40.7407141  41.5002203  15.5285633  40.7420397  40.7046747
  67.6846552  45.1876211  35.2482319  67.6350784  45.2949524  36.1981034
  68.3501244  45.8170938  34.9704790  81.7123222  20.8828640  43.2588196
  81.2512398  21.3229823  42.5447226  82.2483826  21.5689111  43.6565685
  71.7830467  52.1200132  35.0951838  71.5707779  52.1307659  36.0284877
  71.3689804  51.3228559  34.7645497  22.9451656  32.3494673  43.8671684
  23.0358434  32.1170831  42.9430437  22.2523689  33.0098224  43.8812160
  78.1705475  27.5388145   5.6256324  78.5448456  27.7956533   6.4683449
  77.2243977  27.6094818   5.7522881  10.6728137  46.0019350  50.4309559
  11.3620996  45.3603315  50.6025982  11.1366570  46.7658901  50.0882435
  70.8798218  43.1949282  19.9363863  71.0959148  43.3360243  19.0146339
  70.5130720  42.3112011  19.9638510  76.4859152  46.3313723  66.2025833
  77.1965551  45.9222746  65.7087564  76.8603897  47.1502209  66.5273666
  12.2242141  74.2434978  56.5997028  12.5567520  73.4475946  57.0146656
  12.9072917  74.8964691  56.7522192  80.1511574  62.2572422  22.9642797
  79.5959520  61.4795399  23.0204105  80.1513577  62.4847889  22.0345187
  75.0684357  35.5843067  48.6961699  75.8821535  35.1338911  48.9224958
  74.5152235  34.9024057  48.3151293  45.3716469  25.1790595  58.0023241
  45.0425196  24.9611187  57.1303082  44.7472525  24.7717428  58.6027002
  13.2032669  47.1083260  16.9508302  13.8070428  47.5897646  17.5164306
  13.7599444  46.7399597  16.2647915  21.5660810   4.2579922   7.0039690
  21.9471717   3.8650963   7.7892303  21.9678235   3.7804949   6.2781370
  18.1278849  45.0553799  59.3814802  17.4593210  44.7517014  59.9955082
  18.1312799  44.3973351  58.6863565  73.9685917   3.6857748  29.9220014
  73.2441473   3.0609789  29.9542856  73.5753727   4.4912964  29.5862269
  79.2628479  61.6787910   5.8617866  79.6450138  62.2395563   6.5368611
  79.9845076  61.5060520   5.2571344  29.9943852  61.8148708  53.2623339
  29.3248415  62.4955893  53.3299255  30.8121467  62.2604513  53.4835958
   6.6528535  39.6649718  10.4139328   7.4505800  40.0460434  10.0469875
   6.9572341  39.1367793  11.1519003   6.4777923  11.5415800  30.0042677
   5.5846894  11.2858248  30.2348948   6.5876091  12.4079275  30.3962040
  29.6256638   7.4899167   5.7960373  29.6465015   6.7059660   6.3448709
  30.2003932   8.1109297   6.2435430  29.0672827   1.0899314  25.9292555
  28.8618970   1.8881145  25.4424787  28.9678645   1.3377100  26.8484688
  16.0554874  69.6368551  11.1128509  16.9843984  69.8613596  11.1671984
  16.0465765  68.6998606  10.9174228   4.5126519  45.0397682  57.3424053
   4.2300436  45.9510088  57.4198675   5.1953906  45.0569296  56.6717291
  22.4618864  54.1516256  33.6775112  22.9946661  54.3208933  34.4545102
  21.7761302  54.8187685  33.7073350  27.6785898  17.3458862  12.4697816
  27.0557785  17.8377998  13.0049050  28.0094576  17.9851329  11.8388128
   4.0868908  55.3354216  52.0010138   3.8475567  55.0605965  52.8861284
   4.8254824  55.9311724  52.1266890  82.5580788  49.5470428  12.3565292
  82.6481247  50.1130056  11.5898407  83.1082439  48.7887096  12.1603847
  74.9961042  38.7997103  33.3950210  75.7856655  38.3305287  33.1254029
  74.2766762  38.2160521  33.1541920   1.3585034  54.8558378  30.0922728
   2.0585987  54.2728996  29.7985387   1.6318436  55.1374912  30.9653068
  79.9949408  65.5267906  29.1128635  79.3057203  66.1012125  29.4464064
  79.5278788  64.7601032  28.7807894  67.7898502  29.8608017  15.7206941
  67.1101427  29.8836851  16.3942730  68.6036348  29.7253561  16.2061214
  11.8104196  33.0992198  46.4033985  11.5028989  33.8296294  45.8665895
  11.2647820  32.3594451  46.1364794  26.2110901  28.5820746  11.7757773
  25.3253269  28.3267355  11.5179849  26.6044068  28.9254928  10.9735334
  81.3596344  16.2754250  30.1082134  81.9967365  16.6053438  30.7418418
  80.5314922  16.6781914  30.3693604  37.5472474  57.0289421   0.8339274
  36.8210030  56.6666651   1.3414265  37.6937938  56.3903952   0.1360646
  50.1071167  75.6280708  26.0758162  50.6854630  76.3833046  25.9691906
  50.6286430  74.8829889  25.7773280  75.6592464  57.9369307  17.2533822
  75.0831413  58.2310867  16.5478289  75.3621578  58.4220982  18.0231762
  63.5579491  54.6074390  48.0830050  63.4139824  55.5478144  48.1888390
  63.8272238  54.3071651  48.9510822  24.2577028  27.0217109  15.4085815
  24.1451788  26.7858791  14.4877374  23.4967709  26.6418576  15.8478153
  38.3163977  73.1039190  32.0332670  38.0162477  72.3894691  32.5951409
  38.7079358  72.6659775  31.2775302  62.8616190  59.7867918  52.5517511
  61.9234467  59.9582958  52.4701643  62.9184055  59.0502548  53.1604576
  73.3272457  34.6199441  18.6126435  74.2526627  34.8628330  18.5835612
  73.1591463  34.4269586  19.5349956  72.3225307  44.6739054   6.4180833
  71.7986155  45.3499222   5.9882665  72.6516056  44.1332483   5.7000089
  57.0514727  25.7371664  61.4642096  57.7222061  25.7358670  62.1471071
  56.3060665  26.1874795  61.8614769  20.8888483  23.4293985  25.5519652
  20.5832171  23.6971879  26.4186335  21.8402648  23.3727503  25.6404567
   8.6446381  77.8175211  30.6335378   8.2577735  77.7769136  31.5081334
   8.7924331  78.7507105  30.4801059  29.8938227  43.3571100   6.5149504
  29.0967059  43.4925461   7.0272905  30.5605745  43.1328821   7.1641016
  21.9282794  48.5194063  31.4089918  21.4692330  48.1425047  30.6583595
  22.5638080  49.1222334  31.0230732  67.1132660   8.3911216  55.2979851
  66.8139124   7.9636371  54.4955635  67.3979425   9.2599702  55.0146198
   4.0169623  14.2499936  34.9064708   3.0872071  14.0690732  34.7684312
   4.3910888  13.4047711  35.1551867   5.7262886  46.3393450  19.7083497
   6.3704860  46.6443110  20.3472829   5.5071163  47.1191263  19.1983151
  13.0922031  46.2377310  37.6279211  13.5295486  46.4344931  38.4563208
  13.0584097  47.0773745  37.1695757  26.9595599  45.4593277   2.7118698
  27.3284698  44.7441101   3.2301396  27.6208258  45.6360912   2.0427541
  32.4958587  33.3750105   8.5809976  33.4131479  33.6337018   8.6698306
  32.1537232  33.3950424   9.4747394  80.2746105  58.3280659  33.5513091
  79.8621988  59.1187668  33.2035446  80.6963730  57.9244614  32.7927208
  74.7893047  60.2693319   2.3075162  74.3437290  61.1106539   2.4068969
  74.4651556  59.9233818   1.4759654  41.3941956  48.1132412  26.8268943
  40.9128618  47.2954845  26.7011118  41.1856604  48.6354828  26.0522938
  64.1948080  56.3202667  36.5503931  64.6672535  56.7298794  37.2751307
  64.0898132  55.4073858  36.8184471   1.0833640  66.4185333  62.8162575
   1.7890345  65.8190680  63.0589533   0.5072410  65.8966541  62.2577238
   4.4074288  42.3279381  54.9859285   5.0249720  41.5974665  54.9500799
   3.7327451  42.0412064  55.6014109  19.3713081  74.4443607  64.4578648
  18.8295698  74.2793798  65.2295732  19.0901482  75.3050566  64.1474104
   3.9161426  34.0998602  53.5645866   4.8494998  34.0303111  53.7651873
   3.5661423  33.2280135  53.7479305  45.9210443  37.7805424   7.3734957
  46.6505432  38.3624125   7.1602172  46.2001181  36.9210076   7.0579827
   6.4157856  22.0056820  53.7551022   6.9070864  21.3755989  54.2822218
   6.6764456  22.8602219  54.0986872   9.5767432  13.3768666  16.1524630
   9.2801505  13.7568748  15.3255057   8.7963492  13.3705783  16.7066991
  78.3022976  35.1246524  30.5375051  78.3664799  34.4082928  31.1691236
  77.6085329  34.8527741  29.9366713  15.0953317  57.7624750  33.2341361
  14.7775161  58.0097580  34.1025114  14.4610512  57.1172476  32.9217243
  71.0495710  36.2640858  17.2674239  71.6816998  35.5828786  17.4967742
  70.3080845  36.1096287  17.8527200   1.9726919  74.1102266  43.4764099
   1.5737411  73.5953045  42.7750349   2.8238067  73.6972618  43.6223364
  62.1165323  51.1082983  15.6658792  61.4634466  50.5647182  15.2251601
  61.6285658  51.8770981  15.9609497  74.7257805  29.9532557  25.0284648
  75.4864120  29.5775628  24.5851517  74.2188931  30.3638411  24.3279529
  78.2104397  66.4502525  40.7517147  78.6194515  65.9343910  41.4465714
  77.8997421  65.7999039  40.1218367  72.4385977  30.1800084  50.7906008
  72.6308727  29.7183228  51.6067553  73.2965851  30.4371786  50.4530430
   4.5034012  33.5824585  10.8934677   5.1468217  34.2871094  10.8179080
   5.0220746  32.8061271  11.1044621  10.6567478  58.4932232  36.7954612
  10.1735985  57.6901865  36.9902301  10.5375350  58.6222219  35.8545160
   8.2886606  58.0598497  18.1860924   9.0957254  58.0712128  17.6715541
   7.9577565  58.9564276  18.1324315  76.3652372  76.4592648  53.8957453
  77.0608902  76.3420725  53.2487774  75.6043196  76.0245800  53.5106659
  11.9991589  57.8832579   8.9803886  11.5143454  57.3820400   8.3246708
  12.6966059  57.2929525   9.2655790  61.0890293  45.1421070  46.3233137
  61.7152500  45.8483601  46.1643028  61.2663984  44.5045137  45.6317616
  43.4485245  58.7034082   8.1625545  44.2163658  58.5990429   8.7244803
  42.8598547  57.9967308   8.4276950  61.9347334  43.6442757  43.9978886
  61.8219137  43.4804726  43.0615807  61.1709070  43.2366323  44.4060946
  55.4476833  43.2077503  51.2364340  54.5689011  43.0283165  51.5707731
  56.0237694  43.0624819  51.9869328  46.5349722  16.4541590   6.0573447
  46.6404009  17.1389878   5.3969455  45.9973717  16.8587101   6.7381930
  36.7513752  15.3034949  30.3572702  37.6268005  15.1882708  29.9876976
  36.3658190  14.4276059  30.3374028   2.3148046  40.8512354  48.0523634
   2.4850309  41.7585850  47.7994442   1.9717532  40.9114456  48.9439440
  45.1953316  54.1645956  13.2199669  46.1041641  54.1152096  12.9236352
  45.0354576  53.3213806  13.6438298  15.5363822  75.9276438  48.5912609
  16.3312805  75.4139948  48.4479570  15.0113583  75.3948450  49.1885138
  14.3674183  45.4541397  14.9396646  13.5292804  45.1648998  14.5789719
  14.8697054  44.6475077  15.0549507   0.8282383  39.6798539  57.9322195
   1.4881107  38.9868093  57.9100275   0.0731262  39.3062329  57.4778557
  73.8576078  52.0426083  49.2213774  74.3774652  52.0419455  50.0251102
  74.0204668  52.9015064  48.8315010  66.3152361   1.3066010  18.5643125
  66.3227892   0.4096214  18.2302427  66.3174009   1.8545237  17.7794504
  11.0694301  53.5497236  49.0058708  11.5551138  52.9920959  48.3980942
  11.6105187  54.3341827  49.0957403  63.9956570  49.1092396  50.6038380
  64.6288157  49.4920349  51.2111330  63.7189007  49.8416662  50.0532007
  49.4434977  69.7419500  33.1821251  49.2387056  69.9593353  32.2727084
  49.3229866  70.5637932  33.6578131   9.4909370   3.2556418  53.5078239
   9.3953484   4.1449860  53.1669998  10.4108667   3.0387259  53.3564663
  54.6431255  47.4279308  68.0759001  55.2003908  46.8647766  67.5387383
  55.2018309  47.6899290  68.8076401  80.1325607  62.5995207   2.2917715
  80.5467701  62.1666908   3.0383122  79.1964769  62.5758410   2.4903169
  19.5836663  19.0289068  24.5474744  20.4137945  18.5524964  24.5598006
  19.2009008  18.8211238  23.6950970  25.9013700  15.0564647  62.1371078
  25.4568601  14.7038615  61.3661861  26.7505360  14.6148193  62.1468687
   4.0800279  38.6937284  36.0852456   3.4925649  38.4409094  36.7974257
   4.8146889  39.1244650  36.5222454  36.1183977  46.5547705  36.3539481
  35.2551579  46.2259436  36.1031032  36.5661502  45.7940769  36.7242098
  76.4047909  39.7240925  65.6782007  76.7747355  40.5720615  65.4325962
  75.4989719  39.7598982  65.3708792  31.1849952  37.2954369  23.6757278
  32.0807028  37.0320249  23.4646487  30.7353783  36.4749384  23.8778591
  20.0457025  53.7370253  63.5601187  19.4489777  53.0512857  63.8599777
  20.8214617  53.6376095  64.1119766  72.4043894  37.9660630  40.4684448
  72.6894474  38.8673115  40.6191826  73.2170200  37.4748445  40.3477192
  42.6170731   6.4049101  17.3044169  41.7496252   6.0490882  17.4971795
  42.6349545   6.4891845  16.3511014  30.3621078  56.2231016  14.4059253
  30.1084471  56.9956875  14.9109018  30.3284001  56.5114594  13.4938157
   8.6645722  54.8367023  50.3212833   9.1612220  55.6471920  50.4338598
   9.1179442  54.3738937  49.6166563  18.3478189  57.6313496  22.6552391
  17.8473508  56.9872284  22.1543646  19.2626750  57.3930407  22.5053072
  14.2133391  71.9133663  59.7031832  14.1230857  72.1989250  60.6123257
  15.1088250  72.1530199  59.4646358  35.2687168   1.7312513   3.2674983
  36.1935329   1.6343513   3.4945592  35.2482533   2.4664837   2.6549247
  56.2303209  69.5428181   7.9278445  56.5436983  69.3158197   7.0523453
  57.0006514  69.8941898   8.3743393  22.5394320  18.2213378  38.4991217
  22.4660659  18.3414948  37.5523305  22.2297144  19.0475726  38.8701224
  68.8493061  61.1171675  51.6887951  68.8393736  62.0549440  51.8803835
  68.2014513  61.0080528  50.9926558  68.5275936  54.0366268  47.1829510
  68.6656857  54.6542168  46.4647913  69.1181326  53.3085394  46.9896078
   7.3415518  30.7042646  14.2551315   7.5388688  30.2070069  13.4613860
   7.4736214  30.0794983  14.9681938  74.9527836  36.9170642  20.0237393
  74.7601795  36.4600563  20.8424473  75.9031010  37.0314169  20.0311112
  12.6915514   0.9151696  29.1679406  13.6076915   0.7490740  28.9458299
  12.7033484   1.1064352  30.1057625  59.5104504  57.3028898  57.5168943
  58.7542152  56.9699812  57.0336628  60.2555561  56.8220854  57.1565104
  78.4359646  78.3993053  32.9435015  77.6485729  78.4838057  32.4058199
  78.1720924  77.8308010  33.6669707   4.2738116  71.2337923  67.4834204
   3.6632106  71.8203115  67.0368862   3.8533255  70.3748226  67.4435711
  16.3391733  69.8141956  35.4763913  15.5643094  70.0635481  35.9800196
  16.0058844  69.6348095  34.5972037   3.0098668  50.7963228  38.9540577
   2.2528213  51.1845446  38.5154247   2.8167829  50.8838892  39.8874831
  30.6893563  14.0051615  37.4895334  30.8862925  14.9418831  37.4908090
  30.5164480  13.7980151  36.5711522  13.4555840  77.7463341   2.5275448
  13.1841612  76.8287468   2.5031224  12.6352930  78.2393122   2.5094253
  77.4446869  33.2497168  60.7276917  77.0740366  34.0573144  61.0835505
  77.0100260  33.1389475  59.8820972  10.9445620  42.7533674  14.9351156
  11.5311468  43.3853149  14.5194292  11.2746871  42.6727724  15.8299637
  16.7462456  59.8608112  12.5551796  16.5699184  59.6832657  11.6312647
  16.1776495  59.2534781  13.0285442  48.7364101  34.3088794   5.2803940
  49.4295073  33.6487007   5.2836657  49.1838026  35.1247358   5.0557834
  51.2378025  69.1435146  18.6859465  51.7428303  69.9347496  18.4985244
  51.0719490  68.7560511  17.8265297  83.5589123   0.6656808  43.6414862
  82.8729153   0.0346731  43.8593674  83.7711048   1.0860725  44.4748402
  39.1701818  11.9936419  13.4499824  39.0736175  11.1781955  13.9418709
  38.2861638  12.3591697  13.4163237  56.8864822  76.8374443  25.1026893
  56.8968868  75.9540892  24.7341633  57.7071476  76.9029236  25.5910015
  43.0351353  13.4560084  32.5616932  43.0621719  14.4128239  32.5642228
  43.0512524  13.2134974  33.4875226  55.0043964   9.0625578  41.3489008
  54.2683411   9.2880547  40.7800388  55.7542706   9.5128798  40.9601545
  56.7717886  62.3648262  62.9074383  55.9454393  62.5548935  62.4633074
  57.3189116  61.9619131  62.2332335   7.8484118  78.9091444  22.0498037
   7.6289701  78.0835819  22.4816895   8.7950385  78.8647318  21.9150543
  67.8783226   8.0138940  22.9306102  68.4333849   8.4269905  22.2691822
  67.1607113   7.6238984  22.4314404   7.0543838  35.2479076  10.5001414
   7.4135125  35.7687855  11.2184346   7.5007051  34.4040012  10.5697870
  64.3527937  17.2779953  22.4900103  63.9137793  16.4278424  22.4628496
  63.9649105  17.7239084  23.2429671  33.6335135  45.1173115  20.3775454
  34.5877981  45.1796722  20.3364825  33.4658742  44.2519426  20.7507205
  81.9847870   4.1714111   7.7041584  81.2809944   4.0523389   8.3419150
  82.4540806   4.9485132   8.0076510  79.5514393  40.7327271  54.9300575
  80.4179955  40.8743429  55.3111839  79.6061277  41.1247206  54.0585184
  13.5044372  45.4400301  21.4173365  13.5120666  44.5885849  21.8546152
  12.9686260  45.9953499  21.9836879  40.7686520   0.9671778  11.7006397
  41.3450003   1.6867945  11.4433300  41.2451458   0.1764978  11.4476335
  74.5858526  70.9817171  25.8045673  74.1022730  71.7804337  26.0153770
  75.5062008  71.2421560  25.8414912  55.2380848   2.1806356  37.5919533
  55.4020452   2.9235667  37.0110893  54.3897104   2.3719235  37.9918337
  62.8013611  72.6487160  40.2557182  63.5305500  73.1422949  40.6310701
  62.0758629  73.2727385  40.2337599  81.5592289  56.7351770  65.3335428
  81.6197109  57.1808767  66.1784840  80.8783340  56.0743141  65.4595470
  24.8873854  49.4659853  48.7962055  24.0022707  49.6618509  49.1035223
  25.2603912  48.9090109  49.4794846  61.2891684  -0.1071009  21.2830472
  62.0257912  -0.3330406  20.7150960  61.4571224   0.7982937  21.5443587
  37.1408629  16.0650146   3.8761061  37.2863364  16.7448354   3.2181454
  37.2278571  16.5199172   4.7137982  62.0072794  55.1919365  42.8838491
  62.6172733  55.6035089  43.4960127  62.5267982  55.0387955  42.0946217
  74.2127848  16.7147064  11.1634159  74.5836067  16.2032795  10.4442716
  74.9731779  17.0104027  11.6640127  25.3148603  70.5734444  41.5116644
  26.0920191  71.1174488  41.3839245  25.6614161  69.7058153  41.7198610
  34.8569322  68.6428070  22.2890449  34.3294549  68.3188486  21.5589404
  34.8458600  69.5946693  22.1886992  47.2372341   6.5630984   0.4999674
  47.8046799   6.7574430  -0.2460017  47.7973938   6.6882163   1.2659968
  22.4414968  28.2399750  23.1239247  23.2054543  28.2642674  22.5477195
  21.8644953  28.9247227  22.7856612  25.3191710   9.1422808  63.3153868
  26.2730360   9.0648109  63.2961702  25.1493597  10.0616872  63.1102371
   7.1264899  14.7688270  40.0214291   7.0524865  15.7156789  39.9021530
   7.0225924  14.4076824  39.1410804   1.7250682  12.1311045   2.9767936
   2.5495645  11.8421221   2.5857350   1.1621587  12.3306549   2.2287667
  80.4653645  24.1999745  36.1013317  79.5936775  23.9371204  36.3968134
  81.0089874  24.1534972  36.8878102  79.3675375  14.8345137  21.3451552
  79.9154520  14.9486220  20.5686283  79.0754795  13.9240503  21.3005304
  81.0875130  11.0792148  15.0417531  81.8742561  11.6242111  15.0261581
  81.1775494  10.5067778  14.2798865  82.6975918  21.2770987  47.0048380
  83.2060146  20.8023143  47.6623440  83.0014038  20.9260702  46.1677551
   6.7703038  16.7588365  35.6773114   5.9642446  17.2679079  35.5916023
   7.0837379  16.6535366  34.7790337  70.8594370  38.8381577  10.6322658
  71.2846518  38.1064510  11.0795081  70.0513840  38.9828086  11.1245656
  75.8519125  48.6294079  34.1055536  75.9225988  49.4346189  33.5928488
  76.6453981  48.6158037  34.6407437  69.6323013  12.5256801   7.1134841
  69.3400955  12.5705659   8.0238879  69.0355921  13.1065476   6.6415036
  78.2144690   8.3587998  15.5301178  78.9796925   8.4921557  16.0894799
  77.6471090   9.1064382  15.7181787  16.0097134  43.6274958  31.5424371
  15.7327342  42.8621435  32.0461702  15.8574355  43.3816004  30.6299782
  81.0695839   8.9726251  48.9252853  80.4569340   8.9171755  49.6586418
  81.9349194   8.9487594  49.3337631  79.8278666  71.4767218  64.8547888
  79.2508602  70.7401705  65.0567532  80.6886578  71.0783482  64.7260666
  77.9418850  77.7205801  62.3036098  77.4598694  78.5160732  62.5296259
  77.9405022  77.2028017  63.1086779  75.8690357  26.2647057  34.4708323
  76.5545654  26.9307971  34.5218945  75.3144169  26.5470743  33.7435818
  50.8081627  10.3963959  24.2011261  50.3070211  10.4536748  23.3876109
  50.9689379  11.3071239  24.4480228  60.8625793  13.0144536   8.5948473
  60.9746647  12.0777297   8.4329277  60.7629061  13.0831444   9.5443618
  69.4055700  27.6935220  14.2191458  68.8889885  28.0844784  14.9237919
  70.1953506  27.3698258  14.6523821  68.5562277  18.4492779   3.7029347
  68.3035994  18.3673596   4.6225542  69.2347002  17.7851951   3.5808620
  58.5418415  53.5312605  26.1623144  58.8733482  52.8353977  26.7298627
  59.0615511  54.2999697  26.3973117  48.6589289  13.9884949  17.2307134
  48.3606720  13.0885160  17.0991302  47.9051924  14.4369698  17.6141047
  73.8163233  31.2868023  22.6738000  73.0373049  31.6220331  22.2299743
  74.5432186  31.5370989  22.1035314  21.3612485   2.9268250  20.2521968
  20.4604292   2.6043361  20.2246928  21.7638087   2.4512751  20.9788537
  61.7885494  18.8832283  20.4824996  61.2751865  19.2492545  19.7622788
  61.6405439  17.9391956  20.4265428  32.6316142  72.3907375   3.4634057
  32.6859760  71.5058661   3.1024703  33.3106136  72.8807211   2.9996061
  49.6509314   3.7413228  24.7511864  49.5803785   3.4777400  25.6686711
  50.4250813   4.3035454  24.7223568  64.3388844  29.0709209  12.9119885
  64.1633272  29.6520305  13.6520720  65.2867031  29.1207123  12.7879477
  53.6067963  24.1953373  15.4919374  52.6856899  24.2958999  15.2517688
  53.7027740  23.2634020  15.6882012  51.9088364  32.3810792  43.9067459
  51.0991192  32.3340130  43.3984375  51.6196346  32.5562382  44.8022413
  52.7934170  63.4245920  10.7158029  52.9353762  62.6438618  10.1805055
  53.5290575  63.9985180  10.5021071   3.4523204  22.1456599  16.4921749
   3.2716033  22.3661900  17.4059248   3.2136884  22.9336214  16.0039091
  41.1328745   2.4141198   4.8109728  40.7173920   2.3079529   5.6667387
  42.0693827   2.4602558   5.0034785  39.9073267   2.3090774  32.9077792
  40.4163742   1.7198649  32.3510623  39.7399426   1.8026039  33.7025738
  45.0880718  60.6517315   1.2565985  44.3725920  60.0923824   1.5590213
  45.4639816  60.1791954   0.5138779  53.6600447  42.0012760  12.3349524
  53.2156563  42.3041534  11.5431094  53.9144468  42.8046227  12.7889836
  46.7943716   1.1950652   3.6447152  46.3752270   0.3345134   3.6443099
  46.2206221   1.7411834   3.1073168  73.1028938  56.3971138  12.3643923
  74.0536880  56.4649963  12.2770917  72.9660416  55.6050730  12.8841734
  73.1580782  19.7790933  66.3360977  72.7031803  20.1856494  67.0736694
  73.0877304  20.4199862  65.6286097  10.3918970  20.4599786   5.1600426
  11.1091077  19.8334336   5.0636989   9.7530121  20.0096011   5.7125092
  67.4551773  25.6578660  27.2694778  67.0027924  25.8911109  26.4588141
  67.8020573  24.7807693  27.1063542  13.4087706  71.9553328  14.1328931
  13.5594463  72.4468851  14.9402988  14.2040908  72.0911169  13.6178589
  78.8206387  64.7004509  42.6895761  78.7130499  63.7499952  42.6536751
  79.6165705  64.8321056  43.2047367  63.1827354  40.2733374   5.3793472
  62.8401995  40.5186892   6.2388265  63.5508633  41.0840130   5.0278938
  17.4113488  17.6713860   2.7397421  17.1943748  18.1610727   3.5330647
  17.0104325  16.8122256   2.8714284  16.9331348  31.5817881  28.7042713
  16.1607575  32.0810175  28.4388781  16.5790498  30.7905173  29.1101623
  54.5664597  63.0490160   5.0318712  55.4228878  62.6932669   4.7947928
  54.7208357  63.5190010   5.8513302  79.4217825  35.3424215  39.1409206
  80.1525593  35.2872276  39.7566724  78.7436152  34.7857213  39.5235443
  41.0602188  18.2165408  66.4674854  40.4589128  17.5070989  66.2408686
  40.5526543  19.0154564  66.3248539  67.2206926   3.5757071  10.7240713
  66.4159298   3.7983447  10.2560747  67.3822832   2.6592195  10.5000830
  11.5173388  36.6224909  24.6374393  11.1687362  36.0017562  23.9975977
  12.0802689  37.2033024  24.1255808  77.2620153  78.4748030  58.8674831
  77.3040867  79.4150448  58.6930895  78.1722975  78.2173252  59.0135098
  35.4084849  21.1236072  59.8101854  35.6325817  20.8754110  58.9132929
  34.5373774  21.5141082  59.7400856  59.2465925  27.4485779  42.9722166
  59.8111343  27.4306393  42.1994257  58.7546730  26.6286135  42.9285574
  54.9976730   9.0905613  28.7139106  54.4461632   8.9302254  27.9481673
  54.4660378   8.8034582  29.4563198  17.7998042  78.0448103  15.7363212
  17.6555645  77.5524426  16.5444064  17.6202238  77.4159384  15.0373888
   7.6956385  10.7880314   0.2840835   8.0270904  10.6741293   1.1748106
   8.4288257  11.1716373  -0.1970785  80.6664658  28.5696149  57.3814344
  80.6472874  28.9625216  56.5088034  79.8296785  28.8178945  57.7743387
  58.5300922  73.7638569  33.0662966  58.5333538  73.6481190  34.0164685
  57.9730129  73.0567884  32.7407980  68.6230993  20.3680062  44.8129368
  69.5336199  20.6484509  44.9053431  68.6806154  19.4443440  44.5684528
  45.2841902  23.8106966  14.1808045  45.9017181  24.3145847  13.6507237
  45.8329391  23.1972194  14.6694231  60.9184265  26.6533208  40.8344030
  60.8216047  25.7434297  40.5534077  61.6673088  26.9796705  40.3355026
  43.8898468   0.4883302  18.7200201  43.6636400   0.2940514  17.8104496
  43.1184483   0.9352946  19.0684485  79.4122076  38.7545538   8.8668126
  79.8692036  38.4837246   8.0705470  78.8002825  38.0407238   9.0463197
  56.7977524  13.1158793   8.9696223  57.2191429  12.7210271   9.7330070
  57.2339058  12.7117348   8.2195073   1.4572076  60.5675936  56.9806194
   1.8137391  60.7948923  57.8393698   1.8433632  61.2085152  56.3836861
  28.0772090  71.7814207   2.5975674  28.0066276  71.2612009   1.7971770
  28.7141275  71.3098097   3.1343633  28.1360149  25.9927487  28.7811947
  27.7305937  26.6296935  29.3695569  28.2147884  26.4541912  27.9462719
  76.5780210  34.9938941  28.5109091  75.9585762  35.7119012  28.6412263
  76.0434103  34.2742586  28.1754255  71.9312048  17.5316072  14.9619460
  72.7709293  17.8835535  14.6666050  71.8204737  17.8850675  15.8445764
  76.0296440  25.3479815  21.8044305  76.7951012  24.9081039  21.4345407
  75.8385658  26.0549617  21.1880684  72.4173594  46.7958212  58.8127947
  73.0852032  47.4782896  58.8795757  72.0319557  46.7514086  59.6878481
  77.5609493  16.8346584  43.5195303  76.9307852  16.3411629  44.0444946
  78.2007360  17.1573627  44.1541719  32.1544671  71.8172884  42.0603752
  31.7814422  71.3785791  42.8249788  33.0123973  72.1232271  42.3546314
  18.8660550  48.5145426  66.7234373  18.4123838  47.6797581  66.6070414
  18.9721835  48.5993862  67.6709461  46.0930967  67.9400730  66.6487169
  46.1920452  67.0462275  66.3208628  45.2266693  68.2117367  66.3458490
  53.9360285  72.4685049   4.4068226  54.7578478  72.7131987   4.8322353
  54.1469479  72.4459648   3.4734213   5.1819164  10.4492474  51.3274240
   4.5368105  11.0125375  51.7549467   6.0223907  10.8732927  51.5006876
  12.8201079  68.2572126   1.3188778  13.0796373  67.4267483   1.7178854
  13.4730220  68.8855314   1.6273493  29.4699717  27.9752922  31.4543200
  29.1724277  28.1996703  30.5726433  30.3412628  28.3661866  31.5197849
  26.4731264  74.5991373  13.7509382  26.3571262  75.3102970  13.1208360
  27.0569706  74.9621153  14.4169736  19.8714423  18.0292666   2.0557618
  20.1912642  17.5955915   2.8468829  18.9287150  18.1181049   2.1957783
   8.3685958  34.7494841  52.1773386   8.1095850  34.0911722  51.5325356
   8.9742911  35.3213167  51.7057753  40.5474567  25.9651470  15.1779711
  41.4052916  25.7278347  14.8257864  39.9840498  26.0379243  14.4075775
  81.6358948  51.9755793  61.4335203  81.3127995  51.8262577  62.3220873
  81.1415195  51.3600254  60.8923054  52.0565462  65.2765036  33.7221837
  51.3846254  64.6169519  33.5497022  51.5650940  66.0616732  33.9634633
  48.8241053  44.3779039  65.0725508  48.0940962  44.9904490  64.9825001
  49.3633747  44.7489738  65.7709217  74.4466162  21.0562181   7.5492066
  74.0004730  20.9112096   8.3835697  75.3642368  21.1874628   7.7879041
  72.2721291  11.7426491   9.5197326  72.4649143  11.1683667  10.2608562
  72.7621126  12.5440383   9.7039127  15.4935110  75.9802008  65.5805540
  16.0834324  75.3905869  65.1108885  14.9625480  76.3844204  64.8943186
  41.5984297   5.2045804  37.2337341  41.5624714   4.2481279  37.2454453
  42.4813080   5.4072976  36.9244313  72.2737837  43.9669895  50.1276016
  73.1992960  43.9365101  49.8852539  72.1696091  44.8094988  50.5698156
  13.4100544  69.2833281  50.0064039  12.6426458  69.6196365  49.5435715
  14.0935588  69.2409229  49.3376303  12.5495875  38.6218619  65.6289005
  12.2924995  38.9756441  66.4803553  13.5049379  38.6810946  65.6234884
  53.3511162  12.3154223  52.5948858  52.9820395  11.4394629  52.7076101
  54.1012621  12.1863890  52.0144844  56.6452551  73.6832571  27.3877645
  56.7003632  74.3732405  28.0489159  56.0409975  74.0288258  26.7307353
  45.3981733  73.6247873  67.7368212  45.5275154  73.9907742  66.8618631
  45.9413719  72.8367472  67.7495098  76.7990541   5.6416482  28.0718184
  77.3179722   4.9425766  28.4696317  77.1584988   6.4475125  28.4427834
  74.2157698  70.6029367  42.2611952  73.4896851  70.8109140  42.8492260
  74.1026258  69.6739483  42.0601749  40.6673908  13.2934594  34.8434401
  40.5012226  14.0352678  35.4251099  40.7712126  13.6869955  33.9770794
  50.7970572  53.0836439  64.9880886  51.2948704  52.6606846  65.6877470
  51.4572239  53.5406303  64.4669628  75.0142336  13.8519633  16.2193179
  75.0867701  13.2309997  15.4944909  74.1342163  14.2186069  16.1334395
  19.6352422  48.4899473  26.9363284  19.3384814  49.2043638  26.3726115
  19.5169067  47.7016973  26.4063406  50.9392834  20.4490232   5.1696074
  51.8788338  20.2907848   5.0777906  50.7874918  20.4482079   6.1146951
  45.7373619  52.9770184  30.5609345  44.8177385  52.8254843  30.7790184
  45.8850193  52.4569941  29.7709966  46.2130117  12.1403611  26.6007876
  46.6572571  11.9709218  27.4315524  45.6743479  12.9131925  26.7704940
  83.0618668  42.2246647  53.1098509  82.9382133  42.8413725  53.8313866
  82.2145653  42.2034693  52.6650286  47.8006124  20.9659266  17.1553147
  48.5873890  20.9546351  17.7003658  47.7887154  20.1064920  16.7340541
  22.7487326   4.2038345  37.5085473  22.2793674   5.0353026  37.4407935
  22.0996666   3.5896686  37.8516865  81.7308807  22.5864244  55.8789825
  82.6174450  22.4341202  56.2061453  81.7549419  23.4763503  55.5272961
  14.6384454  63.4970284   6.6059929  13.9214289  62.8694296   6.5152252
  15.3315592  63.1518507   6.0432529  23.9992309  16.2363052   3.9245099
  23.1588221  15.8319080   3.7090862  24.0959907  16.1000645   4.8670107
  55.6361532  67.6174259  23.6116099  55.6897736  68.5554028  23.4284186
  54.7234058  67.3904610  23.4338045  22.1211338  40.4617691  14.3322051
  21.4389133  40.8077860  13.7568104  22.6070571  39.8456645  13.7840056
  71.0315514  28.6681986  42.4023199  70.8626556  29.5605206  42.7047586
  70.1997471  28.2114029  42.5275087  78.3751106  23.3365774   7.4597359
  77.7318096  23.1924176   8.1537169  78.9699888  23.9955258   7.8177011
  22.2992253  46.0099316  26.8564701  22.0786929  46.6606951  26.1900640
  21.6801357  45.2952576  26.7074704  49.2257547   4.7920904  53.7564087
  48.9338255   4.5451784  54.6339273  48.4481525   4.6897995  53.2076788
  53.2180786  21.6199446  61.9925213  53.0060291  22.1099114  62.7870035
  52.3732090  21.4794731  61.5650892  74.4675779  35.0796461  21.8676066
  73.8276243  34.4819379  21.4810395  73.9656210  35.5893135  22.5036144
  60.7404852  63.2761335  12.1372783  60.5247974  63.9327288  12.7995420
  61.6244650  62.9879141  12.3647475  51.2605572   7.0290256  62.5830841
  51.1488914   6.2677813  62.0136356  50.9057522   6.7506534  63.4273911
  23.4368587  78.7337303  66.8273592  23.2596946  77.7963066  66.9053602
  23.9500499  78.9461756  67.6069307  74.9424887  46.1753702  44.7766972
  75.3958654  46.9119692  44.3666935  75.1218081  46.2742186  45.7117414
  79.5417500   5.6800109  45.7262468  79.6768713   5.2056772  46.5466022
  79.5470667   6.6030544  45.9796143  21.0893726  44.8505402  51.5375662
  20.8938217  45.6886387  51.1185408  20.3770208  44.7241354  52.1643114
  33.6866713  70.3697109  17.0486784  32.7892399  70.6943035  16.9745922
  33.6654711  69.5092201  16.6299486  43.7587738  33.2135820   6.6629094
  44.0566444  32.7853727   5.8603263  44.5044613  33.7450099   6.9417810
  27.7255154  51.7712831  60.9667730  27.4933195  51.0338354  61.5311146
  26.9347405  51.9388247  60.4540968  78.1205225  50.9562778  63.2718611
  77.5331974  50.3137922  62.8737497  77.6234770  51.7742395  63.2609606
  76.9166660  42.0792913  16.0972726  76.4870977  41.8401670  16.9185662
  77.3101377  42.9340458  16.2727904  45.1094246  10.4412365  57.0713711
  44.4700480  10.4209363  57.7834225  45.9583569  10.3859794  57.5101137
  56.0428190  25.8975697  30.6047702  55.3298378  26.4846253  30.3532672
  56.8388557  26.3669586  30.3553128  51.8189669   3.5050493  44.9238443
  51.9903803   4.0971223  45.6561661  51.5324879   4.0792584  44.2136002
   2.8594214  35.4636955   9.8658395   2.2728162  35.1192546   9.1924250
   3.5544240  34.8092222   9.9356258  59.2143536  16.5654552  68.0958414
  59.7880220  17.2672141  68.4035301  59.7314835  16.1061406  67.4341488
  58.8247585  49.1876125   8.0065548  58.5508490  49.8059607   7.3291683
  59.7797441  49.1709280   7.9436105   4.7738978   0.9978817  38.0550504
   5.4586923   0.4659555  37.6496577   3.9919654   0.8207600  37.5321341
   0.2498322  38.3792686   7.7346367  -0.0193243  38.6063313   6.8445641
   1.1709240  38.6358666   7.7791339  38.9760089  13.5842001  37.9892254
  39.8016047  14.0613508  38.0725932  38.7987971  13.2562995  38.8708758
  75.2474928  24.7391248  36.7217302  75.5929804  25.0679970  35.8918428
  74.4352484  25.2280998  36.8536162  26.9143081  27.4518275  32.0075536
  27.6946974  27.7785206  31.5597820  27.2555089  26.9056511  32.7157235
  51.9334745  20.6363535  65.6031752  52.8707504  20.4675531  65.6993914
  51.8605852  21.5907717  65.6049061   4.7067919  74.6552658  62.7963209
   4.6576717  74.0166664  62.0849800   4.5586726  75.4997492  62.3707151
  78.8384008  46.0491228  33.0870199  79.5692348  46.4683437  33.5413003
  78.5231161  45.3862095  33.7013292  35.5896783  24.5618725  53.8952589
  36.3336635  24.9823070  54.3264771  35.9250760  24.3035984  53.0367517
  72.1877003  11.3067532  29.2868662  71.7654133  10.4837859  29.5331025
  72.9591942  11.3582826  29.8511171  30.1290727  48.7554216  57.9580688
  30.6227827  48.2731199  57.2948408  30.6027031  48.5936117  58.7739849
  75.7401800   9.4578898  55.9045029  75.3119278   8.6023396  55.8750629
  75.1513863  10.0026095  56.4268351  83.3825779  18.2484949  27.3457384
  83.1951618  17.3291552  27.5352645  82.7544308  18.4852600  26.6633916
   0.0740308  51.9939852  10.8867252   0.6191422  52.1543074  11.6570389
   0.6526475  52.1659613  10.1438546   6.7204809  73.3845711  53.0944633
   6.2004668  73.9112186  52.4874544   6.7205387  73.8877916  53.9087105
  81.8651962   7.4084759  13.1925535  81.3242054   6.6741902  12.9020536
  81.9525814   7.2825116  14.1373968  15.8610046  60.6090307  34.4585919
  15.8299887  60.6627655  35.4137778  16.2790239  61.4259100  34.1861939
  10.6911659  19.4418669  25.2844834   9.7382605  19.3952370  25.3621292
  10.9192538  18.7206542  24.6979165  21.2530303  51.1627626  56.0226583
  21.7516303  50.9000158  56.7963505  20.5918789  51.7682600  56.3580418
  82.6501751  14.2660201  20.3966546  82.7036762  13.3103466  20.3890538
  82.0873642  14.4684601  21.1439800   2.8995550  44.3366814  65.1081514
   1.9611940  44.1510439  65.0728130   2.9517472  45.2630949  65.3432417
  45.1278257  31.2010002   5.2652889  45.4170275  30.3879833   5.6795293
  45.9373665  31.6287184   4.9861282  79.3223047  29.3238068  16.1701095
  80.2569866  29.5179915  16.1001611  78.8956976  30.0133848  15.6614649
  55.8224201  31.6033292  17.2061026  56.4829731  31.5713739  17.8981137
  55.3506422  30.7743931  17.2868574  15.4116750  52.9222107  53.1812859
  15.5300021  53.4604931  52.3986769  15.3032172  53.5538483  53.8922739
  56.5155458  38.2841539  66.8567991  56.9492006  38.2192516  67.7076626
  55.6747293  37.8442740  66.9823408  67.1940374   5.7700789  46.1265421
  66.7866468   5.4982746  46.9489670  68.1343269   5.7368064  46.3025522
   9.7624671  36.1935091  50.3513813  10.3808808  36.9142389  50.2316189
  10.1899445  35.4407454  49.9429226  30.1826167  30.7208800   8.6579436
  29.9345183  31.0394573   7.7900803  30.8433437  30.0497580   8.4868687
  47.4292946  62.2887945  19.9499249  47.7203751  62.8276014  19.2142701
  46.5126562  62.5330496  20.0777721  15.1227200  45.5969906  65.0411654
  14.9396324  45.0250721  65.7865620  15.4930329  46.3884878  65.4318428
  39.2277956   1.4681834  44.0759897  38.9090753   2.2206418  43.5775375
  38.4568644   1.1465746  44.5433903   5.1528966  27.7382755  25.3054786
   6.0385317  28.0494857  25.1183152   5.2379054  27.2533894  26.1263871
  37.4981427  20.3130317   3.3720505  38.0143070  19.8492265   4.0313613
  37.8440166  21.2055087   3.3813745  64.1553640  28.0814385  16.1037135
  64.3697596  27.3144436  16.6347337  63.9623785  27.7258134  15.2362347
  70.1929235  15.9456313  13.3501279  70.9748745  15.5337310  12.9825401
  70.5248308  16.5071070  14.0507090  43.5995054  22.7319360  20.3537035
  43.2088566  22.1261358  20.9834909  42.9302216  23.4030867  20.2201152
  21.2729931  41.7237949  56.4045954  20.6563473  42.4176931  56.6380215
  21.8156338  41.6130066  57.1853018  11.6830790  48.6893988  38.1107473
  11.9521713  49.1918707  38.8797355  10.7953787  48.3954954  38.3152914
  65.0829411  10.8928657  10.9752095  64.5311975  11.6673827  10.8659697
  65.0906038  10.4804885  10.1114285  83.0887985  45.9143925  24.4618630
  83.6404514  45.3613901  23.9085937  83.6980724  46.3188314  25.0794816
  70.4578304  31.9929194  50.5425310  70.1253176  32.0727015  51.4365673
  71.0121107  31.2127686  50.5618668  14.0038407  44.2200708  42.2231245
  13.2998800  43.9299297  41.6430473  14.7770941  44.2593670  41.6603041
  28.5068107  14.1596699  11.8812287  28.6345434  13.9230359  10.9625781
  28.6168122  15.1103175  11.9012094  63.0740309  51.9383526  51.9102955
  62.8111506  52.0125628  50.9928989  64.0305996  51.9153547  51.8842316
  78.0197001  49.0334845  35.8401513  78.3515215  48.2143784  36.2078309
  77.3848534  49.3456364  36.4849496   8.9295751  64.7453690  67.9049778
   8.8144660  65.2561808  68.7062645   8.1258214  64.8959017  67.4074364
  76.2732553  14.7412372  18.5288882  75.8240557  14.2889857  17.8147995
  77.1653843  14.8704100  18.2069397  57.2445583  24.2036200   9.3825632
  56.4873600  23.7705874   9.7767222  57.5793982  23.5699892   8.7480366
  61.8629503  26.9919181  24.8653579  60.9442663  26.9500589  25.1308751
  62.3327303  26.5199018  25.5529189   4.6316040  42.7727604  10.8652806
   5.5803853  42.7664852  10.9917974   4.3079683  42.0841503  11.4460623
  52.0313072  72.2221899  43.1289577  51.3583660  71.7221689  43.5908651
  52.7942181  71.6441917  43.1183958  69.4419813  72.8256035  52.1123362
  70.0542593  73.3815432  51.6303825  69.1121864  73.3856392  52.8150654
  72.4195385  45.4779625  36.5498877  72.6243687  44.9518776  35.7769012
  73.0597210  46.1893559  36.5319490  65.4296350  11.3719511  26.0483098
  64.8684835  11.9661117  25.5499983  66.3207769  11.6473353  25.8332205
  45.4647160  13.4054971   3.2162935  44.5779848  13.5985577   3.5207102
  45.9806728  13.3231688   4.0183166   8.2209975  54.8068523  62.3182631
   8.4561116  55.7107878  62.5276756   7.6543987  54.8785543  61.5501118
  69.2229176  16.4764607   0.6746681  69.7286272  15.8611131   0.1437849
  69.5766306  17.3362458   0.4468761   5.9494936  39.8540282  37.4939704
   6.5338057  39.1165972  37.6700592   6.0233641  40.4088688  38.2704544
  23.7537813  78.2340956   9.6870679  22.9439116  78.1331587   9.1869116
  23.8092613  77.4383736  10.2161980  64.7519064   3.7094927   7.3078275
  64.8822260   4.6550959   7.2365272  63.8013363   3.5999677   7.3333263
  13.9055383  74.2820454  42.5089979  13.8680649  74.3470144  43.4632540
  14.3137777  75.1012993  42.2290039  50.3335285  33.9015079  53.4217262
  49.8336267  33.1387520  53.7124729  50.6111097  33.6812186  52.5325394
  80.6369972  42.4415779  37.1940088  80.9379673  41.7746353  36.5768933
  81.2945557  43.1348276  37.1370006  51.9557524  16.4744198  42.5332594
  51.5243387  15.9759378  41.8392658  52.0202875  17.3636031  42.1848106
  58.5222578  27.0783424  29.5785260  59.2543888  26.5123868  29.3337488
  58.8710690  27.9666519  29.5045400  77.8230619  26.1018729  52.8863192
  78.1692362  25.2783680  53.2301712  77.0953274  25.8390522  52.3227930
  11.4784038  65.7725668  63.0855560  10.7942808  65.4462957  62.5009584
  11.4364862  65.1960754  63.8485289   0.7681270  32.2608852   6.5473849
   1.5819979  31.7601800   6.6034347   0.9725460  33.0977440   6.9646502
  60.2474594  50.9588242   2.9619846  59.4685555  50.4323769   2.7819952
  60.9128857  50.6132030   2.3670185   9.4676358  24.1581893  17.8282893
   8.8192564  23.4549451  17.8641248  10.3081894  23.7056470  17.7582431
  80.8282757  50.9873199  63.6962461  80.9365749  50.0475073  63.8420630
  79.8873806  51.1021662  63.5630131  48.7526512  14.9604309   5.0453848
  47.9805946  15.4877329   5.2506036  49.1878080  15.4377294   4.3389457
   8.4108889   9.5694256  30.2782106   7.8281432   9.4197726  31.0226846
   7.9403299  10.1953661  29.7277522   0.2644993  36.6536927   3.8085848
  -0.1115333  35.8989239   3.3556440   0.7165200  37.1442175   3.1220767
  55.6262398  57.1714830  10.4222119  55.5068254  57.8936291  11.0390389
  56.4869642  56.8123388  10.6376314  31.4626026  65.0785446  37.1138167
  30.5265641  65.2685356  37.0508528  31.7341733  65.4829025  37.9378176
  81.3055992  27.7989411  37.9608488  82.1726799  28.1957221  37.8773808
  81.1544704  27.7499771  38.9047742  16.8272793  49.9362659  55.5040312
  16.7066288  50.7205915  56.0392952  16.9292974  49.2267418  56.1383820
  70.9692240  28.5560966  35.2987099  70.8093596  29.4933367  35.4094291
  71.3055611  28.4742785  34.4062877  68.8276625   0.6637585  20.0608277
  69.1734982   1.2251079  19.3669128  69.3208456  -0.1523003  19.9768484
   3.8324752   0.3587483  25.1623154   2.9671267   0.5477690  24.7994447
   3.6554343  -0.1664925  25.9427071  30.4682684  29.9548793  24.6680021
  31.3145256  29.7184777  25.0477338  30.4280758  29.4631863  23.8477230
  61.8779230  23.5460353  27.2409916  61.5416098  23.3631063  26.3636875
  62.5068521  22.8439546  27.4076080  27.6528478  28.9071488  49.8563004
  27.8009677  28.6404395  50.7635784  27.8123975  28.1141853  49.3444586
  60.2269411  46.3349485   6.3992065  59.9236155  46.3211346   7.3069692
  60.7852507  45.5613375   6.3214374  10.6298316  68.8787508  67.9859972
  10.6502712  69.8335934  68.0498838  11.5487885  68.6246443  67.9012585
  76.3152885  63.3842945  65.6210613  77.0223188  63.0600643  65.0631952
  75.9421349  62.5966787  66.0168552  19.4241583  58.3735991  18.2956851
  19.2224526  58.8395977  17.4842739  19.0976918  58.9473057  18.9888728
  77.2756004  76.5623617  64.8396635  78.0422449  76.5777302  65.4125977
  76.6090727  77.0553207  65.3181744  49.8978519  11.0405028  15.9226668
  49.2954874  11.3234222  15.2346647  49.6060324  10.1571977  16.1481559
  14.9555254  70.2123213  64.0257931  15.1170897  70.1584911  63.0838633
  15.4939759  69.5157242  64.4013596   0.1924054  63.1188583  31.8652558
   0.8718028  63.4171629  31.2605548  -0.2131728  63.9243507  32.1860695
  57.8686476  30.5188632   3.3518600  57.4523211  31.0710120   2.6900187
  57.1502542  30.0062823   3.7225348  66.5469694  31.9820118  60.7138109
  67.3475409  31.4839005  60.8787489  66.0497093  31.4401889  60.1011181
   8.5718489  41.2582445   8.7980723   8.1898344  42.0245123   9.2260057
   9.5069027  41.3154459   8.9946270  74.3641424  46.6135025  32.9466772
  74.7470284  45.7404804  32.8603196  74.9699163  47.0852423  33.5182858
  11.3734472  59.0304041   5.3545237  10.8564055  59.1926718   6.1435544
  10.8571327  59.4154596   4.6464407  41.6707420  14.9763775  26.4945841
  41.0045242  14.5411384  25.9626532  41.9121504  15.7521439  25.9884810
  14.3318260  44.7970057  11.0643208  15.2029121  44.4479275  11.2529671
  14.3132186  44.8927450  10.1121020  83.2778645  70.4227781  31.1970043
  84.0076351  70.3495169  31.8120646  82.6864243  69.7108746  31.4412069
  66.9897795  68.6944866  22.8014183  67.4079227  69.3049955  23.4085941
  67.5305557  68.7331295  22.0125604  82.5124931  46.6725636  51.8962669
  81.8556595  47.3337889  51.6781378  82.7377892  46.8508434  52.8093338
  11.3957787  35.9147191  55.6623983  11.7394197  35.8767796  54.7698164
  10.5897284  35.3994346  55.6308270  55.5111122  65.4193830  64.5990467
  55.8278894  65.0222158  63.7877846  55.8082962  66.3281059  64.5528078
  50.0511169  73.1518364  59.7119331  50.8164978  73.6880541  59.5048094
  50.1549006  72.3678446  59.1726589  73.6709023  64.9365664   9.9331605
  72.9247046  65.2056456   9.3974233  74.4356012  65.2683258   9.4626218
  76.1414766  45.9675407  19.4269025  76.4886284  46.7090988  18.9311099
  76.4451790  45.1962185  18.9483023  64.0390396  64.8448467   6.8417907
  63.2179117  64.8429871   6.3498831  64.1873169  63.9256382   7.0638180
  71.0102606  41.7572546  12.5884628  70.3015089  41.7791939  11.9454873
  71.7348099  42.2148228  12.1619678   5.3621876  23.3926630  13.5387695
   6.0064137  23.8544512  14.0753865   5.6121027  23.5951734  12.6372349
  76.6282225  33.6569619  36.5865493  75.7869101  34.0883446  36.7360067
  76.6732407  33.5421705  35.6373239  74.2380333  37.9024410  14.7594678
  73.7131500  37.5523829  14.0396154  74.6505308  38.6860561  14.3961143
  80.5137348  46.0698557   5.9773201  80.3312588  46.7866850   5.3697908
  79.6589994  45.6713533   6.1412102  61.6511869  34.4232488   9.4948477
  62.5656843  34.1823363   9.3469262  61.5428638  35.2511168   9.0267342
   5.4272979  43.1934404  39.0817904   6.1192089  42.6137066  39.4002247
   5.8697134  43.7798166  38.4680605  40.6359100  45.9941339   5.8160686
  41.4098740  46.2794590   6.3016653  40.8373976  45.0970268   5.5499279
  79.2002678  61.6839790  42.4865532  79.9481964  62.1753168  42.8262949
  79.5886993  60.9167004  42.0662737  54.5489883  52.2068024  45.6594944
  54.4276571  52.8639889  44.9742079  54.2990112  52.6545858  46.4677191
  18.7146437  51.0090303   6.9347286  19.5779622  50.5958843   6.9197661
  18.1762457  50.4595184   6.3651699  11.9360018  23.9126420  38.2819390
  12.0744789  24.4250059  37.4853611  12.7424908  23.4074879  38.3850288
   6.7840791  73.8440084  67.1703100   5.9766597  73.6506176  66.6939640
   7.3257625  74.3194437  66.5404129  72.0921516  77.0882463  11.9900906
  72.0901108  76.4579296  12.7104568  72.2792721  77.9288673  12.4079072
  14.7891831  52.4573183   0.5015154  14.3292642  52.7075005  -0.2998055
  14.0975952  52.3711348   1.1576492  56.6502476   1.6896935   1.6548845
  56.4711189   0.8864059   2.1436319  56.3950014   1.4847362   0.7553983
  38.8812399  70.1924038  15.2412319  39.0618873  70.8695126  15.8932447
  39.7207832  69.7498369  15.1166070  76.2094975  44.3611336  39.3796086
  76.9054890  43.9658594  38.8546467  76.1780643  43.8294840  40.1749659
  50.1631498  73.8759518  63.6250877  50.9008312  74.3462324  64.0135384
  49.4911432  73.8795376  64.3067217  60.8792448  23.8542461  62.7412558
  60.5648422  24.2502046  61.9284821  60.9741592  22.9246426  62.5337362
  66.8012619  35.0007629  59.5146894  66.4875603  34.3018103  58.9408541
  66.7010736  35.7992458  58.9964056  66.1418486  57.5391197  52.0680666
  66.9536638  57.9293489  51.7441702  66.1825800  56.6273642  51.7794895
  49.7124863  76.8539333  38.6038160  49.5730877  77.1749973  37.7129078
  49.8731756  77.6434898  39.1205454  18.0948198  59.5692396  20.2854466
  17.5956690  60.3763866  20.4103208  17.5951231  58.9031506  20.7575226
  75.0044298  53.8734579  38.2713103  75.9134960  54.1371536  38.1288648
  74.6071339  53.9035416  37.4009776  69.3457985  48.3961010  61.3199425
  68.5723066  47.8404474  61.2240791  69.3493509  48.9396811  60.5320740
  22.6502967  55.5520296  20.2310109  23.1429791  55.1740646  19.5025599
  23.2848406  56.1033916  20.6888223  82.0769501  24.8630786  18.0278647
  81.4424324  25.5575490  18.2048893  81.5592289  24.0580082  18.0353975
  46.8165779  35.3314328  62.1280909  45.9695244  35.0513077  62.4748802
  46.6160727  35.6815672  61.2600851  21.4967752  44.3271065  59.6723938
  21.1351943  44.4309044  58.7922144  22.2055864  43.6925364  59.5668507
  53.5576773  14.4514394  40.7964897  52.7468681  13.9762533  40.9781885
  53.3744860  14.9395251  39.9937153   1.9653627  14.9017537   4.9405903
   1.8833363  13.9722705   5.1540494   1.0875662  15.2575958   5.0787246
  81.7951107  62.4928188  46.6999960  81.2222958  61.7681503  46.9509220
  82.0421886  62.9011822  47.5297070  60.9452009  13.7876582  53.6127424
  61.1289883  13.1289864  52.9429579  60.0838470  14.1333842  53.3786869
  32.2595692  40.5242300   5.3125358  32.7583051  40.1789379   4.5720851
  32.3956132  39.8849869   6.0118878  15.3875411  47.5536299  53.7508774
  16.2211299  47.2235155  53.4156370  15.3084254  48.4302807  53.3747768
  28.3307528  15.9169137  19.8978579  28.4271097  14.9709225  19.7881031
  27.4420571  16.0296142  20.2351213  16.2803149  55.9314585  10.8384383
  16.2742770  56.0371017  11.7897725  16.8704891  55.1940393  10.6830835
  52.8164434  54.4144964  16.3081849  53.4001684  54.7013664  17.0104694
  53.1039906  53.5240746  16.1064577   9.2550588  66.9803190  61.2293720
   9.2638266  67.7046919  61.8550205   9.6763015  67.3349619  60.4464197
   3.4184223  25.1325893  35.6177640   4.2419511  25.5878687  35.4423952
   3.6649105  24.2103696  35.6883812  47.8255558   7.5762367  26.9576693
  47.9628420   8.3273840  26.3804674  46.8884087   7.3924381  26.8927741
  53.9466858  77.9789305  10.4815197  54.0692425  77.2820950   9.8368204
  54.4594717  78.7123585  10.1418710  28.2599664  57.3751402   0.2948197
  27.8442693  56.8437290  -0.3841737  27.7712393  57.1703434   1.0919617
  43.5743523  15.3575492  19.6604240  43.8577843  15.6069028  20.5400395
  43.6630917  16.1586499  19.1440964   3.9901954  56.1638546  60.9994507
   4.4026557  57.0074177  60.8136892   4.1254747  55.6505346  60.2029371
  80.4986668  54.0897036  62.6041842  80.5499172  53.2957268  62.0720053
  80.9158802  54.7644186  62.0685291  31.7421842  25.0346422   9.1837043
  30.9407997  24.9227333   9.6950638  32.1401834  24.1642404   9.1686124
  68.4072065  11.7849803  17.6915157  67.9769754  11.5833116  18.5224557
  68.7158298  12.6852596  17.7939022   2.6745781  41.4496660  56.7575645
   3.3298504  41.4850235  57.4544144   2.0605335  40.7720184  57.0403671
  13.2589638   2.1860871  34.4383073  12.7215075   2.2487544  35.2278948
  13.7933874   1.4036182  34.5738268  22.9439592  31.2575126  28.8355708
  22.2825694  31.2647676  28.1436563  23.7064981  30.8413053  28.4336519
  65.7233381   5.9146070  17.9453981  65.7241249   6.5126348  17.1980071
  64.9063873   6.1073279  18.4054923  49.3998146   1.8227538  22.5701404
  48.9485931   2.4938852  22.0580697  49.8380709   2.3087767  23.2686687
  19.3074822  42.4621677  43.8886070  19.7585905  43.0451393  43.2779741
  19.5790839  41.5828991  43.6252642  19.3003500  36.5313244  59.3559408
  18.8145339  36.3625669  58.5486412  19.5288706  37.4596262  59.3083572
  66.2677431  24.1419125  65.6615686  66.5267181  23.7512708  64.8269653
  65.3600883  23.8640046  65.7847023  30.8722186  54.7121429   2.1969673
  30.3775573  54.5815849   3.0059761  31.0029006  53.8292694   1.8510076
  44.9530029  57.4827909  12.7458704  45.5927372  58.1201887  13.0631971
  45.3951645  56.6379166  12.8290451  49.7728348  50.9799004  27.9961109
  49.0655422  50.6323338  28.5394049  49.3809414  51.0811329  27.1287012
  45.6994247  40.3215790   2.8052106  45.5193758  41.0063982   2.1611321
  46.1199331  40.7809925   3.5320824   3.7502962  22.5607586  30.6578612
   3.2383409  22.3669052  31.4430714   3.0963948  22.6812625  29.9692965
  37.7884865  44.7606277  66.4216232  36.8641758  44.8883152  66.2081337
  38.2174110  45.5601549  66.1166430  39.2583609  72.8427124  25.8374381
  38.4271979  73.2129908  25.5403018  39.8617363  72.9941607  25.1099539
  38.4705877   4.9165407  45.3967190  37.8423190   4.2235708  45.1934814
  38.9251518   5.0777465  44.5699072  33.3975267  29.9177527   9.9387723
  32.7892351  29.5566797  10.5836260  34.0460062  30.3910804  10.4599905
  66.5731192  31.8524551  54.4200993  65.9491253  32.4237823  54.8678160
  66.0467577  31.3839817  53.7722492  11.1119068  50.2356958  47.0453930
  10.7323742  49.8293495  47.8245354  10.8080459  49.6912003  46.3191557
  74.5184374  66.9240522  22.5686121  74.4601917  67.8793669  22.5833440
  74.5862770  66.6739941  23.4900784  12.3623979  62.4668550  49.0177488
  12.6505899  63.1468439  49.6266699  12.1555877  61.7173719  49.5760822
  69.5572805  18.3648574  47.1172428  69.5226955  17.5836432  46.5652084
  68.6817598  18.7456155  47.0485592  69.3175840  20.3667545   7.0787364
  68.7365818  19.6864927   6.7382765  69.2818785  20.2586079   8.0291367
  44.5646620  25.0211334   9.0382236  44.3422842  25.9441543   9.1599196
  44.6296167  24.9135113   8.0893135  79.4182348  38.2480264  38.2056737
  79.1302395  37.9127431  37.3566294  79.7357368  37.4754095  38.6731005
  18.8077140  33.6684799  47.5364876  19.6687043  33.6375117  47.1193933
  18.4442055  32.7934551  47.4007463  24.2137623  68.2790279  11.0029554
  23.9918804  69.0847969  11.4695740  25.0871301  68.4414387  10.6464696
  43.4763384  74.3499422   2.2453704  43.2074594  73.4730673   1.9714662
  42.7552700  74.6616602   2.7922913  20.6447220  13.0543017  44.6628189
  20.6801438  12.1716607  45.0314999  19.8002315  13.0926096  44.2138195
  71.1844635  48.4876537  45.9068346  71.2259293  47.6255798  45.4929018
  71.4052200  48.3239555  46.8237352  34.1328788  60.7920074  62.2654247
  34.0398073  61.1020184  61.3646126  34.7806334  61.3792133  62.6550865
  72.5986147  14.6276116  15.5417824  72.3603201  15.1291823  16.3214457
  72.2306728  15.1279354  14.8134089  60.3032017  22.3122311  21.7211127
  59.4795322  21.9910884  21.3541412  60.3227472  23.2407594  21.4894128
  77.9151630  25.2106452   3.6365804  77.2111511  24.7731090   4.1152912
  78.1022978  25.9960532   4.1507286  10.9679329  78.7873459   8.1567490
  10.2494180  78.3401346   8.6039269  10.7631278  78.6983252   7.2259635
  31.5908527  14.3255389  19.7555673  32.3718667  14.4136119  20.3019118
  30.8603764  14.3755102  20.3721189  13.0678129   5.3355950   7.1545422
  12.8717303   6.1537743   7.6110142  14.0234160   5.3123909   7.1043795
  31.1511636  33.9535260  55.8594465  32.0019960  33.5283160  55.7521486
  30.9343958  34.2793775  54.9859142  64.7625828   3.2133037  20.6543517
  65.2657366   2.4630520  20.3378272  65.3637314   3.9542621  20.5779839
  14.0128767  34.1476154  63.8610601  14.3302906  33.4101391  63.3398962
  14.2593384  34.9219966  63.3552742  43.2199001   1.8493991  62.6266909
  43.1476831   1.2558913  61.8791866  42.3984528   2.3407632  62.6226139
   7.5463796  59.6598768  64.1577911   8.3293980  60.1989079  64.2698574
   6.8913126  60.2601624  63.8017321   8.3132297  58.9668369  13.1038666
   7.7947319  58.8881540  13.9046168   7.6787508  58.8558006  12.3958135
  83.8167572  25.6376004  30.4216790  84.1917706  26.5018058  30.2521062
  82.8724194  25.7640433  30.3296709  71.8255758  31.6758394  65.1703310
  70.9186602  31.9757342  65.1087189  71.9251490  31.3996673  66.0813999
   3.1002310  28.6855578  63.8822079   3.4485334  28.1654191  64.6063471
   2.4743155  29.2810202  64.2943811  59.8685980  41.5734100   3.7779152
  59.4157696  42.0613194   4.4657549  59.1657209  41.2184334   3.2336825
  77.0325565  51.5862942  68.2329607  76.5320158  51.0048914  67.6605463
  77.6399994  51.0059786  68.6917400  65.6390476   6.5654236  22.1368289
  65.8358383   5.9336221  21.4452124  64.6832132   6.5757918  22.1868730
  74.3562603   2.3082656  14.5984018  73.5854483   1.7457640  14.6737254
  75.0523376   1.7222056  14.3013489  29.6686769  42.4380207  62.5237179
  29.9840164  41.6529846  62.0759296  28.8563871  42.1617270  62.9480696
  25.9595513  26.3966131  52.9619217  26.6343474  26.9270968  52.5382805
  25.1680064  26.9326568  52.9135180  10.1851547  27.3431015  22.4379182
  11.1159325  27.4046278  22.2232103   9.8829889  26.5632677  21.9723153
  65.0169468  38.0200148  36.8571615  65.6192160  37.2919106  36.7042899
  64.2327929  37.6096964  37.2218060  25.3686674   0.1433054  12.8682184
  25.5371721   0.1136843  13.8100040  26.2002046  -0.1108917  12.4680138
  24.7607565   3.1222796  32.9285049  23.8139391   3.0735418  32.7966142
  24.8834944   2.9275599  33.8576198  41.3072252  77.2192907  18.6853969
  41.6946316  77.0035172  19.5336843  40.8088255  76.4385033  18.4441483
  28.8908505  66.8855429  26.2774134  28.7455273  66.2263203  26.9560432
  29.1010880  66.3792276  25.4927659  82.3284435  20.7358408  17.1492147
  81.8412590  20.4798913  16.3660336  81.8110943  21.4442635  17.5322509
   0.2694329  66.8606710  46.5619850   0.5647879  67.5084019  47.2018576
   0.1193167  67.3650408  45.7624149  52.5238276   9.3492395   5.0513732
  53.4326553   9.0758085   5.1758868  52.1984243   9.5094997   5.9371841
  67.7155161  10.2617681   4.2875433  67.3371410  11.1303449   4.4240654
  68.5034895  10.4226685   3.7684646  78.3452225  31.2650228  14.6787560
  79.0614319  31.8293667  14.3875742  77.5843811  31.8445301  14.7178435
  60.0932121  64.0281439  40.3464985  60.7286739  64.1243410  41.0558414
  59.8963213  63.0916214  40.3266859   2.1573213  68.6914492  64.6551323
   2.9831049  68.4180593  64.2556667   2.0554614  69.6062374  64.3924141
  30.4943585  18.1384242   5.7378566  30.3822041  19.0685356   5.5415219
  31.0157537  18.1242275   6.5404636  48.6446190  19.7299862  65.2430058
  49.3000650  19.0542650  65.0697327  48.8067579  19.9943244  66.1485863
  61.5646219  29.7429729  19.9628425  61.5740204  29.6487665  19.0103364
  61.0252666  30.5176520  20.1215935  59.1489172  26.0791206   6.0110587
  59.4109058  25.5240989   6.7455953  59.4232321  26.9598532   6.2665868
  16.6085339  78.0200386  50.2240372  16.4238787  78.5006046  51.0310030
  15.7594967  77.6700592  49.9540758  74.4723940  74.9874926  13.2231939
  75.0852823  74.4357300  12.7372301  74.7166300  75.8823538  12.9869604
  67.1456528  69.2576027   8.3117718  66.2692022  68.8907480   8.4279174
  67.0186472  70.2045250   8.3703953  27.3362899  54.7078085  21.3550830
  28.0335307  55.3310680  21.5591216  27.3253059  54.1080570  22.1010113
  69.8619270  78.1698799  19.8262107  69.7093582  79.1119528  19.9000430
  69.7220993  77.9765272  18.8992286  41.9997168  63.6001110   2.1976396
  41.7308807  62.6825523   2.1524392  42.9480743  63.5784149   2.0696804
  11.0035861  20.8803201  68.3059835  10.2274477  20.3456712  68.1386709
  11.7053902  20.2454162  68.4495068  71.0269737  10.1255906  17.0835567
  70.4814768  10.8741093  17.3251939  70.4214287   9.5125645  16.6667283
  49.6548796   0.3582903   1.2754659  49.4603348   0.5723352   2.1879175
  48.8012695   0.1663026   0.8872426  13.3051884  55.9007359  32.5747633
  13.5054684  55.0115681  32.8671718  12.5499833  55.7980299  31.9956708
  14.3236887  69.1518784  13.2606030  14.7881234  68.4015560  13.6314797
  14.8046589  69.3591022  12.4593806   9.4070709   5.5247092  30.2593780
   8.5158056   5.5921918  30.6019044   9.3753546   4.7844541  29.6533680
  10.3256738  38.3907962  64.3509769  11.0604119  38.3899474  64.9644852
  10.0950468  39.3148017  64.2547655  49.8057079  15.8812606  49.5958281
  49.7530365  16.7334795  49.1631889  50.6614685  15.8828437  50.0246716
  29.0317702  60.0898886   4.3119249  29.2375445  59.5587492   5.0811946
  28.9586997  60.9825087   4.6497542  45.8754873  59.4801426  17.4594641
  45.5531073  58.5793686  17.4897051  46.5563488  59.5135403  18.1314361
   6.9423932  31.3689065  62.3127604   6.6680062  32.1745324  61.8746901
   6.1269015  30.8944845  62.4744129  40.6198353  65.1647966  68.6861320
  40.8998877  64.3043272  68.3740470  40.4660839  65.6706087  67.8881680
   3.5665119  76.8471575  60.7326651   3.9276257  76.5401125  59.9010706
   3.9749384  77.7018595  60.8701324  42.8000832  35.7094169  15.5838346
  42.9280329  35.7031989  14.6352458  43.6835194  35.6371427  15.9451544
  20.2873874  38.1412578  64.6404219  21.2047601  38.4042406  64.7145891
  20.3023434  37.3814416  64.0584564  45.2647543  67.9430485  62.5164700
  45.0072670  68.8473988  62.6955938  44.7631359  67.4224567  63.1438446
  26.6295815  61.4408493  34.2472744  27.1831155  61.4250374  33.4665179
  27.0920062  62.0157242  34.8571205  27.8952408   9.8171210  21.0625291
  28.2117534   8.9376575  21.2689161  28.6763906  10.3687453  21.1043382
  48.3699036  78.3521271  43.6813879  48.5734844  77.7474737  42.9678202
  48.5579538  79.2190313  43.3217382   7.1520054  46.6313553  63.9213514
   6.7358118  46.6077375  63.0596924   7.0747733  47.5439262  64.1997099
  51.2451601  23.2499743  20.2234292  51.0044670  22.3235512  20.2173376
  50.9335375  23.5839367  19.3822443  22.6669240  24.0557003   1.2984163
  23.6216092  23.9914989   1.3246217  22.3700428  23.5089183   2.0258261
   4.8176119  60.7529688  42.5134563   4.3826854  61.4280939  43.0342960
   5.4980791  60.4064751  43.0906391  19.2199361  63.2829809  39.9935055
  19.1400862  64.2019415  40.2491760  19.6318984  63.3095646  39.1299009
  13.7025046  29.5607615  32.7568674  12.9084134  29.9387288  33.1347442
  14.3197489  30.2912545  32.7166057  19.6766531  28.6612225  27.2248578
  19.1667223  28.7413883  26.4187717  19.0945375  28.2044482  27.8320885
  30.4604030  67.0826960  31.2290549  31.0815263  67.1799850  31.9508386
  30.9933472  66.7807436  30.4935074   0.6881773  56.5935135  27.9872084
   1.5306166  56.5656090  27.5336123   0.7668051  55.9367275  28.6790752
  38.7662935   5.5519336  37.7026963  39.6510410   5.8364284  37.4735379
  38.8985348   4.8025438  38.2833529  31.4048886  74.7899866  62.7604532
  31.3192487  75.1392984  63.6475182  31.9371700  74.0011978  62.8640032
  83.1441689  16.2725067  16.1791372  83.0594158  16.8811965  16.9129932
  83.5409641  16.7931187  15.4807436  68.3444500  35.5144358  43.3985472
  68.7742567  35.7870746  44.2092037  68.7896204  36.0117602  42.7124500
  78.1857872  25.2163434   0.6781948  77.9752016  25.1141357   1.6063318
  79.1127682  25.4547381   0.6677594  17.5280488  78.5101318  23.0978179
  17.7444148  78.7387753  22.1938586  18.3740258  78.4704542  23.5438895
  57.5952721   4.3784735   1.3778648  57.0037413   5.0576884   1.0538384
  57.0229626   3.6374801   1.5769288  51.3424492   4.9006101  21.8377638
  51.2140512   3.9526245  21.8050575  50.6642485   5.2541631  21.2621975
  33.8792944  16.0123658  47.7325630  33.6172104  16.2188840  46.8354034
  33.2395029  16.4677715  48.2798338   8.1590503   7.1564561  66.4690208
   8.4453022   7.6291960  67.2505665   8.4449887   6.2549090  66.6162777
  63.0319405  24.7025633   7.8292942  62.0870161  24.5818424   7.9230112
  63.3564615  23.8459396   7.5515991  59.4805622  74.5717859  19.9874389
  59.4599676  73.7839413  19.4442010  60.1372862  74.3833590  20.6578422
  28.5966587  15.6787002   1.5658787  28.1832194  16.4336860   1.1471921
  29.2135429  16.0594809   2.1909308  53.4695292  64.0684462  66.0030603
  54.2157078  64.4796085  65.5667305  53.1543636  64.7329569  66.6157007
  21.6740704  61.2533426  63.4181929  21.6710258  60.6457043  62.6785994
  20.7525015  61.4770603  63.5481644  22.6131725  39.7452760  64.6054602
  22.2480917  40.6012583  64.3812990  23.0926585  39.8953080  65.4202080
  18.6712694  76.5494585  48.2977867  19.3677580  77.1580029  48.5443783
  17.8756607  77.0816422  48.3018923   7.6469082  57.7299500  58.8258886
   8.5519993  57.8031301  59.1286898   7.5310415  58.4741974  58.2352114
  26.2243891   4.1467893   0.5427116  26.5908384   3.2793683   0.3708787
  26.7003083   4.7293946  -0.0491514  29.9218369  14.8391485  48.5192156
  30.3640509  14.4176257  47.7823305  30.2315092  14.3620491  49.2890930
  16.9650781   1.8793236  56.1163902  16.8794668   1.3396311  55.3304958
  17.9079592   1.9228779  56.2754869  65.2172470  26.0095143   9.2497516
  64.5992565  25.3317928   8.9758730  65.8571815  26.0514283   8.5391444
  41.5707731  70.5804873  34.5764637  41.5374517  71.5358305  34.5271206
  40.7147217  70.3285408  34.9227691  72.2332144  22.2589302  34.8514438
  72.9293871  22.1330094  35.4962063  71.5368509  21.6650224  35.1317692
  27.1827507  14.6945846  48.4712362  27.2251034  13.7664580  48.2409763
  28.0918217  14.9920857  48.4349346  62.5173473  41.3515568   2.4174829
  62.3128796  40.5713654   1.9019955  61.7780113  41.4419460   3.0186820
  10.6796718  78.5458088  49.2653084   9.8016816  78.2018709  49.4298410
  10.7566726  78.5594511  48.3113098  13.8751173  48.5293341  32.7024174
  13.1802356  48.2868338  33.3144355  13.4208488  48.6881971  31.8749928
  63.7678623  21.5245509  26.4393592  64.2489672  21.4633799  25.6141138
  63.8874769  20.6683946  26.8503618  28.0652308   9.8378265  51.9242859
  27.8533077  10.7688093  51.9920492  27.2149849   9.3981528  51.9225502
  27.7038836  46.7533255  57.9475355  28.1482172  46.5873480  57.1161222
  28.4103179  46.9593668  58.5596895   8.7994182  69.5134878  52.3891068
   8.7013048  69.9164104  53.2518148   9.7256720  69.6266508  52.1758509
  76.2114382  34.5432687  18.2035995  76.1970282  34.2495728  17.2926855
  77.1298313  34.4718647  18.4637725  67.6828766   3.8869309  23.6012030
  66.9575357   4.1794208  23.0493355  68.1297255   3.2222438  23.0770373
  18.9442313  62.3388433   2.6362488  19.8834038  62.1758032   2.7234554
  18.5419488  61.4747429   2.7241987   2.2524835  62.1736431  55.2389240
   2.8594354  62.9072189  55.1403856   1.6010888  62.3075962  54.5504665
  31.4607000  65.1226187  61.8935871  30.8928394  64.8998451  62.6312447
  30.9132528  64.9865532  61.1202717  63.2639408   6.0056949  19.5827055
  63.1219578   5.5867267  18.7338603  62.4537611   5.8464134  20.0669265
  23.9118910  65.2944851  52.8901768  23.0207849  65.4690027  53.1930017
  24.3367767  66.1522150  52.8890753  28.1774020  37.6981997  59.6729851
  28.2951164  38.5481024  59.2486715  27.9059649  37.1129918  58.9658165
  77.5360203  53.4383869  54.7357273  76.9693899  52.9545450  54.1348410
  77.0095682  54.1897678  55.0086832  44.7947121   5.7112110  19.1808438
  44.0870094   5.5166310  19.7952712  44.3505383   5.8831680  18.3505607
  30.6028724  19.2753792  32.3258209  31.0614419  18.7776887  31.6488791
  29.8335719  18.7449551  32.5333261  10.5492258  -0.1331655  50.1255703
   9.7901404   0.0770229  49.5816612  11.0822892   0.6617195  50.1103067
  78.8249207  38.2913423  61.8253469  79.4897223  38.8546109  62.2215796
  78.0919266  38.3167720  62.4404097  78.7663603   2.0263001  37.4101758
  79.0657902   1.4635456  36.6961169  77.9026413   2.3293568  37.1302152
  22.7041149  34.9677014  41.5386009  23.3437896  35.6792712  41.5118074
  22.9029846  34.4376707  40.7667542  63.1815529  51.2112141  10.4778826
  63.8010025  51.6379833  11.0698140  62.3539019  51.6683292  10.6271303
  67.6928854   8.2456273  51.9150019  68.5114813   7.9150414  51.5450811
  67.0093393   7.7453464  51.4692259  21.4404964  23.5828948  34.4212174
  20.9693289  23.4312963  35.2405167  20.7999396  24.0092921  33.8519144
   6.5116429  30.4516816  24.6887970   7.0566148  29.9373698  24.0932107
   5.8426720  30.8408546  24.1255426  43.8540125   3.1785044   5.2649683
  44.5424604   3.1002215   4.6045586  43.9615726   4.0610451   5.6196302
  14.1475296  31.4565945   8.3333063  14.8927033  31.6924930   8.8858461
  14.1222632  32.1380067   7.6615399  35.7798696  69.8803282  46.3712502
  36.1626554  69.2539930  45.7569122  35.6965160  70.6897974  45.8672285
  64.1534090  25.0028753  46.5305614  64.5616198  24.1461086  46.6552448
  64.8360825  25.5365491  46.1238956   1.6047056  43.7730551  57.1455002
   2.2105786  44.3603468  56.6935778   1.9286537  42.8947687  56.9457340
  67.4685621  30.0958228   7.3461187  68.0914259  29.4077659   7.5803173
  66.7397261  29.9765086   7.9550457  36.1398387  10.8461523  62.7877855
  36.3356280  10.1489425  62.1618462  36.3146329  11.6553867  62.3073483
   1.0862524  35.1925516  62.4997902   1.4759745  35.3963041  61.6495895
   1.0385308  34.2367244  62.5185013   8.5311621  40.0106144  59.7206926
   8.4413958  40.2713346  60.6373119   9.4753057  40.0102758  59.5631313
  19.6161473  62.5527334  53.9876604  19.7124195  61.7008018  54.4133139
  18.9988124  63.0293465  54.5426130  80.1338005  61.3930559  49.9486542
  79.1955185  61.4985847  49.7914267  80.3446198  62.0633745  50.5986166
  74.7005987  54.1097403   5.3017944  75.1996994  53.3414650   5.5790645
  74.0909195  53.7747812   4.6442798  18.2952356   4.1659665   5.6095994
  18.9102030   3.5857046   6.0583115  18.8503945   4.7492179   5.0920588
  64.5646095  53.8743925  37.1799707  64.7549009  53.4594345  38.0212975
  64.4587088  53.1435537  36.5709615  79.4899702  47.6575565  53.5623264
  79.0135098  46.9085932  53.2041693  79.7089720  48.1900167  52.7976370
  18.0564296  72.9361105  62.7010584  18.2801867  73.1484032  63.6072016
  17.4068296  73.5943890  62.4542332  83.9887142  33.9242148   2.7251372
  83.4476471  33.4404302   2.1010938  83.7904358  33.5263658   3.5728598
  37.4408698  74.1818714  60.2536201  37.1560550  74.8473787  60.8798885
  37.3006105  74.5840311  59.3964005  32.3099566   8.7636685  41.7879009
  31.6727304   8.6266232  42.4888945  32.9133558   8.0246025  41.8648672
   3.9391008  34.2825794  23.0393410   4.8872045  34.2322850  22.9176784
   3.6248595  34.7657824  22.2751451  23.3440638  56.6515684  37.2809553
  22.4138927  56.7682266  37.4743605  23.7360311  56.4170790  38.1221509
  65.0005865  11.2799609  21.0202479  64.5641518  10.5066800  21.3777304
  64.4415474  12.0121539  21.2802434  80.7104683  17.0373833   4.9058214
  80.4589272  17.9558635   5.0025380  80.2831936  16.7559481   4.0968299
  82.2590446  53.3493710  64.9740696  82.3973560  54.0940809  64.3888187
  81.7663956  52.7195311  64.4479179  50.4276562  18.4540856  62.0671320
  50.5888319  18.4610856  63.0106401  49.4798756  18.5601175  61.9852686
   7.4905193  46.6810179  58.1440496   7.1697313  45.7893848  58.2793808
   8.2773942  46.5739346  57.6096439  29.9394035  67.0558977   2.3194404
  30.1130700  67.3651457   1.4303757  30.2805424  67.7487564   2.8849480
  35.7505608  15.4828644   0.4163464  36.6112709  15.8743441   0.5651780
  35.3365397  16.0536146  -0.2310047  42.6822948   0.3417306  43.4017706
  42.4574232   0.1111602  44.3031597  42.5257254   1.2845939  43.3495474
  60.3960085   6.6263926  65.4198551  61.1695004   6.0658407  65.4808807
  60.5229998   7.2849572  66.1027908  46.9001913  33.3966088  10.1170135
  47.8422260  33.5108399  10.2425039  46.7342663  32.4867868  10.3638434
   8.2519388  41.9859028  30.2890396   8.7456501  41.7533922  29.5026422
   8.5696775  42.8582191  30.5221391   9.9203062  37.1717286   7.3381835
  10.3793919  37.6450968   8.0320090   8.9975154  37.2150064   7.5888139
  78.4830856  56.5586329  47.6008081  78.4974241  57.5121260  47.6837397
  77.8394747  56.2715292  48.2485485  44.7406149   9.2701972  65.7239151
  45.1051521   8.5114288  65.2682638  45.4990578   9.8220158  65.9149361
  37.4200726  60.7595444  61.3095903  37.2205400  60.0252819  61.8903446
  37.0543957  61.5236568  61.7552805  62.8020334  72.2334146  28.9712977
  61.8456745  72.2720194  28.9606309  63.0151033  71.4381790  28.4830046
  32.6173401  51.4926195  62.7712870  31.7208385  51.6286564  63.0779028
  32.6968527  52.0598745  62.0043898   1.5033436   4.8426530   3.3744025
   1.6718644   5.4745501   2.6754472   0.8778679   5.2830708   3.9497671
  54.4955635   0.1562552  35.4225349  54.8658085   1.0303819  35.5452275
  53.5492229   0.2861704  35.4841042  69.2781448   6.5790558  17.3856664
  68.8250256   5.7760954  17.6428938  69.1060686   6.6611916  16.4476502
  26.0418034  52.3050928  26.8336844  25.1837492  52.6191711  27.1188688
  26.5596676  53.1007910  26.7115927   5.4974300  25.9610486   1.7028067
   6.1815643  25.7628036   2.3422527   5.9433156  25.9264660   0.8565080
  67.2813559  32.5121522   9.4660884  67.9527664  32.4062014  10.1400411
  67.6555967  32.0987535   8.6880934  61.7667294  15.4368019  57.9492903
  61.0267019  14.8821270  58.1961250  61.5912151  16.2747765  58.3773375
  36.1823511  35.9446192  21.0855174  36.2440753  36.8851709  20.9188318
  36.8936181  35.7630587  21.6998196  51.7561674  78.3765936   7.1620542
  52.4968147  78.9704514   7.0395368  51.6049385  78.3741474   8.1072295
  63.6761999   2.4456665  50.5727530  63.3660460   3.3512250  50.5719614
  63.4171581   2.1030283  49.7173405  26.5031266   1.2581141  31.8343043
  25.8878446   1.9403470  32.1030426  26.7803860   0.8491804  32.6541424
  69.0112400  17.4725056  30.4089522  69.7578335  17.9029858  30.8255124
  68.3903313  18.1809664  30.2392936  45.4857016  14.8806214  38.4894061
  44.8563862  15.5221999  38.8189125  45.5340433  14.2171967  39.1777110
  66.2165070  71.3842678  59.1633511  66.0441160  72.2789669  59.4566536
  66.2909079  70.8773136  59.9718618  39.4762325  73.8598204   3.8907814
  39.8314905  74.6922398   3.5791603  40.2430964  73.2969332   3.9971179
  47.9427052  14.9448752   9.5114124  48.3366108  15.4740191   8.8178170
  47.2387743  15.4920948   9.8596495   3.0454797  38.3548760   3.2179636
   3.9149174  38.5651898   2.8772625   2.5665238  38.0180931   2.4607247
  12.3841560  49.7931242   7.4745250  11.6948414  50.2724123   7.9342669
  13.1478417  50.3683043   7.5212556  60.5113411  35.9214973  13.9105630
  59.6482706  36.1912870  14.2244971  61.0019875  36.7390800  13.8265574
  58.4796476   4.5637658  53.7192678  59.3913984   4.8181397  53.8615131
  58.1436491   5.2125883  53.1009102  53.6894608  76.0950136   8.2144779
  53.8904715  75.2917671   8.6947024  53.5235977  75.8030319   7.3181140
  30.5980468  30.2435017  60.5448341  30.9654284  30.5007458  61.3904619
  30.9610009  29.3731046  60.3808165  65.8600950  26.4091611  63.6027431
  64.9104929  26.2907743  63.6246014  66.1860180  25.8635354  64.3184948
  12.4492347   7.5967205   8.6525005  13.1140733   7.7044022   9.3326664
  12.0186603   8.4500706   8.6012059  72.3994589  64.1055107  40.6404972
  72.1687937  63.9029455  41.5471363  72.0842218  64.9994183  40.5071449
  67.0343447  15.8894956  26.9701695  66.4606142  15.2450562  27.3846126
  67.8752708  15.7824838  27.4147248  41.0402489   3.1913090  61.7395306
  41.3951015   2.8609443  60.9142017  40.0914764   3.1109065  61.6415644
  77.7279091  39.0278769  13.0136025  78.2716942  38.5743642  13.6576927
  78.3527088  39.3916082  12.3862624  65.2770662  36.1608624   8.0828702
  64.6912956  36.3981295   7.3639762  65.5883694  35.2838993   7.8586853
  27.3714685  50.4618979  53.6339712  27.9428291  49.8534393  54.1025496
  26.5063190  50.3230047  54.0192699  63.9080048  12.6090181  67.7505684
  63.3272982  12.8326309  68.4778976  64.3537807  11.8116438  68.0364132
   3.3986175  53.5876513   7.0770067   3.0665952  54.0651655   6.3167608
   3.6735716  54.2713356   7.6879138  30.0522518  56.8955517  64.6278858
  30.5754757  57.4915695  65.1638222  29.6922970  57.4496412  63.9353180
  48.0600739  18.7164581  43.4033918  47.6313734  18.2626498  42.6777840
  48.3209467  19.5613265  43.0368233  82.1480751  30.2672887  12.0429480
  82.9220390  30.8304930  12.0457768  82.4892807  29.3904495  12.2189140
  23.3079123  58.1894493  61.9436359  23.5698676  57.6352549  62.6788092
  24.1236210  58.5902262  61.6432524  31.0602021   0.0221839  37.8493619
  30.4253340   0.5248196  38.3597851  31.8468070   0.0059783  38.3945417
   0.3701095  53.0569172  52.0642519  -0.2089287  53.1021738  52.8251028
   1.0261333  52.4013805  52.3011827  56.7462063  28.5802865   8.4061962
  57.0984745  29.3744040   8.8080871  57.4726200  28.2304573   7.8902709
  65.3828144  29.8378778   3.6027962  66.2134743  30.2883482   3.7554717
  65.6350946  28.9761877   3.2710189  10.6131256  14.1566634  19.6421099
   9.7147274  13.9855802  19.9246764  10.8962643  13.3378279  19.2352033
  75.8054829   6.6447043   6.4588970  76.6800165   6.9434053   6.7083013
  75.2099657   7.2308064   6.9258827  78.5641432  39.8239660  22.4096131
  78.1651402  39.9404383  23.2718563  79.0318012  38.9911675  22.4726295
  37.7535558   2.0552409  50.4427385  38.0062389   1.2037618  50.0858545
  37.8676438   2.6641762  49.7130680  39.2222333   0.8006356  37.0647073
  38.8500786   1.3894160  36.4081502  38.4730077   0.3031869  37.3924804
  36.3559628  62.8684711  62.8096581  36.6166592  63.3806324  63.5751390
  35.6474733  63.3749962  62.4125385  36.6341805  52.8190756   5.9481430
  37.4623704  52.6847363   5.4873967  36.0622740  52.1251678   5.6200528
  19.6173549  55.7614374  30.6719875  19.5887935  55.3020906  29.8326921
  20.2831769  56.4385557  30.5518985  30.5133343  58.7190628  66.8314934
  29.7952127  58.6339808  67.4586248  30.6406665  59.6633148  66.7398310
  23.7913442  50.4032898  57.5674963  24.1996360  50.4456186  58.4322166
  23.3898473  49.5349932  57.5344467  35.1170397  51.4091921  60.5599117
  35.9744930  51.6049242  60.9376621  34.6233845  52.2241688  60.6512594
  78.0011940  64.7016287   8.0163133  78.6600018  65.3759909   8.1819618
  78.4101677  63.8890028   8.3139771  74.0388393  64.7111034  64.3482685
  74.6477747  64.6613836  65.0851202  73.3667850  65.3297901  64.6342659
  40.9366941  71.5345049  49.2955065  41.5100622  71.6162539  50.0576067
  40.5832148  70.6470060  49.3558168  11.3726342  29.0863872  24.3407202
  11.1914325  28.7223053  25.2072310  11.0188150  28.4394860  23.7303424
  57.1867609  31.6481042   6.0017753  56.8997478  30.8862782   5.4983127
  57.8829479  31.3132501   6.5669549  77.4988222  12.4249506   2.5484413
  77.2978544  11.7651939   1.8846898  78.0027962  11.9523966   3.2109624
  70.5664873   5.4219449  52.2987366  71.2703514   6.0663277  52.3734093
  70.0265741   5.5658513  53.0759192   1.2623781  49.5613670  25.3150892
   2.1054441  49.9277353  25.5820107   0.7353427  50.3234339  25.0748301
  31.4098978  73.4152699  51.2908173  31.5504551  72.8844881  50.5067635
  31.9745255  73.0176401  51.9536257  75.0862265  16.1947072  30.4173636
  75.1642084  16.3358855  29.4738483  74.1526079  16.3019943  30.5992389
  35.1350856  11.7430460  15.4634964  34.9289632  10.8286583  15.2694857
  34.5227432  11.9843435  16.1585093  50.8902788  27.1374583  11.8205154
  50.6657648  27.1575475  12.7507949  51.7067575  26.6393638  11.7818797
  40.3166628   9.5836490  63.6331511  39.5706630  10.0107634  64.0542078
  41.0833979  10.0205147  64.0039587  25.5033326   2.5632173  21.4279819
  25.3520179   2.5717098  20.4828572  26.4559150   2.5357524  21.5177965
  10.0854003   3.5298514  14.6420002  10.1726329   2.6917231  15.0960529
  10.7706416   3.5127598  13.9738810  21.6407180  44.2642689  66.2433910
  21.4848042  43.7545824  67.0384645  20.9273386  44.9021912  66.2240887
  23.0360675  22.5255251  46.7664528  23.2295895  23.3095098  47.2804070
  22.0808697  22.4640989  46.7737484  21.9686723  57.8952503  41.3993549
  21.6288805  58.2550526  40.5800152  21.2238503  57.9223824  41.9999695
  20.8202434  45.3748989   0.5345446  21.0122585  45.0653982  -0.3506514
  21.2461090  46.2305498   0.5867469  40.1525402  65.7818794  28.4658718
  39.8742723  65.1776314  27.7776265  39.9542522  66.6506577  28.1164026
  74.3411684  12.5373292   0.0445427  74.6169090  13.1013227   0.7671160
  75.1575565  12.1822917  -0.3071572  38.1960106  30.2615929  37.9941154
  37.6428390  29.8896360  38.6810517  39.0547776  29.8634386  38.1363225
  81.0653114  19.4179130  33.2899737  80.6641674  18.5488808  33.2998228
  81.0523319  19.6772766  32.3686743  33.4317994  74.4756985  48.3336782
  33.3577776  74.0408134  47.4841928  34.0189314  73.9141893  48.8398600
  11.4062035  17.5273860  65.8345175  10.7600546  17.1861589  65.2162218
  11.4603198  18.4616053  65.6331730  10.6648672  30.8904719  45.3825426
  10.4016089  30.0932002  45.8421993   9.9133706  31.1082602  44.8311329
  81.0449696  26.3551521  65.6013441  80.5768204  25.9358048  66.3232994
  81.9535732  26.0742640  65.7098150  32.8476143  68.0224419  36.5968561
  32.8493667  67.0678425  36.5263820  32.3070073  68.3157587  35.8634114
   5.6380200  31.0856175  11.5637076   4.8977304  30.4795027  11.5925002
   6.4106727  30.5207253  11.5754557  71.7688417  77.7219296  65.8671570
  72.5555325  78.2668829  65.8862734  71.4737082  77.7591944  64.9573517
  30.9566116  55.1369476  20.6081653  30.5123281  54.4143105  21.0516095
  31.3988829  54.7263527  19.8651707  64.4005060  60.3591824  46.9618893
  65.2923679  60.3144264  47.3065710  64.4243765  59.8279381  46.1660004
  30.0779009  39.3852568  22.1961832  30.4127121  38.5751247  22.5806570
  30.7514024  40.0377417  22.3882437  57.1226215  56.2723255  17.3888505
  57.8906918  55.7018614  17.3594284  56.6482306  56.0771751  16.5807045
  79.9509954  29.5074105  19.9544132  79.7316980  29.9037981  19.1111958
  80.5164051  30.1508141  20.3817105  63.0224514  56.9356632  32.7816296
  63.4107542  56.0962868  33.0284119  62.8379297  56.8484783  31.8464375
  83.2029343   6.1060846   4.8834953  82.7501774   6.7143679   4.2993367
  82.6173210   5.3513378   4.9439156  13.6753190  10.5562508   9.5492196
  14.5412099  10.9516335   9.6499074  13.0679405  11.2945604   9.5963717
  23.8908887  48.5947275   6.2892860  23.4340620  47.9852057   5.7096094
  24.4307017  49.1243458   5.7024854  71.5425682   2.6540345  56.5707541
  71.4881659   3.1745830  55.7693195  71.6374350   1.7521055  56.2645578
   1.0439567  20.5160618  67.7881718   0.7345234  19.6327853  67.9889297
   1.9238582  20.5526137  68.1632328   0.0552717  50.1415110  38.3031511
   0.1387130  49.3412209  38.8216162   0.4638470  49.9272442  37.4644709
   5.9974653   0.8159159  58.2173777   5.0792378   1.0085546  58.0276918
   5.9880173   0.4527900  59.1029739  54.8972940  50.8942890  32.2266889
  55.0920391  50.4723454  33.0635095  54.5396852  51.7490578  32.4669385
   3.9674589  36.9414926  53.2758617   3.4955704  36.2274241  52.8473091
   4.7812831  36.5411115  53.5818338  54.3695402  14.7491932  10.8092129
  53.5981560  15.0398624  11.2957382  54.0292788  14.4915438   9.9524343
  47.4007750  34.6075177  47.8071022  48.3322573  34.7539830  47.9717875
  47.2123337  33.7683105  48.2271624  67.4861431  45.7105923  56.7826509
  68.3722496  45.4606104  57.0444870  67.0614624  45.9765816  57.5982094
  78.7851048  19.9163568  53.8333511  78.0636692  19.9726164  53.2067776
  79.5090246  20.3749514  53.4068966  80.8117008  19.0966332  58.7219667
  81.1168861  18.7666428  57.8768587  80.6104183  20.0184178  58.5606289
   3.7144274  17.6501513  41.5973139   2.7851838  17.8793144  41.5824080
   3.9481792  17.5376391  40.6759357  60.6557274  42.5033808  40.6025410
  60.6863928  42.8928709  39.7287083  61.2711716  41.7714834  40.5602789
  72.0447397  24.3555331  52.8390312  71.1889982  24.0962243  53.1806469
  72.6723623  23.9890885  53.4619570  65.5972481  25.9643030  38.4069180
  66.0338354  26.0615396  39.2531848  66.1251450  25.3180861  37.9379177
  78.4038210  15.0739062  36.3679457  79.0646935  14.5542550  36.8255901
  77.8799152  15.4646826  37.0672679  30.1694727  21.2809181  65.9504843
  29.6653366  21.1795163  66.7578220  29.5784473  21.7422032  65.3553867
  52.9181671  66.7341518  58.8915014  53.6203718  66.5875673  59.5252609
  52.3988819  65.9305334  58.9192486  19.8338687  72.5469065  14.6187603
  19.5299387  72.1981525  15.4567504  20.4620171  71.8974638  14.3027127
  74.0711403  45.4838514  52.6023293  73.2723761  45.7740307  52.1618652
  74.7786856  45.9179783  52.1257305  70.9354353  45.9488964  45.2928257
  70.1125050  45.5375385  45.0286293  71.4905500  45.2191591  45.5677128
  61.4034414  69.0821648  13.1224191  60.6786299  69.0690994  12.4973512
  61.0744476  69.5960093  13.8599539  31.0396028  33.9691544  62.6333380
  30.7240272  34.2055082  61.7611122  30.6454778  34.6192551  63.2149458
  28.7714839  45.0257492  63.5154724  28.9214563  45.2554560  62.5984240
  28.2206035  44.2437840  63.4795094  17.4721372  73.1386852  22.5905037
  18.1069064  73.1998158  21.8766665  17.6123369  73.9339447  23.1044483
  73.4466982  47.1820164  19.4945967  74.3182850  46.7869663  19.5172346
  73.2460308  47.3721361  20.4110122   4.6893534  35.1535344  36.5115380
   5.1273936  34.3633771  36.8277740   4.6101028  35.7098675  37.2864199
  14.9934518  25.5956388  29.3757486  15.7604933  25.0734568  29.6107006
  14.8460865  26.1597776  30.1348686  23.2659078  31.4496899  41.1419392
  24.0780759  31.1964560  41.5806723  23.5080242  31.5337324  40.2196884
  28.2696772  50.4611397  50.9497166  28.5587192  49.5490694  50.9781408
  27.8625488  50.6100798  51.8031168  20.7330632  16.0701394  58.1050491
  21.1889696  15.2285552  58.0942917  20.9742165  16.4624643  58.9441919
  42.9898596  27.8202343  58.6947298  43.6957312  27.7476668  59.3371582
  43.1500340  28.6558938  58.2562685  26.0760260  42.2908783  66.4224100
  26.9077945  42.6374340  66.7453527  25.4404831  42.9823256  66.6073942
   6.8364294   0.4381767  19.0427375   6.2856777   0.3191057  19.8165131
   6.2171276   0.5928246  18.3294475  30.2759005  53.5467748  68.1708233
  29.3829927  53.7233286  67.8745523  30.5138669  54.3172280  68.6865818
  54.9480057  43.7689161  61.5732336  55.3820944  43.9175367  62.4132967
  54.5542097  44.6134710  61.3543987   1.0879887  62.7154589  18.3533788
   0.4354048  63.0937862  18.9426446   1.6987018  63.4319878  18.1806159
  41.3581419   8.3312136   1.6204908  42.0698214   8.5135078   2.2340971
  41.7123127   8.5721803   0.7644949  44.3044615  31.9107842  12.9722202
  44.1801214  31.9860363  12.0261192  43.5226393  32.3141909  13.3493805
  14.9138439  67.0869589  45.3775787  15.2099192  66.3922787  44.7893715
  14.0054071  67.2465324  45.1216221  77.8886795  13.8060617  41.2232971
  77.6266527  12.9175842  40.9820938  77.0633745  14.2651308  41.3793564
  21.0855055  77.6996469   9.3450099  20.5161166  76.9430256   9.2052031
  20.7282400  78.1277466  10.1230347  16.7628288  48.6196899  57.8398371
  15.8211100  48.5412025  57.9922771  17.1629512  48.3370066  58.6621666
  18.1946862  62.2707033   6.6304928  18.0939233  62.8916597   7.3519456
  19.0782261  62.4303722   6.2986887  75.0133657   9.4089884  39.0660381
  75.0378275   8.5139984  39.4046021  74.2491198   9.8032755  39.4863939
  42.8430414  13.6998975  48.0907440  43.5726547  13.9757907  47.5359678
  43.1028318  13.9594066  48.9747095  60.7268095   4.0155849  31.6702247
  60.1733780   3.2346383  31.6782999  60.9690571   4.1279757  30.7510304
   5.7416981  71.5679169  22.0884275   5.6803954  72.0230627  22.9282570
   6.1714786  72.1950960  21.5069103  12.0852542  52.9117107  30.7984781
  12.0352054  52.4634457  29.9542117  13.0216372  52.9527426  30.9927344
  12.9735589   2.1415229  40.0946045  13.7362373   2.6524347  40.3657532
  13.3289301   1.2816611  39.8697019  76.0216379  50.6540108  14.4342148
  75.1194143  50.8084869  14.1542864  76.3468409  49.9825573  13.8345277
  23.5478544  55.3026009   8.6112934  23.5941052  54.3551207   8.7392551
  23.6277699  55.6674957   9.4925982   0.8665437  17.7904046  34.4526362
   1.3430491  17.2572410  35.0889635   0.9719800  18.6886775  34.7660375
   2.4825878  55.6363583  47.7843952   1.5996023  55.7377100  47.4290133
   2.3546889  55.1842642  48.6183500  77.6798677   5.5632806  37.0751810
  78.6240005   5.4198569  37.1405792  77.5842762   6.2164390  36.3820171
  73.1507492  44.4141150  31.4070034  73.3263731  44.9038887  32.2104383
  73.9622164  44.4806719  30.9036946  71.7095470  48.3627176  48.9001274
  72.6378536  48.1511831  48.9987612  71.6030121  49.1943312  49.3619728
  21.5097237  50.2594090   6.8775493  22.2196078  49.6327019   6.7377967
  21.9027305  50.9519339   7.4087632  32.5013828  65.3972292  13.0157232
  31.6976738  65.6562281  13.4665012  32.4305201  65.7991219  12.1498752
  76.3556242  38.9829159  41.4583158  76.6961908  39.3791914  40.6563091
  77.1224117  38.8893890  42.0235729  25.2981138  26.0583186  63.8901615
  25.2818727  25.3933620  64.5784903  24.5220113  25.8742785  63.3609867
  41.2431002  44.8796892   8.6582810  41.6895342  45.3082371   7.9280233
  40.6351328  45.5410814   8.9886874  40.3493452  75.1415873  58.3400917
  39.9918604  74.3055964  58.6393404  40.5462408  75.6199265  59.1454887
  31.0522652  69.2113590  14.7297359  30.9118009  68.5114861  15.3674543
  30.1730347  69.5313072  14.5277059  49.1102028   2.8887829   7.1520621
  49.7445965   2.9386723   7.8671056  49.5738506   3.2469183   6.3950944
  62.7307129  23.2943058  39.9007893  62.7749825  23.8432336  39.1178775
  61.7943525  23.1572819  40.0446033  35.5477738   6.4854586  58.8933802
  34.8164010   6.5248984  58.2771254  36.0390306   7.2913629  58.7339544
   9.7908849  41.5079069  39.4526386  10.0872278  41.7424202  38.5731983
  10.3832328  41.9791031  40.0385809  78.1589365   9.7335565  36.1016202
  77.8463507   8.8407594  35.9552121  77.4096346  10.2882695  35.8846569
   9.5012397  40.4965925  66.3718987  10.0980496  39.7621250  66.5154409
   9.2513704  40.7777214  67.2521067  22.9106140  25.1140571  48.0162716
  23.3532143  25.9042740  48.3259439  22.1695971  25.4393125  47.5050592
  32.6333046  63.8452196   3.7119216  32.1074271  63.2478809   4.2437759
  33.0906677  64.3937874   4.3491992  82.6711369  13.0407536  65.2541447
  82.7555466  12.2352302  65.7642794  83.5718250  13.2846510  65.0408268
  17.8439283  16.2935293  36.1810637  17.2978449  15.7972431  35.5713725
  18.7304640  15.9657884  36.0298276  40.7351255   4.8953921   7.2528291
  40.6038380   4.0050074   7.5787306  39.9911761   5.0494444   6.6705561
  75.8450890  66.5617561  35.6400466  75.5431175  67.2272110  35.0218129
  75.6737041  65.7296991  35.1989818  14.9907458  58.7594461  44.2716980
  15.0238609  58.6509085  45.2221441  15.3870869  57.9599428  43.9253759
  58.9974403  42.8811741   6.5260023  59.9359894  42.9667568   6.6934329
  58.5807037  43.2375574   7.3105752   7.2645223  31.0048103  55.4636240
   6.4294422  31.2181354  55.8799982   7.2251999  30.0594974  55.3184700
  80.7950115  48.8331985  51.3192320  80.0649357  48.9808750  50.7180452
  81.4136410  49.5365238  51.1220932  30.2984619  32.1292257  34.3291998
  31.0596347  32.4126220  34.8356938  30.0291204  32.9095793  33.8447046
  25.5846739  52.5971842  30.8649492  25.0501084  52.8580141  30.1149917
  26.4113498  52.3060465  30.4801416  24.7985172  47.1254826   2.0736198
  25.6480742  46.6922140   2.1558625  24.4599867  47.1606493   2.9682657
  47.8430557   4.5057702  67.2919607  47.9892731   5.4324931  67.1021223
  47.3020029   4.1950482  66.5660524  51.9347000   9.4066465  10.4803956
  51.2662840   9.4181818  11.1654687  51.8666649  10.2662754  10.0648928
  14.7897589  49.3049192  42.6807308  15.1360059  48.5836363  43.2061768
  14.2290056  49.7928953  43.2837820  69.0260649  63.4191036  31.8342972
  69.3015862  63.3964157  30.9178877  68.0732918  63.3336973  31.8001318
  60.4176474  16.1439598  28.1589293  60.5700445  16.3763916  27.2429705
  60.2481890  16.9799864  28.5931802  53.5833597  52.0389891   5.4700106
  52.7013636  51.7951012   5.7507926  54.0094614  52.3552275   6.2666655
  53.0678177  18.6720240  15.1441431  52.2282839  18.5102057  15.5745196
  53.3102131  17.8265727  14.7663987   3.5240662  23.1092811  61.1850691
   3.7073791  22.1745920  61.2798357   4.3877870  23.5193682  61.1398268
  32.8826308  38.8028073  26.4872241  32.8228474  38.1024432  27.1369529
  33.7903261  38.7722278  26.1849236  31.3237691  63.3466911  11.1136234
  31.8455315  62.5586939  10.9617937  31.8928552  64.0667963  10.8419144
  20.1888704  50.3245974  37.6692033  20.2931499  51.1229181  37.1514750
  19.3507946  50.4376888  38.1176114  60.4011583   8.9619285   6.1421895
  60.3400230   9.4857442   5.3433704  60.0211859   8.1163418   5.9037858
   8.9068443  16.1643493  51.7431784   8.3723533  15.8905482  52.4885511
   9.8088652  16.0869122  52.0539713  22.3798084  46.5543938  22.3192239
  22.2264814  45.6453991  22.0614362  21.6306996  47.0334578  21.9648743
  82.1447277  23.9308286  62.5879192  81.7980766  23.6457658  63.4333801
  83.0832195  23.7500286  62.6405811  29.9649549  57.5154352   5.7957411
  29.8667026  56.8644190   5.1009375  30.3630209  57.0337009   6.5207958
   0.4728911  65.1451874  38.0697513   0.3239939  64.4952679  37.3829699
   1.0712359  65.7789612  37.6740956  81.3493156  51.7989922  38.8666010
  82.1660233  51.5626812  39.3063498  80.7714272  52.0869493  39.5732570
  78.6323166   4.2271855  29.2869282  79.4310093   3.8659918  28.9023995
  78.2034540   3.4764051  29.6975827  45.3197098  51.0307550  18.8228703
  46.1123085  50.9783554  18.2887590  44.7857857  50.2913380  18.5323298
   4.4708911  44.7197914  60.7619286   5.3650469  44.9602938  61.0045719
   4.5772731  44.0100765  60.1285076  43.4125710  66.0678101  63.5934210
  43.6668253  65.7991791  64.4762707  42.6111078  66.5758324  63.7191296
  21.9895506  50.4233122  47.6289940  22.2246122  51.0294771  48.3315229
  21.6937566  50.9876633  46.9146824  79.2299080  19.2376328  63.6769581
  79.2266512  19.9976087  64.2588997  78.9565325  19.5849395  62.8279161
  37.9743767  19.2012453  49.0598249  38.8931370  18.9395475  49.1200209
  37.9169726  19.6864283  48.2366991  18.1258178  72.6069832  52.2590017
  17.2958732  73.0837297  52.2472620  18.7513077  73.2049036  51.8497562
  77.5304413  77.7647352  24.2063642  77.0662832  77.4338722  24.9753380
  77.4096680  77.0853281  23.5430002   9.8307705  12.5613248   0.3140923
  10.5635297  13.1369829   0.5329815   9.8847479  11.8511784   0.9536316
  83.5898876  34.9975491  59.5291758  84.4672394  35.3513813  59.3832922
  83.2261276  35.5400705  60.2288723  29.8549700  15.1244211  41.5877962
  29.7952557  14.1788900  41.4512825  30.7884645  15.3197300  41.5060902
  16.7108536  38.2250047  19.5746982  16.7312670  37.4482107  19.0157628
  16.2035298  37.9558110  20.3404593   5.8461004  39.0711069  46.0833216
   6.3366514  39.8280692  46.4036369   5.4101264  38.7218523  46.8606138
  23.8967252  36.2449646  48.5604000  23.0833673  36.7496037  48.5650110
  24.3335271  36.5020943  47.7484131  26.6437387  77.7476645   5.1295245
  26.2622809  77.6478052   6.0017335  26.5189147  76.8942595   4.7143742
  59.2776966  33.7186861  57.0837212  58.9505100  34.3032980  57.7673912
  58.5594177  33.6613965  56.4536190  82.9870415  36.0232306  36.5397215
  82.6384258  35.2321005  36.9505906  83.3605957  36.5247655  37.2643971
  59.3607569  32.8905344  67.7058029  58.5026455  32.8730631  67.2820425
  59.6609306  31.9820952  67.6764250  17.1271527  65.2195787  20.2622008
  17.1090710  66.1673689  20.3948617  17.9824340  64.9474430  20.5948687
  65.8211899  34.8327732  48.9684677  65.7243919  33.9637923  48.5789347
  66.6972303  35.1162648  48.7069035  32.9367757  21.1566591  58.6664200
  32.6588440  20.2426553  58.6065674  32.7791142  21.5126896  57.7919960
  73.3712749  78.6368810  40.1684237  72.8847460  78.0243009  39.6168184
  72.7592032  79.3558697  40.3254461  82.4116802  73.8143158  37.1711254
  82.5887108  72.9149866  37.4469948  83.0524921  74.3416834  37.6480699
  68.6051559  15.4112542  64.5227098  69.2757177  15.0415933  65.0971031
  67.8955412  14.7690523  64.5386982  83.1605721  53.0306005  29.4270563
  83.7931919  53.7393999  29.5438027  83.6950016  52.2647667  29.2170072
  14.2505455  37.3850799  40.5449390  14.7767711  37.3741627  41.3444376
  14.0892875  38.3135319  40.3769970  78.5132313  45.7623529  47.4651766
  78.9413643  45.3564024  46.7114258  79.1244030  45.6270981  48.1893301
  26.5531468  60.1007080   0.4446870  27.3900676  60.5567360   0.5332061
  26.7231107  59.2207766   0.7809308  69.8034811  55.0647306  24.6628928
  68.9431667  55.4391289  24.4733620  70.0571394  54.6245718  23.8516307
   1.8344626  67.3357296   3.2032007   1.8336472  66.9145536   4.0627599
   2.2012922  66.6766548   2.6138890   7.4082685  17.7865219  39.8194981
   6.5874237  17.8283370  39.3288898   7.8394943  18.6212492  39.6364522
   9.3097895  34.8923802  63.1246901  10.1260352  34.5411325  63.4805012
   8.6224079  34.4670320  63.6373472  41.4736652  62.4515295  21.1305904
  41.1310720  62.5276804  20.2400494  40.7258224  62.1572590  21.6505623
  58.9783669  61.0034418  13.5169172  59.1810560  60.2877665  14.1193807
  58.8388872  61.7617655  14.0841222  71.0128212   5.3938639  13.4649396
  71.1079931   6.2298381  13.9213622  70.4557133   5.5937630  12.7126729
  84.1111851  36.0994458  49.3989611  83.3992672  36.7109466  49.2106152
  83.6801338  35.2491069  49.4846964  69.4791889  41.9426489  40.5701780
  70.4296446  41.9689083  40.6805134  69.1540337  42.6520729  41.1244535
  10.5681944   7.9217243  57.3095131  11.3763714   8.0490804  57.8063631
   9.8703653   8.0270439  57.9561758  78.1520557  26.8389106  14.1057527
  77.2872305  26.5751219  13.7915409  78.3535385  26.2158489  14.8039150
  14.4487941  45.0135136  18.9284873  13.7051916  45.5372190  18.6301267
  14.2924285  44.8868656  19.8642981  40.2485847  71.7074823   6.8457550
  39.4839072  71.2822819   6.4575535  40.7552719  72.0198441   6.0961312
  79.3169260  40.1759768  11.1135614  79.7418356  41.0305405  11.0400116
  79.5528460  39.7208214  10.3052258  76.2393856  33.0268645  34.0030742
  75.9787035  33.0885768  33.0841231  75.8952332  32.1821904  34.2934537
  32.2365212  63.9171648  55.8859730  32.1734071  64.2312765  54.9839878
  33.0346870  63.3890057  55.9003687  23.9676094  30.9390163  46.1654377
  23.4258461  31.4377570  45.5538988  24.6774244  31.5371084  46.3992786
  57.3820353  72.5966501   7.9678530  57.4065399  71.7441893   7.5331795
  56.8839741  73.1554651   7.3712832  63.3217287  27.4880576  39.1412950
  64.1263437  27.2722411  39.6127295  63.4642315  28.3781171  38.8192391
  17.3683536  56.3901997  13.7581503  16.6054320  56.9669390  13.7975562
  17.1972811  55.7211065  14.4209313  63.6182642  11.9984722   1.7039579
  63.1869555  11.1455679   1.6514218  63.3707905  12.4423790   0.8928252
  49.4889259   9.4190109  19.2308676  50.2565527   9.8696673  18.8788843
  48.7483263   9.9638790  18.9646733   2.0678698  51.8852329  57.9919624
   2.8828162  51.5967178  58.4028769   1.3799554  51.5767670  58.5817528
  43.8457775   9.1957736  49.7473812  44.2429686  10.0428081  49.9498749
  42.9045248   9.3451607  49.8365688  44.6963978   9.0182567  16.4575136
  44.6125793   9.9633378  16.5841150  45.1164293   8.7055880  17.2587907
  25.6985974  28.4836197  38.0467558  25.7257438  28.9403176  37.2059679
  25.9570432  29.1460276  38.6875796  24.6729159  40.1191616  53.3546400
  24.2332363  39.7718930  52.5785494  25.5698180  40.2883244  53.0662298
  56.3039456  61.7099063  -0.0013798  56.3372908  61.0607807   0.7012970
  55.4857145  61.5229098  -0.4615610  73.5527563  17.5504267  49.6984529
  73.4716368  17.7820766  48.7732553  73.6578798  18.3894134  50.1470947
  78.8452101  34.3481565  63.2842636  79.4107342  35.0132179  63.6768246
  79.2449570  34.1654301  62.4339437  37.7620792  57.3470783  35.8493853
  38.0060673  56.4411592  35.6596041  36.8098569  57.3238564  35.9440660
   4.2190665  48.1363249  41.7938614   4.8490140  48.8395357  41.6360903
   4.3865779  47.5035524  41.0954523   1.3372800  39.4519210  52.9884863
   1.2246314  38.5958648  52.5753117   0.4517955  39.7153401  53.2390022
  23.6159277  24.5792103  41.2348795  24.1959906  23.9423394  41.6521931
  24.0515494  24.7957969  40.4105282  67.9599667  39.4962025  10.6604636
  67.8594589  38.5448027  10.6915498  67.8906107  39.7141314   9.7309858
  52.5133514   3.6695182  10.8944499  53.0467224   3.2899228  11.5927720
  52.8664017   4.5512843  10.7758045  58.2177544  77.8479242  64.1471672
  58.5106897  77.7996683  65.0571632  57.7068186  78.6561251  64.1025639
  82.8835869  43.3002377  46.8131781  82.9417324  43.1363106  47.7544403
  83.3905697  42.5926399  46.4150572   5.8710432  60.2147341  35.0879455
   5.8121282  60.7512617  35.8784509   6.7727405  60.3288364  34.7876883
   9.2471224  64.2596626   9.8552150   9.3084753  63.7450409  10.6599736
   8.8734084  63.6562634   9.2129695  23.0463457  25.9804487  35.3751850
  22.1756721  25.7811475  35.7193375  22.8796196  26.4913034  34.5830607
  11.2601590   3.2067519  62.9724073  10.6349933   3.7434551  63.4595871
  11.7894769   2.7829030  63.6479855  11.2762094  21.3122964  49.4224691
  10.6441760  21.5131927  50.1126909  11.9341242  20.7655239  49.8519087
  60.9770298  15.3214693  64.7778749  61.5241051  15.2511942  63.9955664
  61.4765215  15.8840513  65.3696871  12.7895796  23.1259489  56.0372210
  13.5279489  23.1435895  56.6460943  13.1184769  22.6483297  55.2756834
  10.9539890  24.6483803  60.6696033  10.1143682  25.0852656  60.8124304
  11.1853385  24.2883229  61.5257978  76.5292788  40.1084995  61.7202568
  76.2543535  39.3287945  62.2026539  77.3212719  39.8364353  61.2566233
  17.3907530  43.2381153  51.1865473  16.8036985  43.1578541  51.9383144
  17.6906908  42.3444366  51.0203886  43.2576370  71.4086914  11.0563266
  42.8985739  71.5147114  10.1753819  43.1939888  70.4694366  11.2294757
  18.1609702  42.8141260   3.0632216  17.8971934  42.4314547   2.2264335
  18.5476089  43.6579752   2.8294191   5.3316647  47.1710873  23.5364652
   5.0866199  46.2910318  23.2506561   6.1575925  47.3478794  23.0861092
  63.1859159  16.8280005  60.6288910  63.9271450  16.6086423  60.0643587
  62.6190329  16.0577011  60.5900002  39.8752642  32.7572131  41.4984846
  39.6807599  33.3275771  40.7547903  39.8752213  31.8740225  41.1294174
  25.8391809  12.1566212  42.5475788  25.3960729  12.9044247  42.1467304
  25.1635432  11.4811170  42.6062012  11.5380526  60.1766014  23.1636477
  11.4576125  59.3023252  23.5449672  12.2510493  60.5867434  23.6531878
  77.7756977  46.0718918  62.9185867  78.3888340  45.3378630  62.9572725
  77.8661680  46.5045357  63.7676287  32.0056391  11.2644231  47.0268536
  32.3850060  11.9088459  47.6243734  32.7291131  10.6717336  46.8230438
   8.6016369  40.8753252  62.3994446   9.1048110  40.9813118  63.2067966
   7.8829652  41.5022850  62.4810791  70.7412672  34.9285269  60.2385521
  70.3911304  34.3499923  59.5611095  71.3141155  34.3668032  60.7606077
  76.5401697  28.7891221  36.6251397  77.4149036  29.1735554  36.5678048
  76.6342926  28.0721331  37.2522783   9.5407236  48.9623547  51.7098427
   8.9066899  48.6738205  52.3663330  10.3574347  48.5299683  51.9593573
   8.5361689  38.5021996  42.7317095   9.2572927  37.8738165  42.7684164
   8.5863495  38.9732170  43.5634899  26.3034868  19.5152080  19.7117901
  26.8105960  18.7046587  19.7574198  25.5041981  19.2717004  19.2448056
  30.1015592  56.0637951  56.7479563  29.8853970  55.1313639  56.7391777
  29.3162680  56.4948940  56.4107513  63.4148788   0.9876030   2.0743622
  63.2660866   1.6447660   1.3944867  62.6424122   0.4236668   2.0355269
  25.9032750   6.2714618  46.4906836  26.6030717   5.6267685  46.3863373
  26.0503411   6.6461462  47.3591375   0.9748032  47.7336740  34.4227386
   0.7314251  47.5011587  35.3188062   1.8897524  47.4633121  34.3452382
  27.7225542  61.0707760  61.7399025  27.8304100  61.4444065  60.8652592
  26.8707442  60.6351042  61.7108679  20.5690312  11.7414713  62.7677393
  19.9799907  11.4114022  63.4462070  21.4023256  11.3031006  62.9400253
  33.0683899  43.7605476  55.4158831  33.5492778  43.5278320  56.2101269
  33.0338264  42.9485416  54.9102354  27.8616571  47.1047926  45.5726290
  27.1985626  47.3669720  46.2112236  28.3712912  46.4293242  46.0201216
  30.7801056  40.4134035  60.7935667  31.5378976  39.9619222  61.1652470
  30.9966755  40.5223894  59.8675823  54.0196133  77.5018120  61.8829918
  54.4402981  78.3615494  61.8934822  53.8616276  77.3012018  62.8055048
  59.5364714  19.8966396   4.4610459  59.7023010  19.1992259   5.0953543
  60.1882792  20.5669355   4.6661901  36.7507839  71.1970091  60.5502796
  37.0418787  72.0977259  60.4081154  37.5593758  70.6854868  60.5777121
   0.4798634  52.0352364  24.7001243   0.1285939  52.3711109  23.8754845
   0.2975692  52.7260303  25.3371477  21.4418268  15.0595343   3.4818482
  21.3043380  15.7648993   4.1141370  20.5960560  14.6140563   3.4323126
   9.2712563  61.8857813  67.9982853   9.3363953  62.8038645  67.7353859
   8.6821896  61.8938971  68.7527180  24.9955130  32.1209598   3.6722562
  24.7172713  33.0368137   3.6774325  24.1791677  31.6228580   3.6309624
  13.7313223  34.6741414  39.3203044  14.0090561  35.3623605  39.9248314
  12.8586495  34.4255209  39.6250319  83.7924163  79.0751171  56.2872410
  84.0789874  79.1114187  57.1998167  83.0449523  78.4772253  56.2945223
  14.0860832  60.9976912  64.0246868  13.3978975  61.6436100  63.8652515
  13.6450398  60.2881813  64.4919205   8.0248708  75.5498505  64.6244955
   7.1769428  75.9415197  64.8338842   8.0439079  75.5170441  63.6680460
   5.1020044  45.1784229  54.7494602   4.9197182  45.4526615  53.8506842
   4.6453688  44.3422699  54.8420191  28.1608605  18.3464360   1.0997557
  28.8784528  18.7589931   0.6190395  27.3746514  18.7942207   0.7873471
   1.3492701  38.4064889  27.2448277   1.1220095  38.7455821  26.3790345
   1.4330599  39.1865778  27.7931595  47.6482868  10.9860861  17.8747416
  47.7208138  10.4376447  17.0935988  46.7122269  11.1707532  17.9516709
  78.4037971  16.2516987  27.6548696  77.9087877  15.4830039  27.9382563
  78.5482216  16.7528427  28.4575105  16.9845176  52.7718306  56.7979527
  17.8248286  52.4040413  57.0715189  16.3675046  52.4867821  57.4719524
  63.5528135   0.9878279  63.9810085  63.0373955   1.1883732  63.1997538
  63.1378651   0.2071168  64.3478060   0.3945030  15.3387225   9.8049480
   0.8837803  14.5160282   9.8014694   1.0638941  16.0150588   9.9084675
  75.8229589  27.2706485  28.5515547  75.8764124  28.0158758  29.1498971
  76.7123985  27.1719503  28.2118607   3.4875888  58.8157701  35.9999609
   4.3171385  59.1490459  35.6578970   3.5579020  57.8649998  35.9143662
  16.0791099  41.6800451  55.5379915  15.8440781  41.3778305  54.6606874
  16.4830863  40.9182262  55.9535217  75.1221180  44.7680616   3.0001619
  74.7580814  43.8854074   2.9321086  75.1561689  45.0833893   2.0970342
  77.8677940  49.5442581  30.2703929  78.2644844  50.0387478  29.5532107
  78.2728624  49.9017048  31.0605717  22.3959136  74.7804737  61.8350124
  22.1574283  75.5641556  62.3301935  21.7412901  74.1292906  62.0873260
  15.6526709  67.6767397  55.4021788  15.8895004  67.9731131  56.2809849
  14.7340357  67.4181271  55.4760790   4.7723445  11.8231142  45.7021189
   5.1536006  12.6918471  45.8293200   3.9954063  11.9788074  45.1651287
  13.6922741  12.8641224  54.8478889  13.9112866  13.3746791  55.6273746
  12.9129374  12.3677552  55.0978613  12.4576902  48.5347939  59.8298931
  11.5230191  48.4318256  60.0088310  12.6399732  47.9010296  59.1361046
  66.5748692  62.6156664  46.1635160  67.3425579  62.6511574  46.7341566
  66.9339895  62.4759388  45.2873087  14.2211175   4.5439303  28.0864930
  13.3938992   4.6365303  28.5591102  14.1124713   5.0859356  27.3050475
  40.8226347  21.0147166  52.3478222  40.5393410  21.1375570  53.2538509
  41.7412281  21.2838197  52.3455191  72.6522493  57.2463751  68.5083866
  72.3603296  57.2918987  67.5979233  73.2033873  56.4645910  68.5443926
   5.9867227  20.3696775  18.8325620   6.3838595  19.6324277  19.2962182
   5.0485003  20.2805257  18.9999604  40.3751564  66.4196634   2.1162999
  40.4936838  65.4738998   2.2041117  39.5049357  66.5866280   2.4783425
  67.9571247  34.2414260  13.5474288  68.5711765  34.7220492  12.9922915
  68.4948826  33.9057755  14.2646360  67.5274229  72.1551323   7.9154390
  66.8396902  72.0667076   8.5753155  68.3037710  72.4141598   8.4118426
  83.3258438  33.6098623  46.5082121  83.9609432  34.3117595  46.3660192
  83.2725239  33.5243106  47.4600887  55.2997923   0.1000169  11.3223374
  56.1517191  -0.1443222  10.9607434  54.9956274   0.8115591  10.7589328
   9.7116429  71.5092468   0.3275154   9.3960768  71.4699030  -0.5753145
   8.9162767  71.4977646   0.8599555  42.7041531  67.5536680   4.1346130
  43.4393644  66.9497299   4.0299454  42.1294260  67.3620605   3.3935297
  71.8029690  28.3255267  48.9441204  70.8586311  28.2108760  49.0505075
  72.0268250  29.0374899  49.5434809  14.5089900  52.6088428  45.2635241
  15.2268410  52.9447651  45.8002520  13.8515663  53.3043575  45.2803516
  19.8368025  54.0906572  58.9849472  20.1333976  54.7545385  58.3624315
  19.9921167  54.4820023  59.8445749  17.9395008  35.1764250  57.1286011
  18.4709120  35.6213284  56.4683723  17.2560358  34.7324872  56.6265774
   2.1754670  21.7619205  32.6232409   2.1477768  21.7105246  33.5786581
   1.8194710  22.6267815  32.4194908   1.4888029  28.2257771  58.3290768
   0.7288658  28.1104469  58.8995361   1.5821920  27.3847938  57.8815746
  17.4030864  42.9555893  35.0401092  17.8580809  42.6919127  35.8399153
  17.1917820  43.8789225  35.1780677  10.0697672   9.8110729  25.4243922
  10.0756121   9.4237030  24.5490980   9.4007474   9.3185264  25.8998299
  78.2521963  43.0590153   2.1715134  78.7086773  42.7137804   2.9387614
  78.6013031  43.9436626   2.0630640  30.9240699  59.2256308  41.6579151
  30.6661725  59.2352676  42.5796652  30.1041770  59.3448400  41.1785460
  59.3456078  21.4327192  55.7809210  59.5301104  21.9934368  55.0274038
  58.7967539  21.9709325  56.3512897  44.1060114  54.8567629  38.5841513
  44.4526100  54.0855408  38.1354713  44.7804070  55.5257273  38.4662080
  32.5190043  58.6743212  39.2621160  32.1366858  59.0472507  40.0564623
  32.0094609  59.0577269  38.5482550  14.7826111  30.1254678  63.9771080
  15.1884449  29.3563271  63.5771656  13.9025438  29.8347902  64.2163181
  78.8426161  55.4724121  53.4168673  78.4852934  54.6648550  53.7862062
  79.5845366  55.6866884  53.9824390  46.9151974  66.2159491  55.5807781
  47.2792196  65.5935001  54.9512672  46.5883446  66.9371080  55.0428867
  28.2379651  57.8263855  49.6948719  28.6400247  57.8089714  48.8263798
  28.9674401  57.9875040  50.2933168   1.2161231  75.3473663  52.6685047
   1.0296213  75.4280376  51.7331219   0.8969389  76.1661720  53.0478573
  40.0096226  64.8353863  31.1023736  40.1266813  65.4590321  30.3857183
  40.2539587  65.3246593  31.8879604  77.8127098  32.0521092  67.8055000
  78.0769777  31.1868453  68.1180954  78.0775023  32.0656633  66.8857527
   5.6094337  19.1352296  26.2345243   4.9946782  19.7873640  25.8983302
   5.1360011  18.7042081  26.9460821  21.4210725  69.9930716  54.6623898
  21.6913605  69.1141748  54.3964720  21.6793513  70.0551176  55.5819988
  21.9872689  37.2905970   1.5196411  21.0389543  37.1710920   1.5711123
  22.2103333  37.7799582   2.3114748  17.3220289  75.1104259  54.5591593
  17.1404803  76.0394287  54.7013617  18.1354237  75.0998211  54.0546703
  78.2435274  65.0838518  53.4381914  78.3131647  65.6696415  52.6843786
  77.6167202  64.4143438  53.1641436  67.2142649   1.8441686   7.0476437
  66.4344215   2.2268245   7.4496973  67.7238274   1.5085916   7.7851832
  12.9768801  67.8429031  60.5724621  13.7546372  68.3698034  60.7560492
  12.4165034  67.9681158  61.3383150  53.6255312  53.5578489  32.6951933
  53.7788534  54.4840717  32.5085497  52.8443575  53.3374023  32.1878457
  24.2020845  40.5020189  50.2331066  24.0831375  41.4205694  50.4746675
  23.6542130  40.3856134  49.4568872   4.4239834   3.4700418  36.4220715
   4.5632160   2.7695012  37.0593238   4.1370848   4.2175034  36.9466877
  53.1088018  23.6700082   3.8074979  53.6097431  22.9452944   3.4332255
  53.7729311  24.2923403   4.1039133  68.1145763  75.9715271  36.1783957
  67.1990108  75.7024002  36.2528229  68.4910583  75.7801676  37.0373917
   7.4020928  42.3057032  25.4214072   8.1619066  42.8877544  25.4099751
   6.8051618  42.7035046  26.0551739  45.9468794  65.1690769  67.7528191
  45.8465958  65.1492453  66.8010950  45.4747820  64.3949652  68.0595875
  10.8949900  28.6125636  47.0133877   9.9635035  28.7517190  47.1842670
  10.9715617  27.6716018  46.8554068   1.3234864  34.6823668   7.6093721
   0.5464049  35.1091814   7.9702133   1.7606561  35.3680468   7.1044374
  17.9721355  75.7449436  67.1766090  18.6517560  76.3335991  67.5049877
  17.3668504  76.3172960  66.7051506  52.2856569  78.0338717   2.7931678
  51.4355373  78.4446096   2.6355976  52.9028845  78.5569954   2.2816956
  22.0534754  33.3441138  55.9928131  22.8889275  32.8839922  55.9119558
  22.2456622  34.2399979  55.7158852  77.1291590  19.4151306   7.9607129
  77.0253992  18.5998511   8.4514117  76.6008615  19.2891693   7.1725088
  60.4164600  31.7436266  63.5170603  60.1956701  32.0794272  62.6483154
  61.1475420  32.2896504  63.8062143  77.6237154  37.4519181  26.8081784
  77.9201031  37.2289681  25.9257507  77.4678516  36.6065431  27.2292256
  76.1983013  42.1799612  51.1921787  76.6245842  43.0347157  51.2547255
  75.4916048  42.2170210  51.8367195  25.2127695  71.1661577  59.8807287
  25.1327777  72.1036196  60.0568056  24.3196130  70.8818436  59.6866512
   4.1874814  59.1635513  45.8914661   4.0952867  58.8180208  46.7793512
   3.8344240  60.0518084  45.9422684   0.8769248  58.3470154  47.1214771
   1.3510650  58.2426739  46.2965345   0.4334528  59.1911411  47.0377350
  25.4959846  46.2887049  59.4364834  24.9714255  45.7555962  58.8391066
  26.3319945  46.4026690  58.9844561   0.2857420  74.4738388  26.9504809
  -0.1047972  74.0068817  27.6891732   0.2087137  75.3988743  27.1841478
  33.5696125  63.8834620  28.8157320  33.6076283  62.9274654  28.8450027
  34.4778061  64.1629267  28.9311266  15.7696593  30.5169702  39.0819526
  15.3952229  31.1715794  39.6714544  16.4868510  30.1269388  39.5816946
  56.2367773  55.8319569  14.6553111  55.4980946  55.9042597  14.0508664
  56.2181759  54.9209070  14.9483597  45.5970478  35.5507779  11.4227223
  44.9367762  35.8747649  10.8101034  46.2018156  35.0465226  10.8784640
   6.9003558  75.6641912   3.8952208   7.2731310  74.7894621   4.0052947
   6.0941851  75.5203629   3.3996069   1.8375941  51.0694361  52.9033756
   1.7981012  51.1959314  53.8513565   2.7152133  50.7219219  52.7444649
  14.3661249  49.9346924  52.5822830  15.2295125  50.3087711  52.4066162
  13.7507534  50.5714798  52.2188950   2.4667221  72.2778463  66.0203505
   2.2563395  72.1929693  65.0904226   1.8976025  72.9818249  66.3313913
  19.8387146  27.1616435  62.5894070  19.7102308  27.7619529  63.3238125
  20.7567692  26.8983006  62.6531076  78.3626127  70.1234722   3.5850251
  78.9544582  69.5926571   3.0519342  78.3975363  70.9935284   3.1875172
   5.4230964  48.4715223  17.6630652   4.4750208  48.5954857  17.7079773
   5.7776648  49.3581009  17.5960886  10.8134401  43.7751007  53.5042429
  11.6378629  43.7111712  53.9863968  11.0095072  44.3580627  52.7708006
  80.5390072  69.1557932  43.7161779  80.1806259  69.2780590  42.8370619
  79.7835779  69.2445517  44.2972755  37.2548199  40.3613091  59.2483282
  38.1129026  40.3852177  58.8248301  36.7162633  40.9612608  58.7323427
  28.4607482  65.1361704  31.0971403  28.7661552  65.1937389  32.0024824
  28.2494402  66.0385609  30.8578134  16.0239625  57.0714903  53.7063122
  16.4536059  57.2862911  54.5342636  16.0044885  56.1146688  53.6877489
  77.0001936  67.8831673  67.0828676  77.6656199  68.5651112  66.9912624
  77.3061466  67.3466682  67.8141642  72.1312094  13.8591564   7.5067806
  71.7261648  13.0892086   7.1075958  71.5923405  14.0412629   8.2766420
  33.7170196  76.1001635  61.9691944  32.7802467  75.9322500  62.0716333
  34.0974736  75.2386379  61.7981339  63.2380533  48.7230492  37.7427292
  62.2956610  48.5958052  37.6334834  63.3914137  48.5863209  38.6776185
  31.7695189  20.8003736   0.6729056  31.4850688  21.2154412   1.4871763
  32.7093625  20.6619477   0.7902314  79.6786499   0.7319242   9.9276006
  80.3279305   0.1104079  10.2568209  79.1181803   0.9147500  10.6817114
  67.3215914  72.1016645  26.5942311  66.4044094  71.9607019  26.3594174
  67.2925377  72.4062586  27.5012112  25.9485316  23.6172938  65.3925800
  26.5330935  22.8787494  65.2220774  26.5027428  24.2663169  65.8259964
  33.5099673  57.7545643  66.9058371  33.9270473  58.3429670  66.2765121
  32.5859332  58.0039024  66.8908691   6.6059095   9.8209298  11.4507818
   7.3221427  10.3417087  11.8141448   7.0397824   9.0838361  11.0210395
  58.5707855   1.5523821  62.3777485  58.5620356   2.4800324  62.1419096
  58.5932207   1.5487356  63.3346796  34.2247891  34.6279621  64.2365551
  34.6165705  34.6511722  63.3635139  33.6064529  33.8980889  64.2022705
  74.4184494  26.2462330  58.3627701  74.3261862  25.3222370  58.5950470
  75.3526163  26.4272046  58.4667206  43.5915756  16.1832714  32.9128098
  44.2364693  16.8242669  33.2119226  43.7939167  16.0544515  31.9861507
   7.2306907  47.6458216  34.6006131   7.2798342  46.8208504  34.1176677
   6.8887854  48.2751274  33.9655495  28.8790131  31.7231107  22.3105502
  29.4750881  31.2210464  22.8662992  28.7292194  31.1607099  21.5506148
  37.7798963  40.0121307  64.4928408  37.5622654  39.1025805  64.2889261
  37.8160644  40.4465866  63.6406851   6.5240198  52.7602673  47.2849464
   5.6288064  53.0132723  47.0595312   6.4594579  52.4210835  48.1777048
   2.1777552  16.1558998   1.3634387   2.1373926  15.6553948   2.1783605
   2.5198019  17.0110130   1.6242407  37.8948522  50.2321100  35.1063228
  37.1959591  49.5917845  34.9730468  37.7637386  50.8777761  34.4119501
   4.6588203  64.4713354  31.5791464   3.8793764  64.3065977  32.1097708
   4.3383682  64.9799728  30.8342791  10.1088679  75.5346680  51.3387108
  10.0864434  76.3581228  51.8262100   9.9981803  74.8578930  52.0065117
  43.7203360  75.7438421   4.8108408  44.1653681  75.3634644   4.0535486
  43.4834862  76.6278505   4.5303676  26.4476538   5.7032746  41.4228058
  25.6484842   5.7759339  41.9446087  26.4507341   6.4906585  40.8785152
   7.8302735  45.3151751  55.0185061   8.1232774  44.6668530  54.3781424
   6.9055629  45.4533911  54.8134756  26.4347267  25.9902239  46.9944334
  26.9799399  26.4389849  46.3482285  25.6685877  25.6985664  46.5002680
  49.8168182  32.8033781   2.4652025  50.6341219  33.2833791   2.3316100
  50.0041056  32.2090912   3.1918249  43.5967970  16.6145504  60.2316809
  42.7006340  16.8782091  60.0228691  43.6217022  15.6772316  60.0392151
  19.0018773  49.9349689  62.8481722  18.1722438  50.0260925  63.3168221
  18.8174284  50.2640963  61.9684649  15.1241243  43.1937551  53.1027079
  15.6772935  43.6156750  53.7601423  14.2331588  43.4538317  53.3367443
  76.8975973  28.8324094   8.1991607  76.1558390  28.3647585   7.8153265
  77.2897053  28.2035089   8.8049412  35.2471209  10.5718923  48.8395786
  35.3466201  11.3357508  48.2713747  36.1167622  10.1723850  48.8582706
  64.3894196   9.4490701   8.4026271  64.4774342   8.5133111   8.2214099
  65.0526810   9.8633516   7.8506380  19.6577144  49.8089933  49.4088173
  19.1719687  50.6199694  49.2584944  20.4232216  49.8790789  48.8384485
   4.3622330  66.3573122  37.8641057   3.8482261  65.5789518  38.0790043
   4.9591222  66.4622450  38.6050129  48.7027979  65.1448584  31.5070391
  47.8357315  65.4184246  31.8063426  49.1155005  65.9517574  31.1991096
   0.9375416  15.0955999  37.7667046   0.4870752  15.2089810  38.6036372
   0.8390293  14.1649127  37.5658369   8.2973593  67.9570150  35.3993201
   7.4403971  68.2079268  35.7441235   8.1004643  67.3431063  34.6918035
  75.4731131  56.8114853  58.1999302  76.2129784  57.0554399  57.6437616
  75.8759260  56.4507246  58.9897537  52.7125406  64.9396658  13.1951988
  52.4052858  64.4471169  12.4341321  52.1846581  64.6104145  13.9226365
   7.0380026  26.9489980  64.2027521   7.9163653  27.0460558  63.8349342
   6.4636815  26.8908262  63.4392071   1.3218604  30.1166511  18.9757872
   1.7513089  30.8872938  19.3471575   0.8668962  29.7157812  19.7164249
  61.0101318  77.7599001   8.4127104  61.3423300  77.3923302   9.2317152
  61.6325712  77.4650431   7.7479839  23.9381289  22.2702956  54.9651575
  24.7292066  21.8424702  55.2928686  24.2288446  22.7492476  54.1890669
  37.0240021  32.6792836  64.5078659  36.2323308  32.6434040  63.9710236
  36.7102480  32.9103923  65.3821564  59.0779352   8.5919213  54.8449898
  59.6375895   9.3664712  54.9006176  58.4484625   8.6995488  55.5580187
  54.9660540  20.1886535  46.3609171  55.4674721  20.3821683  47.1529818
  54.0524817  20.3072572  46.6208315  80.0749683  64.5663214  39.3604207
  80.4996586  65.2230263  39.9123311  80.0678253  63.7724400  39.8951483
  32.3705673  40.4996634  64.7554827  33.2489371  40.8368778  64.9315071
  32.3133421  40.4673243  63.8005447  22.1060371  13.6838698  59.0895224
  21.5556884  13.1837332  59.6921921  22.9653883  13.7040889  59.5106411
  22.0322752  60.1517248  37.5295305  21.6564322  60.0947714  36.6510487
  21.4421272  59.6333838  38.0765963  27.8020906   8.5974151  62.7502775
  28.3899641   7.8509802  62.8663540  28.3863044   9.3446332  62.6214600
  24.1449285  66.4666271  43.3224297  24.4478559  67.3679447  43.4324265
  24.8249531  66.0481358  42.7945471  68.5482740  25.8417773  11.7773581
  68.5381699  25.8531857  12.7344370  68.1802464  26.6882515  11.5238416
   0.1142809  12.0976567  14.7844851   0.0630400  11.2631118  14.3185019
   0.7701704  11.9514787  15.4661548  10.3726017  23.0080175  58.2527208
  10.8231831  23.5447526  58.9047384  11.0306191  22.8511739  57.5754881
  49.8456192   4.0841991  13.0193818  50.7749081   3.8590673  13.0638111
  49.6998596   4.6504474  13.7772393  58.5196590  15.3222704   0.2444447
  59.3651772  14.8915958   0.3703438  57.8791952  14.6129489   0.2982850
  65.1539326  29.6835184  39.5675397  65.6713343  30.2110291  40.1760292
  65.2542734  30.1239467  38.7236285  54.6675301  10.7203376  10.7050288
  55.2122879  10.5726361   9.9319488  54.0290356  11.3767231  10.4262543
  12.7209139  42.4405575  33.7541175  13.5910308  42.0524263  33.6620188
  12.8292239  43.3443213  33.4579659   7.5853705  59.6043921  56.9816542
   8.3282793  59.3263674  56.4459133   7.4360448  60.5156612  56.7296076
  21.1720538  37.4807763  48.8092279  20.7830834  38.3506823  48.8997841
  20.4481912  36.8764424  48.9736509  75.5721712  52.1516085  64.0442657
  74.9393034  52.1652222  64.7622681  75.0356770  52.1693087  63.2517433
  47.8358459   2.3130561  13.1285810  48.3989143   1.5402295  13.0847418
  48.4258175   3.0256113  13.3744001   1.3716057  61.7640543  27.9374743
   0.8886263  61.3546085  27.2196198   1.4360508  62.6858473  27.6877189
  51.4204073  20.5525398  13.7373996  51.0669136  20.7338190  12.8665316
  51.7140245  19.6426141  13.6920631  31.2941217  63.6189556   1.2416259
  30.3944921  63.8684130   1.4529900  31.7678666  63.7076998   2.0686209
  21.0483456  42.0345592  64.5066452  21.3038635  42.7368021  65.1048088
  20.6605816  42.4871731  63.7576389   9.3372756  66.0979319  25.1847553
   9.9806225  65.5334759  25.6133842   9.5759970  66.0725451  24.2581487
  13.7210476  40.0322771  40.4314089  13.2765257  39.9754667  39.5855927
  13.0115390  40.0812578  41.0720587  40.3400135  27.1539569  58.0324507
  40.8818817  26.3730931  57.9190350  40.7635784  27.6385760  58.7409449
  78.7924767  17.8217757  46.4109612  79.2662048  17.2039175  46.9677925
  79.2581129  18.6505818  46.5227318  34.4943929  56.4218903  16.5490854
  33.8503432  55.9207630  16.0487771  34.5423412  55.9743547  17.3938620
   7.2176510  38.3118200  51.9968033   6.6408992  37.6434851  52.3668242
   7.4774200  37.9594111  51.1455917  72.7647924  61.3085461  41.2610865
  71.9668245  61.8300390  41.3478279  73.2787704  61.5260363  42.0387411
  19.2648530  54.5495796  44.6900749  19.1752803  54.8867893  45.5814219
  20.2099323  54.4903421  44.5502520  26.6100907  12.4972129  33.0766249
  26.1359286  12.0345163  33.7675047  27.3594713  12.8913581  33.5230660
  10.5943096  68.1566334  59.1868973  10.4483175  69.0766954  58.9668846
  11.4780998  68.1354523  59.5539093  65.5701399  15.5835450  20.1286554
  66.2328815  15.1490211  20.6654954  66.0662651  15.9899282  19.4180572
  31.0968614  35.1672626  53.5714006  31.2105799  35.1111150  52.6226425
  31.6955614  35.8627295  53.8436460   8.6564469  55.0714731  53.9415646
   8.8068062  55.2776003  54.8641348   9.5318580  54.9254036  53.5830259
  31.9633603  68.8130379  19.1002274  31.1466765  68.7904263  19.5989764
  31.8683004  69.5676851  18.5191095  82.0290852  64.2658424   5.3138107
  81.1180115  64.5500851   5.3871208  82.5167084  64.8809338   5.8616430
  58.4671783  29.5829225  55.0806618  58.8054752  29.8661828  55.9301043
  57.8380632  30.2612686  54.8351145   2.9254696  25.6176376   2.4707387
   3.8491851  25.3938603   2.5843412   2.8538543  26.5136147   2.7998707
  38.9409804   8.1408805  30.5021191  39.5739889   7.5038624  30.8333921
  38.6520767   8.6181718  31.2799096   9.3206865  44.5201731  16.2372756
   9.9233127  43.8671923  15.8813417   8.4531736  44.2160940  15.9704626
   3.9519477   1.1976097  42.8097391   3.6749110   1.2332600  43.7252808
   3.2071996   1.5470326  42.3203659  71.7946196  17.6564765  52.9640961
  71.1487198  17.5169301  52.2715902  71.9709635  18.5970128  52.9411507
  58.8668394   9.8938030  42.1003151  58.2732248   9.9744081  41.3537502
  59.6222830   9.4178486  41.7553425  34.3017030  69.7820854  51.5100050
  34.6275878  69.0831947  50.9429264  33.7141776  69.3392992  52.1223640
  -0.1799436  38.9522362   5.2137101   0.6449219  39.4190907   5.0800061
   0.0114882  38.0498004   4.9583766  19.1489255  58.3978748  48.4192085
  20.0396919  58.5334015  48.0960989  19.2576051  58.2185936  49.3531704
  11.7643201  64.5832825  22.2561979  10.8860373  64.3193102  22.5303745
  12.2525728  64.6768761  23.0741715  75.1047850  51.3367224  39.5362639
  74.3595552  50.8019590  39.2625952  75.1445866  52.0410633  38.8893080
   7.1602380  38.2026339  26.7960811   7.9532331  37.7907109  26.4529920
   6.7323744  37.5129104  27.3034716  58.6633539  49.5567560  -0.0318386
  58.8999319  50.4812574  -0.1064262  58.3535480  49.4607115   0.8687305
  72.7915287   4.2332602  58.6920166  73.0627966   5.0894046  58.3608627
  72.9451227   3.6342156  57.9614115  24.5001984  56.1302567   1.1031549
  24.0704203  56.0908937   0.2487709  23.8974142  55.6806946   1.6954195
  31.5844703  48.1915331  60.4201412  32.2762585  48.7435675  60.7847214
  31.9463921  47.3057604  60.4457617  72.9651833  28.8476634  17.9833829
  72.6561928  28.0919361  17.4837470  73.1390715  29.5172811  17.3218656
  61.8464661  77.1557713  66.6850662  62.6531410  77.5981474  66.9492817
  62.1416759  76.4176655  66.1518812  49.9134016  66.8875170  61.7104387
  49.6367025  66.2646437  61.0383558  49.1377401  67.4241495  61.8735600
  55.0270128  24.7153187  56.6693258  54.1813850  24.8313069  56.2360954
  55.0739765  23.7776351  56.8558073  70.9441185  26.6706705  61.2575436
  71.1946011  27.3946452  61.8314314  70.8393669  25.9233999  61.8464804
  27.8732944  54.6869564  26.4721084  27.0188189  55.0811672  26.2968922
  28.5046983  55.3368473  26.1635494  37.6300383  23.4186077   3.8349587
  37.4329257  23.4229255   2.8982842  37.3516154  24.2813134   4.1422862
  32.0572400  59.7175407  48.1736183  32.3034787  58.7928724  48.1979227
  32.3083329  60.0549459  49.0334702  21.3736105  58.5814476  25.0276566
  21.3016295  57.6724339  25.3187633  20.5583239  58.7465525  24.5540786
  82.5007915  34.8348427  12.7472591  83.3349705  35.2933669  12.6465321
  82.5445652  34.4472384  13.6213744  34.6843743  56.8795347  32.7376533
  34.8384905  55.9943390  33.0676675  34.4548035  56.7552328  31.8167424
   8.0948013  30.4881787  68.1338167   8.0965006  31.2129116  67.5085258
   7.9751748  29.7066212  67.5942898  80.9454060  43.6281490  42.1000481
  81.2344360  44.3997002  41.6128063  80.1974773  43.9348984  42.6126385
  18.7460709  61.3414526  37.0164037  19.3283606  61.8631029  36.4640927
  17.9421568  61.8580532  37.0718741  29.8812509  44.5503235  57.9275513
  30.5911899  45.0291967  57.4998856  29.9277329  44.8214388  58.8443756
  28.5834289  11.3722420  43.1892014  28.7123942  11.8354809  44.0168571
  27.7214956  11.6580665  42.8865337  35.1467443  65.6317949  67.4928141
  34.3589282  65.6266546  66.9491673  35.5914068  64.8118448  67.2779036
  29.1104293  64.4617033  28.1488752  29.2542720  64.4558811  29.0951896
  28.2559204  64.0459681  28.0339384  11.8196753  46.2099938  67.9521880
  12.2622899  47.0279007  67.7255752  11.3132981  46.4210473  68.7365795
  51.8050528  75.0750685   2.3168315  51.7767334  75.3799820   1.4099376
  51.9927979  75.8620358   2.8283611  77.2743416  54.8652554   4.7249728
  76.3303804  54.7570944   4.8410136  77.5740910  55.2516460   5.5478245
  80.1294041  59.2542934   3.1538966  80.5865192  59.0179539   3.9610022
  80.8031273  59.2102480   2.4753736  35.9789133  78.4942532  59.5946503
  36.1777568  78.4940052  58.6583328  35.0544453  78.7376499  59.6431160
  33.3081317  72.1753407  37.6522326  33.7685847  72.4090672  38.4582019
  33.4282804  72.9328060  37.0794797  17.7249157  23.4067702  15.9963751
  16.8229258  23.6847186  15.8370280  17.9702663  22.9252219  15.2063465
  63.9419699  13.0946529  36.2591195  64.4913816  12.8608251  35.5109882
  63.0927134  12.6975381  36.0660028  35.9202385  68.8617897  41.8984413
  36.1021304  69.7704601  41.6587257  35.0249171  68.8779211  42.2366285
  40.8228350  35.5401063  19.3910134  40.3348970  36.2087250  18.9102852
  40.8593416  34.7937536  18.7928033  12.5229263  35.7132411  32.0788479
  12.1982288  36.5275955  31.6946197  12.4798894  35.0775266  31.3645315
  50.2929449  14.4770360   0.4280485  51.0866880  14.4136405  -0.1031624
  49.7993708  13.6846054   0.2166948  31.8315268  64.9952888  58.4017372
  31.7766905  64.4970465  57.5862741  31.0066962  64.8108435  58.8510370
   2.2592108  72.0561743  14.9263370   2.8219783  71.3039303  14.7428846
   1.5925846  72.0296192  14.2399430  14.4198060  25.6362200   6.7699736
  14.0744197  25.2053261   5.9881353  15.0532615  25.0134850   7.1265787
   9.7355324  35.1242661  46.1706781   9.4464672  34.3741179  46.6902494
  10.4497254  35.5074096  46.6799545  21.4930129  64.7858000  59.0696859
  21.3622069  65.3687620  58.3218384  21.0446024  65.2216196  59.7944069
  70.3436232   1.9284557   0.5936929  70.4995394   2.7590695   1.0431400
  69.7547770   2.1528484  -0.1268233  37.0251226  51.2462234  41.7893219
  37.0487761  50.9155273  40.8913708  37.9137778  51.1103916  42.1180677
  32.2910929  56.5580320  36.3401389  31.9377518  56.4948082  37.2274876
  32.3619819  57.4985647  36.1770177  37.4253845   5.4724991  50.8683395
  37.8154063   4.7907692  50.3212023  37.0481467   6.0932624  50.2449799
  70.0246525   5.3927130  49.4479609  70.0809574   5.2710170  50.3957224
  70.8466816   5.0359988  49.1114235  14.0458250  50.5991840  20.2489662
  14.6114779  49.8318148  20.3350687  14.0522194  51.0001755  21.1181021
  20.1907992  58.9090014  39.6124721  20.3117609  59.7431231  40.0661707
  19.3936372  59.0303087  39.0966702  70.7784796   1.9999780  36.2811375
  69.9998283   2.3022699  36.7486405  70.4901981   1.2123308  35.8199024
   2.9583859  72.8058243  60.8556557   3.6297518  73.1905222  60.2921724
   2.1299708  73.0598831  60.4489422  22.2009778  62.8192282  56.1545849
  21.9343257  62.0245409  55.6924152  23.1577492  62.7922058  56.1450863
  26.5649295  28.7217879  67.1489573  26.2180018  29.2314816  67.8811359
  25.9258080  28.0208039  67.0209837  37.1549439  65.7320166  60.8323669
  37.5417948  66.3207912  60.1843548  36.2265468  65.6987619  60.6017113
  80.8814335  38.8400149   4.2553014  81.7622471  39.1624475   4.4461623
  80.9346294  38.5158610   3.3562315  61.0131645  14.1085219  22.4683332
  61.9624567  14.0333700  22.5654578  60.6584454  13.6967826  23.2562900
  19.5349240  20.2119684  11.0128832  19.4606268  19.5439994  11.6944480
  18.6587322  20.5928707  10.9542990  28.1408119  77.9786491  42.6440859
  27.8963637  78.7494278  42.1318579  28.7625766  78.3092594  43.2924223
  21.8854284  70.8458567  64.3890572  22.4236965  70.1005363  64.6555185
  22.4479580  71.6083002  64.5249653  62.6566029   4.8709586  52.9795837
  62.8204870   4.8979136  52.0369005  61.8230534   5.3281492  53.0909443
   5.3009069  55.9296083  32.5325537   5.9292018  56.6502333  32.4858713
   5.8402568  55.1393557  32.5037408  83.3916394  65.7002544  32.5687242
  83.5696147  66.2075329  31.7767453  84.0831061  65.9577084  33.1784964
  55.4282951  70.3958416  58.1772614  54.8241997  70.6329775  58.8808680
  55.9235096  71.1970043  58.0065823  21.9447780  33.7155986   4.5197156
  21.4387393  34.5247483   4.4460168  22.6685262  33.9382243   5.1052552
  38.0020213  25.0937033   9.4842875  37.7026010  24.4119167  10.0857413
  38.8956189  25.2873683   9.7674972  83.5791425  44.4438124  50.8037281
  83.0858272  45.2345419  51.0219526  84.3174165  44.4463301  51.4129686
  16.8947113  34.1432476  54.8640919  16.5232813  33.7288904  54.0852594
  17.5416780  33.5146689  55.1843357  74.0914392  23.6132503  59.2027569
  73.6756468  23.5277891  58.3448267  74.3161535  22.7163649  59.4504213
  51.8488836  15.1724720  60.2798796  51.3778019  14.6716869  60.9458590
  52.5027132  14.5620501  59.9391079  47.0442200  40.8629513  14.2553449
  46.0938787  40.7609940  14.3072248  47.3809910  39.9670124  14.2445600
  14.9334812  50.1636076  59.3267965  14.1646576  49.6080160  59.1985035
  14.7469974  50.9520149  58.8170242  24.9141836  70.5177641  54.2232227
  25.3446484  71.3408232  54.4545269  24.5987439  70.1697969  55.0572777
  23.2392383  39.7638583  33.0070138  23.1237507  38.8328695  33.1971622
  23.9086962  39.7874165  32.3232722  25.7133865  56.8066978  46.4265919
  26.0383868  56.2008858  47.0926237  26.3072062  56.6886091  45.6851959
   2.3807444  56.7203951  42.5558996   3.1973776  57.1451712  42.2934008
   1.8065082  56.8150091  41.7959452  62.0667315   7.9435283  44.3018723
  61.8791533   8.1144661  43.3789253  62.8957033   7.4650300  44.2931747
  14.9725318  59.5963621  55.2097654  14.7573876  58.6818838  55.3932762
  14.7773385  60.0567675  56.0259533  22.6323986  59.2133522  44.6175718
  23.0389857  58.4081221  44.2973900  21.8416452  59.3098116  44.0868807
  32.6715612   3.7836933  57.1042824  32.9390430   4.6219805  56.7275047
  33.4310079   3.2136720  56.9836712  29.0913343  59.5274115  10.6864381
  28.2762861  59.4952679  10.1855433  29.2476177  60.4608011  10.8299387
  36.8073416  70.7398510  51.8969536  36.0352612  70.1831818  51.7957449
  36.4530230  71.6088772  52.0853281  45.9311771  71.0117722   5.6358325
  45.5389738  70.3361273   5.0827348  46.6014814  70.5498123   6.1393356
  22.0441985  56.2768745  60.7901907  22.3999166  57.1366930  61.0147047
  22.7781987  55.6747198  60.9121799  44.3749666  34.6902943  62.6792669
  44.4115925  33.8671660  62.1920776  44.2030048  34.4262147  63.5831022
  76.6085482   8.0350840  66.1449766  76.9265890   7.1545792  66.3444567
  77.3871279   8.5113180  65.8564520  41.4081001  70.7531500  42.9823065
  40.6687975  71.0364199  43.5202885  42.1070862  71.3731575  43.1902599
  67.7716923  12.2347569  46.4025450  67.5780392  11.8042004  45.5698681
  67.8884363  11.5151334  47.0228195  49.3923950  36.2998819  10.3136957
  50.3420591  36.1803436  10.3226781  49.2121458  36.7226934   9.4740689
  44.2249537  65.4191828  56.3727665  43.8033962  65.3217077  55.5189371
  45.1396608  65.6126642  56.1675692  14.1986811  52.3749399  57.5007200
  13.4026933  52.7087021  57.9145288  13.9649343  52.2746897  56.5779257
  74.4668865  56.7837811   6.3414603  74.8502636  57.5602674   5.9336317
  74.5140696  56.1093426   5.6638646  22.2149730  13.9948344  28.7475276
  22.9116368  13.6947620  29.3313479  22.3384261  13.4862053  27.9460979
  11.5360653  29.1998196  50.5070019  11.0984969  29.7716594  51.1376858
  11.7561185  29.7752571  49.7744179  15.0252271  25.9746218  62.3271799
  15.4603446  26.7165780  62.7471876  14.8799098  25.3490567  63.0369568
  20.3304815  65.8757877  14.7735083  20.5503559  65.6220436  13.8771260
  20.5746269  65.1172781  15.3038740  57.5770092  34.0512228  43.8332653
  58.0359602  34.6695757  43.2647228  56.8103027  33.7836075  43.3265257
  60.3651762  39.4936156  67.5747347  60.0389290  39.3573213  68.4642410
  60.9094906  40.2785301  67.6369047  28.3457208   4.9206513  45.8123302
  28.2857537   4.3501291  45.0460815  29.0647459   4.5549169  46.3275719
  69.2310333  28.1071162   8.5327053  70.1164532  28.3735275   8.7802649
  68.7642002  28.0253005   9.3643349  46.5221214  72.1876431  39.8990393
  45.9951735  72.9790878  39.7886992  45.9039354  71.5311384  40.2200937
  69.1217422  10.4660273  65.4680920  68.8485003  11.3228536  65.1403427
  68.6128998   9.8394036  64.9536467   2.9458588   1.4039628  12.6199603
   3.2255340   0.7939596  13.3025360   3.7584201   1.7999163  12.3050046
   6.1388981  58.0478907  66.0295439   6.5165818  58.6260128  65.3666973
   6.8228173  57.9666996  66.6942930  32.0759310  78.6980796  51.0515642
  32.2821440  77.7875896  50.8401012  32.0610394  78.7243074  52.0082855
  26.6055655  65.6031132  42.4528074  26.7339110  64.9081135  41.8072605
  27.2168326  65.3907299  43.1581306  18.0485976  32.9297137  26.2386799
  17.5011742  32.3342085  26.7504740  18.3114171  32.4164724  25.4746509
  73.4040260   4.6248147  42.7083397  73.2166672   5.5076051  43.0274105
  73.8522196   4.7618952  41.8737316  18.9663601   2.6422417  46.3293934
  18.5051835   2.0960248  46.9659424  19.3001151   2.0233235  45.6799459
  34.4592905  62.1350670  25.2184010  34.3410754  62.8895473  24.6413255
  35.1361132  62.4102449  25.8368015  64.3745947  66.2245750  16.2871087
  65.0106812  66.4564657  16.9637561  64.2753029  65.2758741  16.3667583
  30.7287240  50.2616596  35.1642847  30.4729748  51.1560392  35.3899240
  30.3337836  49.7200108  35.8475637  21.4774156  71.0407305  44.0860224
  21.8635893  70.3320551  44.6006918  21.5062428  70.7242250  43.1831264
  56.5759134  26.6639853  11.8733180  56.6121149  26.9904423  10.9742379
  55.9690714  27.2553396  12.3185992  42.0996046  10.0415218  38.6131263
  41.1685991   9.9959749  38.3954430  42.4750900  10.6106508  37.9413128
  41.3893938   0.3034926  34.4440746  41.2125921   0.0315726  35.3446484
  42.1189022   0.9187253  34.5184851  41.7123318   8.1365216  43.9797735
  40.9978294   8.4532130  44.5324278  41.8261337   8.8206482  43.3200407
  11.3746452  66.3428831  34.8192406  10.9822297  67.0288086  34.2791033
  10.7992518  65.5869961  34.7018147  30.6396556  70.1725912  64.8756695
  31.0784602  70.8265638  64.3316031  30.9824514  69.3342876  64.5658827
  42.3773718  10.8978987  26.0016513  43.1474686  10.3426719  25.8795619
  41.8555069  10.7608449  25.2110147  54.3364525  78.2307482  21.6087627
  54.7859001  78.2666588  20.7644033  53.4058046  78.2304859  21.3848901
  61.4779043  71.4706516  45.8649254  62.2223330  71.0704470  46.3142490
  61.7927980  71.6303444  44.9752188   0.8361012   3.8874340  60.8786392
   1.4054698   4.1914067  60.1717806   0.2194046   4.6065918  61.0154963
  10.3822339  43.0024242  61.3427973  10.8302867  43.7847281  61.6644812
   9.8442197  42.7142859  62.0801926  31.7566252  58.1056547  52.9008341
  31.0645247  57.6199818  52.4521160  32.5233507  58.0065393  52.3364401
  23.7853003  58.7192440  35.4523206  22.8395295  58.8018560  35.3301358
  23.8827181  58.0279875  36.1072278  64.3428612  72.0254183  53.6471987
  63.8445950  71.9939947  52.8305149  63.7450457  71.6725349  54.3062305
  51.2354374  29.4019175  50.5435991  51.4442396  29.3996358  51.4777470
  51.6370726  30.2043366  50.2103662  54.1602278  14.4886351  54.4441319
  53.7229252  14.0080261  55.1469946  54.1868448  13.8717639  53.7127018
  72.9452753  68.2622147  51.2294960  72.3976994  67.8656006  50.5519295
  72.4605036  69.0405941  51.5039968   4.0322658  17.0651388  19.1771579
   3.6276966  17.8252745  18.7591279   3.9637470  16.3682032  18.5246098
  22.3235154  48.1164455  55.8649254  23.0697083  47.9202032  56.4314175
  21.9036984  47.2686005  55.7195044  42.5325441  23.1360078   9.5589495
  41.8848419  23.0220747   8.8634384  43.1336784  23.7993693   9.2201000
  58.5480738  65.5562401  38.7996674  59.2544127  65.3463078  39.4106078
  58.9922714  65.7243395  37.9686069  57.5597811  12.8315639  43.3490372
  56.7074013  13.2413924  43.2016611  57.8699446  12.6022232  42.4730062
  39.8548794  10.8773434  16.5147460  39.3406272  10.2645350  15.9891570
  39.2076087  11.3331389  17.0528197  25.6459069  16.3854408  67.3249483
  26.3919759  16.5059638  67.9123878  26.0395861  16.2363839  66.4652777
  66.1029482  45.8454561   2.2351520  66.8993950  45.6948519   2.7442926
  66.4131784  45.9821033   1.3399893  21.7451572  70.5244064  59.9250984
  21.4055967  71.4086390  59.7870064  20.9767103  70.0079679  60.1680136
  30.0367856  59.6393490  54.6545506  30.6471825  58.9513016  54.3895292
  30.0817466  60.2843189  53.9486980  17.5859582  31.7462778  64.8618460
  16.6940415  31.7714238  65.2083778  17.4843776  31.9206071  63.9261532
  15.1039255  32.6510024  40.8208275  14.7505963  33.3669233  40.2927685
  14.3585300  32.3432374  41.3364792  14.6925056  36.6879821   4.8301762
  15.4295659  37.2985935   4.8188704  14.7437024  36.2351394   3.9884269
  41.6215849  74.0430927  56.1085510  41.2161350  74.5051289  56.8422842
  40.8847332  73.6766768  55.6196547   6.0286462  18.8856339  13.7386143
   6.9619220  18.6749601  13.7676764   5.8506751  19.3018067  14.5820355
  41.7559481  21.3464022  68.0920124  41.2596655  21.6683388  67.3394918
  41.1368036  20.7932210  68.5683393   8.5682088  64.7559452  59.3579388
   8.5407943  64.2512989  60.1708412   8.8562661  65.6281853  59.6271086
  13.2754946  41.5814734  50.1495790  13.8286352  41.6723967  49.3736935
  13.8577664  41.2200022  50.8178139  54.5889235  36.9881439  43.6275768
  54.2859840  36.0968947  43.4539747  53.9707708  37.5471830  43.1568384
  17.3164797  70.0674963  62.7690363  17.4650276  70.8193684  62.1955776
  18.1888878  69.8296881  63.0830145  44.3813433   4.7769507  67.9259580
  45.0928559   4.4272860  67.3895599  44.8204197   5.1649054  68.6828828
  67.4238682   2.5272372   3.3405098  66.5587521   2.3799536   3.7227520
  67.2700691   3.1551039   2.6345637   3.7361455  10.0634623   2.1497793
   4.2976910   9.3744040   2.5048798   3.9793521  10.1181138   1.2256063
  12.2520649  17.9272330  31.5270901  11.7506039  18.3464491  32.2263956
  13.1285739  17.8150535  31.8950295  51.4722633   4.9543801  58.6302900
  52.2571516   5.0307864  59.1728258  51.6897488   5.4265976  57.8265810
  45.2581024  66.5754604  39.3308401  45.4356003  66.3509321  40.2442503
  45.9074974  66.0799503  38.8318515  62.6751757  67.7998018  55.3902245
  62.3261976  67.8874302  54.5032263  63.3012724  67.0781851  55.3310728
  64.2968464  35.2990866  37.8782964  63.3826113  35.5777788  37.8260088
  64.4552898  34.8413301  37.0527148  81.6500378   1.1072896   6.7083067
  81.2483788   1.8666218   6.2860304  82.3259258   1.4783251   7.2755301
   5.0859934  10.5159152   6.9777846   4.5312795  10.2350521   6.2500209
   5.5386990  11.2922096   6.6481531  56.2686443  55.6273985   0.6602922
  56.6618967  55.2702999  -0.1359910  56.2255621  54.8831558   1.2606902
  53.3863020  69.4576311  45.7465839  52.7526855  68.7418079  45.6979513
  53.1578445  69.9255610  46.5497494  45.9461308   1.1467201  48.3679008
  45.5382776   2.0126814  48.3673859  45.4118586   0.6299818  47.7647686
  76.1482573  22.8337836  51.6912460  76.3378811  22.7947307  50.7538271
  75.2723885  23.2164550  51.7426968   8.0992049  19.8876143  44.9765491
   7.9688913  18.9950299  44.6563244   8.1733799  20.4182124  44.1833305
  83.9052200  63.6566448  62.3742676  83.1951237  63.2680225  62.8851271
  83.5634804  63.6968470  61.4810562  32.9557776  76.1246014  50.2010059
  33.0279875  75.5364466  50.9527302  33.2295203  75.5928278  49.4536686
  50.9015417   8.4088218  51.8486214  50.1843071   8.2354510  51.2389088
  50.5595064   9.0835446  52.4351311   7.4103260  18.5722005  51.2632799
   8.0837601  19.1881263  51.5519857   7.7441102  17.7134180  51.5227222
  24.7777009  66.5697479  55.6172037  24.5695400  65.6354666  55.6216526
  25.7290530  66.6036463  55.7172585  65.5810308  32.2227979  38.2749653
  65.1033878  32.1619725  37.4476910  64.9481249  32.5929618  38.8902998
  60.9158373   6.1965716  60.9297562  61.1604500   6.8023151  60.2301311
  61.6319990   5.5621296  60.9585285  66.8975306  11.0088706  62.9171038
  67.5081682  10.8895099  62.1897078  66.9247866  10.1779509  63.3915091
  76.8610907  64.7238922  10.9053767  77.5935793  64.2970419  10.4609776
  76.3933802  65.1840115  10.2084041  82.2322464  32.4009466  23.8351488
  81.9256306  32.7048135  24.6894813  82.9239845  31.7714953  24.0389419
  34.1210485   9.0990222  56.6516304  34.6690989   9.5077246  57.3215818
  33.7624955   8.3204699  57.0776892  24.6443272  12.9112053  45.2556562
  24.6884751  12.2099614  44.6056271  24.3759775  12.4727595  46.0631132
  12.1499240  55.2073288   2.7656356  11.8430018  55.4801464   3.6302736
  13.0396712  55.5553055   2.7065212  78.1181192  55.4000998  11.0013831
  78.5633755  56.1296415  11.4323699  77.1867132  55.6030130  11.0882163
  56.7483377  23.2514882  59.7486830  57.5607395  23.1449604  60.2435446
  56.3465166  24.0394092  60.1146746  41.7862558  69.9828720  31.2979245
  41.6769886  70.8212328  31.7467451  42.5980759  69.6236038  31.6558409
  77.6610136  63.4578085   4.3507600  77.3983479  62.9197264   3.6039615
  78.0767012  62.8425646   4.9548391  36.8017960  66.1631966  27.2983098
  37.5943589  66.6964436  27.3593044  36.3549161  66.3019466  28.1333423
  26.5755129  68.1800270  49.8755741  25.9636474  68.4528017  49.1918755
  26.5153551  68.8674116  50.5389833  34.4041419  72.2151327  40.2365971
  35.2193332  71.8890667  40.6178808  33.7159562  71.7296076  40.6914568
  11.9388211  23.4295559  16.6966498  12.8376126  23.6663747  16.9253874
  11.5916574  24.2049670  16.2556899  79.7241688  10.3677440  41.6063881
  79.1379499   9.6693021  41.3152552  79.5801067  10.4231405  42.5510597
  27.9187036  74.7315264   2.9509893  28.8279772  74.6796274   3.2455391
  27.6453471  73.8191509   2.8557295  71.8290138   3.8250104  63.1044674
  71.1618233   3.4303650  62.5429153  71.6299868   3.4954229  63.9808226
  77.0274401   1.3877964  52.7606392  77.5475740   1.8274665  53.4332323
  77.6546001   0.8319089  52.2981596  61.8221903  54.7203255  10.3400385
  62.0036077  54.8201799  11.2745702  61.4873123  55.5749035  10.0684130
  17.4263835  51.7845154  30.6427741  17.8170657  52.6375628  30.8322573
  17.8504777  51.1851263  31.2568665  32.0977259  69.1683102  53.0388308
  31.1554337  69.3278503  52.9853344  32.2014618  68.5999012  53.8019753
  50.4063511  11.9062185  21.1447573  50.3480864  11.9084787  20.1893353
  51.1543512  12.4705255  21.3404346   4.7280326  45.8868456  16.1797118
   5.2066797  46.2568092  16.9215024   5.1749021  46.2355518  15.4083860
  80.2700901  71.8185663  57.3465586  79.8352814  72.2769594  56.6275024
  79.5542622  71.5160084  57.9053783  81.6415310  27.2889876   9.5367908
  82.3169231  27.9661775   9.4981307  80.8321667  27.7678442   9.7153020
  41.2684441  37.6274204  11.8854272  40.4814196  37.1937585  11.5556359
  41.0296917  38.5531402  11.9330800  33.4115791  72.1728897  52.5039816
  33.6194205  71.4180279  51.9533396  34.2608976  72.5704718  52.6958752
  35.9064579  54.9940920   9.6743870  35.1615810  54.8707676  10.2627599
  36.1611700  54.1068125   9.4212246  41.5053082  78.1111574  66.6421652
  41.3449335  77.1702194  66.5703773  40.6614399  78.4785843  66.9050694
  48.7977982   0.4689078  59.0772963  49.1644955   0.7371332  58.2347870
  48.7041092   1.2851110  59.5684862  15.9102190  44.3578959   6.5800029
  15.5872118  43.7671757   5.8995998  16.2520182  45.1121330   6.0998666
  12.5321853   5.3877789   1.5797539  12.9780340   6.1455995   1.2013912
  11.8889534   5.1333493   0.9181267  62.7179432  11.0658944  59.2077160
  63.0055809  11.3134992  60.0864601  63.5296726  10.9480369  58.7143230
  37.2657681  19.6666563  30.2443743  37.0795107  20.4069090  30.8219266
  37.6850581  20.0596809  29.4788957  36.4832425  74.2094271  68.0302657
  36.8127769  73.4377782  68.4909127  36.9708246  74.9408762  68.4090510
  37.7844977  54.5028877  31.8921494  37.6506281  53.5700989  32.0601439
  36.9399548  54.9060822  32.0931864  32.4733925  47.2433567  37.8357220
  31.9601607  46.9046497  38.5692739  31.8467522  47.3091936  37.1151543
  51.5376139   7.3669332  44.7726583  52.4844313   7.2791433  44.8824596
  51.4316320   8.1373072  44.2145157  58.3787203  19.1513515  20.3942871
  57.8670454  19.8863089  20.7323027  58.9564753  18.9088464  21.1179042
  54.7168779   3.9621994  51.8490362  55.2768278   4.4988155  51.2880278
  54.7177315   3.0998200  51.4336681  10.8345830  56.9619560  42.7281380
   9.9898422  57.2856569  42.4153090  10.7009995  56.8091154  43.6635637
  21.9258118  18.6059690  35.9036350  21.1353564  18.1005478  35.7139897
  22.0339847  19.1760433  35.1423550  73.6452198  17.5811946  44.7684813
  72.9994583  16.8854070  44.6455812  73.4479189  18.2155347  44.0793371
  77.9461193   8.4551674  28.3231497  78.6361504   8.2078475  28.9387131
  77.6924896   9.3387318  28.5900164  19.2274809   8.2988805  15.4240894
  18.7309384   8.3146530  14.6059024  19.0668690   9.1562241  15.8182955
  31.2096334  74.5501852  19.8782992  31.5071321  75.2047729  19.2464447
  31.9858408  74.3533659  20.4027009  75.1307821   8.6378461   1.6836776
  74.3744898   8.8435811   2.2331609  75.0336552   7.7073717   1.4811540
   3.4231290   5.2540720  31.3444376   2.8850871   6.0375440  31.2307954
   3.2068157   4.9402598  32.2224832  52.8855371  52.0188093  24.6964622
  52.2791862  52.7410841  24.8604441  53.6135960  52.4202871  24.2221403
  17.6864290  22.8158426   3.1990385  18.2237625  22.4739552   3.9136133
  17.0501626  22.1222711   3.0248135  40.0756121  71.9090319  37.6389980
  40.7628298  71.7720175  38.2910609  40.4811573  72.4699831  36.9778633
  57.2935343  63.7014055  50.5286074  57.7573490  64.2252302  49.8753691
  57.1354485  64.3069315  51.2528849  32.6202726  59.7866964  33.3398700
  33.0924344  59.4371080  34.0955710  32.6803780  60.7369041  33.4385085
  23.4477687  23.6427140  19.7898817  22.4971843  23.5368228  19.7523689
  23.5797477  24.4428682  20.2983761  33.1531119  61.3512230  10.6453443
  34.0343356  61.7147017  10.7322776  33.2590365  60.4186869  10.8334756
  45.8414459  76.8331385  57.0096922  45.3942633  76.4309359  56.2650490
  46.0586214  76.0986900  57.5838470  51.8122625  72.0406199  67.9998398
  51.9023180  72.9894304  68.0886412  50.8733368  71.8794012  68.0929136
  48.9547920   8.1304622  33.2783413  48.5912132   8.6511654  32.5621629
  49.8127270   7.8504467  32.9593253  36.0075569  50.1079655  39.2579103
  35.8971715  49.2520952  38.8437390  35.1457238  50.3110075  39.6215725
  29.6482658  71.9804525  19.5103586  29.9023771  72.8844070  19.6961689
  29.6323395  71.5550804  20.3677011  16.3486397   3.4314835   8.6668086
  17.3020923   3.3503801   8.6909479  16.1182821   3.8035515   9.5181209
  26.0370445   8.4449691  41.2045956  26.5968704   8.7955213  41.8973732
  26.1802053   9.0310127  40.4614353  15.1452219   4.5505643  39.5265865
  14.5769882   5.2451056  39.1934896  15.8750272   5.0144070  39.9370337
  39.3850136  17.7050841  30.8913589  40.1144218  17.8988016  31.4801478
  38.8413596  18.4925127  30.9164047  10.9903693  41.4986706  10.8725226
  11.7976117  41.1331511  10.5106020  10.7935107  42.2478771  10.3102362
  78.9233255  70.7414436  18.6039495  78.3993387  71.4517260  18.2335925
  79.5617199  71.1820555  19.1647899  43.0124426  78.8584948  26.6194654
  42.5604391  78.9843798  27.4537778  42.3088646  78.7397623  25.9814143
   5.2394277  14.9824321  37.1718693   4.8029524  14.5881319  36.4167213
   5.9906679  15.4445481  36.7999578  75.1110077  53.0552149  10.9486115
  74.3496227  52.6144981  10.5713928  75.8381891  52.4526262  10.7926488
  16.1080325  39.1729188  22.1992993  16.1702156  40.0909138  21.9353867
  15.5235231  39.1806793  22.9572701  82.5115967  24.8396873  10.9770083
  83.2901192  24.2866564  10.9115219  82.5433540  25.3914976  10.1955163
  80.4207897  44.9895239   2.0436391  80.4909706  44.5006847   2.8636053
  81.3272953  45.1306486   1.7705877  59.3001175  67.5133276   7.6081491
  58.8007069  67.7726030   6.8338138  59.4967890  68.3375502   8.0533594
  77.1611166  48.7699032  12.5774062  76.4438868  48.3113766  12.1397257
  77.8250122  48.0952692  12.7200460  15.5974698  60.2340746  18.5282600
  16.2045217  60.0342417  17.8156686  14.8728406  59.6210051  18.4046066
  38.2861614   3.4616727  61.9048119  38.6416626   4.0391544  62.5803614
  37.7628613   2.8219587  62.3876715  71.2086868  11.3523161  34.1123462
  71.5019464  11.9082272  33.3904076  70.3510952  11.0308957  33.8340402
  81.9037819  75.3890371   8.3597845  81.0923576  74.8913050   8.2593393
  82.5609207  74.7320223   8.5893989  10.6089914  77.1901989  65.2662897
   9.8538005  76.6308975  65.0843477  10.2480805  78.0760622  65.3012037
  82.6538372  19.2562723  60.6601763  82.0113182  19.3233502  59.9538517
  83.2028770  20.0338244  60.5591583  62.2346020  13.1622088  55.9515619
  61.8124723  13.4318316  55.1358795  61.5112257  12.8952456  56.5187407
  17.8014028  73.8329029  29.5214176  18.7071288  74.0673065  29.7237682
  17.2832918  74.2777967  30.1921320  43.5919571  17.1393883   3.6770651
  43.3921242  17.0000970   4.6027517  43.0298710  16.5178156   3.2145286
   5.7645738  77.7736950  37.4080133   6.4287877  77.0858335  37.3644686
   4.9853906  77.3331261  37.7471375  72.1610498  68.4963036   2.3807897
  72.0009279  68.6723471   1.4536425  71.3034058  68.5934019   2.7946204
  16.2997353  36.8869185  12.6162434  15.7450104  37.4379301  13.1684184
  15.6834149  36.3820791  12.0856595  50.8567476  -0.1179692  56.4364147
  51.1535931   0.2358122  55.5979967  51.5940857   0.0228361  57.0303345
   7.6834768  26.4089966  12.4314582   8.5592079  26.0236645  12.4605417
   7.2951639  26.1853004  13.2772744  19.3539846  48.3802605  44.3486834
  19.5674706  47.8003502  45.0796843  19.8657393  49.1721392  44.5138073
   6.6741192  34.4787979  23.3233213   6.9544816  34.4141412  24.2362547
   6.8402469  35.3910542  23.0857873  72.9933262  23.1742454   5.1365280
  72.7095413  23.5575795   5.9664381  72.5277090  22.3394132   5.0866693
  50.4679728   2.7484164  57.5684071  50.6911516   3.6636209  57.7381849
  50.7849932   2.5854000  56.6800642  53.2239962  13.8131857  64.0936708
  53.8618422  13.4967661  64.7334051  52.5541687  14.2504096  64.6194077
  57.3453951  68.1459856  64.8549747  57.6482105  68.5997820  65.6414843
  56.3911152  68.1480885  64.9296856  65.5666780  19.2925727  40.6971884
  65.8728600  18.6392212  41.3261700  65.0431681  18.7940955  40.0697422
  48.4877110  67.8541708  29.8231006  48.7318802  68.7680149  29.9697042
  49.0022802  67.5880527  29.0611053  16.0282636  15.9711516  26.1300921
  16.1224258  16.7684364  25.6088424  15.9181035  16.2837064  27.0280933
  58.4972620   4.0109444  38.8734651  57.9463530   4.7937158  38.8737130
  58.6447382   3.8215587  39.8000813  17.5708652  70.3468704  26.6531229
  17.1461248  70.6498671  27.4556327  18.4567606  70.7062674  26.7006207
  57.6624584  57.9074240   0.5592267  57.2702360  57.0469189   0.7072916
  57.0908833  58.3233261  -0.0861876  21.3914013  68.0913162  46.5222454
  20.6321716  68.4573841  46.0686016  21.1254859  68.0519915  47.4409294
  19.2825103  19.2482710  38.2210875  18.8830292  20.1178551  38.2427263
  18.8981748  18.7894773  38.9681005   5.0427341  55.9124565  18.6219680
   5.1389951  56.8623400  18.5534489   4.1176406  55.7514477  18.4362006
  58.0017090  11.0947394  58.1351662  57.1171236  11.3952374  58.3435774
  57.9135609  10.1478505  58.0262470  46.2596416  19.2072892  64.6520376
  45.6575584  19.9357748  64.5002651  47.0966196  19.6261382  64.8527050
  71.0537182  -0.1953110  47.2429276  70.9240041   0.5078760  46.6065788
  71.7545543   0.1228920  47.8119707  17.8508461  56.1557817   5.2507591
  17.9642701  56.7128849   6.0208249  18.7297463  56.0783958   4.8795748
  10.7063031  51.4435101  24.1850162  10.5556607  51.7150545  25.0904465
  10.6120718  50.4911089  24.2017627  43.5545969  17.4539161  27.2003031
  44.3709755  17.1370625  27.5867701  42.8698635  17.1204126  27.7800918
  37.7873373  74.3901825  15.6477606  37.3772335  74.6388531  14.8193836
  37.1589732  73.7952900  16.0570228  54.0221786  72.1616697  34.7188330
  53.0936670  71.9431067  34.7983527  54.4787169  71.3457441  34.9239278
  78.1593227   1.2138882   5.6265193  78.4357119   0.6472524   6.3467735
  77.2396898   0.9894887   5.4845721  46.9463110  64.9866486  37.8131199
  46.4954233  64.2878342  37.3392129  47.6126909  65.2996111  37.2013831
  17.5221193   5.7253587  14.6338952  18.4083700   5.5665356  14.3089843
  17.5630951   6.5982318  15.0245953  16.8098199  56.7090797  20.6198525
  15.9860539  56.9333649  21.0526752  16.6234517  56.8048000  19.6858633
  50.5616140  56.1039162  40.3274822  51.0411596  55.7779121  41.0890532
  51.1701822  55.9951830  39.5966935   5.7372171  55.7705641  64.5360804
   5.1110440  55.8254337  63.8141870   5.7121772  56.6374111  64.9412680
  42.9332447   4.4075182  40.7343817  42.6876688   5.1402068  40.1695013
  43.8891125   4.3815881  40.6910515  60.9869385  71.6203594  53.8579702
  61.6627073  71.3531399  54.4809961  61.0660791  72.5732136  53.8128424
   6.1747289  70.6532907  58.9266491   5.4721153  70.9399700  59.5100737
   5.7269788  70.1715469  58.2311821  24.4541645   9.3514514  29.3242097
  23.9368224   8.8006949  28.7366271  24.4423604   8.8863468  30.1607323
   1.5744576   8.3108240  60.0141621   1.5188980   9.1080648  59.4873285
   2.1259716   8.5532361  60.7580042  13.2524574  19.4418454   7.1968943
  12.4976373  19.4165599   7.7849746  12.9542685  18.9942634   6.4050698
   3.2423490  15.7167196  32.7433538   2.9723662  16.4550543  33.2894325
   3.7251544  15.1428342  33.3381534  36.7508388  72.7709484  65.6271839
  36.4239788  71.9143534  65.9022141  36.4851093  73.3652830  66.3288832
  47.8192997  70.2131081  62.3712206  48.6719704  70.6480122  62.3647022
  47.7093983  69.8880291  61.4776421  27.3774147   8.9691055  14.4119334
  26.8800640   8.7338597  13.6286497  27.6840949   8.1323338  14.7612083
  15.7630165  44.0632964   0.9070618  14.9848326  44.3207045   0.4126913
  16.0688360  44.8749165   1.3120062  67.9322338  18.1282306   6.3530570
  68.4390116  17.4161959   6.7434573  67.0898867  17.7302194   6.1333483
  60.5931950  12.4463725  57.8540468  61.2564850  12.1166265  58.4603024
  59.8497009  11.8542302  57.9672575  23.8871813  55.9089708   4.6520954
  23.6266947  55.0213337   4.8980200  23.6754775  56.4417505   5.4186201
   2.8476745  22.1116543   3.4978357   3.0132040  22.1843219   4.4378096
   3.7187523  22.1044374   3.1010956  21.5750170  68.2128334  61.8395472
  22.3701096  68.7394667  61.9215059  21.8816304  67.3072863  61.8864536
  79.7914696  75.4945755  66.7171001  80.0016117  76.0417461  67.4738503
  80.5313396  75.6147575  66.1217928  49.3957138  54.5453453  51.9122314
  49.6805382  54.9721766  52.7202654  48.6563778  55.0730610  51.6103554
  34.3613148  65.4602623  47.2853708  34.5030284  65.0508642  48.1389189
  33.4598327  65.7802057  47.3199034  48.6339283  15.7403827  63.4698582
  48.5260105  16.6237295  63.1173182  47.7437830  15.4534340  63.6736536
  21.4456725  74.2150354   0.6375724  21.9053721  74.8623991   0.1029413
  20.9080863  73.7273121   0.0135869  51.0162067   8.8311297  39.6232128
  51.7373323   9.1777575  40.1486254  50.9825420   9.4025981  38.8560605
  60.3308344   0.3764667  56.8783951  60.2785206   0.1285502  55.9553385
  60.4931784  -0.4469299  57.3387146  41.5968990  45.2402830  27.4934077
  41.5594292  44.4586325  26.9421816  42.5050068  45.5358410  27.4284792
  50.4150105  66.1866045   5.0690991  50.8398151  65.3877163   5.3814274
  50.0599003  66.5936804   5.8592987  62.2124767  37.8706479  13.0097139
  63.0756092  37.5331664  13.2491755  62.3661804  38.7906885  12.7949309
   2.9631910  66.0355377  24.1516614   2.4063188  65.7519341  23.4266138
   3.3042568  66.8855333  23.8734293  16.8235350  11.6694963  18.3604217
  16.6298854  10.9134305  18.9145827  17.0989668  12.3513150  18.9731967
  77.1913815  10.7706964  29.8769760  77.7471590  10.7879698  30.6561041
  76.7077208  11.5960753  29.9094367  43.2369566  71.5355349  36.8926644
  43.6525440  71.1751890  36.1092925  43.2686806  70.8222866  37.5302410
  28.6267972   6.2971842  14.7810590  29.1585541   6.4644402  14.0029252
  28.3515096   5.3848135  14.6914554  30.3892756  73.6859035  38.1492448
  29.9346685  74.4561815  38.4901738  31.1936498  74.0334988  37.7640247
  83.2557869   5.8146298  31.3661671  83.7114429   5.3753692  30.6480765
  82.3433495   5.8577186  31.0800934   8.1564504   7.1017969  60.1438618
   8.1271309   6.1868227  59.8642302   7.4542028   7.1774250  60.7898951
  75.4844427  71.2640476  36.3220692  74.8484230  70.6748724  36.7277622
  76.0560036  71.5317059  37.0417261  66.5387249  17.3822832  45.2843380
  66.2265635  18.2065523  45.6576586  65.9681273  16.7152011  45.6659842
  68.3703852  46.3592911   4.1207883  68.8284111  46.7600060   3.3819574
  68.1964397  47.0869160   4.7178933  33.7127090  79.0628195  27.5931430
  32.8794551  79.2065096  28.0417800  33.9076900  78.1373739  27.7406693
  48.3588123  72.7574253  24.2730260  48.9327192  73.4103346  23.8723159
  48.5407925  71.9506121  23.7911892  24.0055799  73.9840937  50.9476423
  23.6202979  73.9025736  51.8200779  23.2633281  74.1779757  50.3751898
  21.6290998  10.4584265  33.0779791  20.9391809  10.8952868  33.5773754
  22.4265075  10.9391177  33.3000326  45.8150816  49.7190142  21.2481642
  45.4762459  50.4097605  20.6787038  46.6458464  50.0641918  21.5751386
  74.0782928   2.3845570  44.6525860  73.7548351   2.7415097  43.8254261
  74.7235298   3.0243462  44.9535322  69.4724178  63.0790997  46.3082504
  69.2152405  63.3341789  47.1942711  69.4271183  63.8906431  45.8027077
  57.5531769  53.8900900  67.8866053  57.1351099  53.8574696  68.7470675
  57.9152012  54.7743511  67.8295851  17.8937781   9.0045434  55.8570910
  17.5324512   9.3094957  56.6893625  17.1601641   9.0557408  55.2443743
   5.9261280   0.8363279  40.6686258   5.2903354   1.2471642  41.2544680
   5.5995703   1.0268818  39.7892618  37.3804283  20.7779908  20.5943799
  38.2009840  20.8360672  20.1049423  37.6027751  20.2712941  21.3754392
  47.3323822  75.4848480  41.8693066  47.5540495  74.5536995  41.8620110
  47.0252562  75.6509686  42.7605438  44.2403507   7.3450148  31.5618753
  44.8736095   8.0381608  31.7483258  44.0578175   7.4326754  30.6263399
  57.3667336  73.3969975  62.7969980  56.7814827  73.8596916  63.3966875
  57.4949598  74.0061378  62.0698547  66.6914415  23.4935308  35.4411912
  67.0456934  23.7353826  36.2969041  65.7958794  23.2095051  35.6242990
   4.3194994  33.1200552  58.7083197   4.4582275  34.0599394  58.8249683
   3.3683407  33.0219340  58.6647224  51.3111401  67.8196239  45.0363827
  51.5307045  67.2158861  44.3267870  50.8215857  67.2858095  45.6621695
  22.7693987  67.7582073  53.9857531  22.9841328  67.3282146  54.8135328
  23.6182690  67.9335022  53.5796452  36.9230866  57.4545193  27.3685479
  37.0722318  58.3362389  27.7099538  37.4811602  57.4004936  26.5927482
   9.9028343  26.7907858   7.8590959   9.4631261  27.6403856   7.8917772
  10.5426610  26.8792558   7.1526772   1.9260289  76.8509865   0.5830142
   1.2477730  76.2928009   0.9633161   2.6707327  76.2649298   0.4481516
  16.5717590  47.5250912  32.0497751  15.7380331  47.9936266  32.0899010
  17.2308266  48.1920719  32.2421312  78.3328295  46.1355686  13.3841467
  77.7035141  46.2067842  14.1018665  79.0921259  45.7018805  13.7735212
  71.0098124   3.7471521  47.4539948  70.5835867   4.4828665  47.0143509
  71.9422960   3.9620483  47.4310541  47.9641390  38.3275771   5.1767391
  48.0685616  39.1093397   4.6343616  47.2557449  37.8385186   4.7581363
  43.5555124  73.9997244  23.2422471  43.5038519  74.3133688  22.3393679
  44.4627571  74.1620779  23.5006595  56.6247988  50.2974319  13.8205850
  55.9283304  50.9463787  13.7204397  57.3128033  50.7568359  14.3020689
  57.4296570  68.1660032  33.7166858  57.2587538  67.2254848  33.6671829
  58.1904936  68.2411957  34.2926264  38.3341980  19.6172535  22.7806115
  38.2451224  20.1285934  23.5848689  37.5566173  19.0592849  22.7641845
  69.9351406   0.3281971  29.6093702  69.1284084   0.8328898  29.7128057
  69.6385527  -0.5557899  29.3929553   5.2605999  39.6269298   5.3881174
   5.0268030  39.0848875   6.1416161   6.2163293  39.5878386   5.3522807
   6.2453407  12.1690536   9.4105339   5.5064917  12.1622407   8.8020205
   6.4715821  11.2457895   9.5229268  74.6174049  12.9052496  11.4476800
  75.2098370  13.1599021  12.1550739  74.5962429  11.9490325  11.4855349
  62.7080917  70.6405735  34.8456597  63.1639719  69.8438263  35.1169443
  62.0334578  70.3357172  34.2388964  66.3029623  63.1982374  50.9814453
  65.3866243  62.9694748  51.1370707  66.4284277  64.0203142  51.4554501
  23.5514927  30.7322979  36.7162490  23.9072943  30.7894182  35.8294702
  23.1827331  29.8506212  36.7700315  13.0800176  23.9630246  49.8890066
  12.9802406  23.6783600  50.7974339  12.3323762  23.5762310  49.4333124
  20.2727389  53.2984972   6.2010598  20.2811837  52.8378344   7.0400786
  20.4134607  52.6117182   5.5493206  22.1055174  34.2381191  67.6488876
  21.2203360  34.2961311  67.2892809  22.3274875  35.1387095  67.8853178
  73.7781477  31.1792946  19.3229747  73.1745815  31.5792704  19.9490428
  73.2795525  30.4597616  18.9357972  58.9903641  78.3181238  53.3236885
  58.2439137  78.2330799  52.7305508  59.6711969  78.7329054  52.7939224
  70.7447147  73.9256573  28.6093330  69.8251963  74.1292572  28.4382772
  70.7512712  73.5787392  29.5014310  21.6096027   0.4133192  53.5442924
  21.4588316   0.9657065  54.3113470  21.1992605  -0.4224047  53.7665939
  55.7601547  10.1122499   8.3600098  55.2164268  10.5821180   7.7277017
  56.4874315   9.7681195   7.8414726  37.5214744   9.9200100   7.0350969
  37.6202965   9.6589905   6.1194909  38.0051875   9.2563838   7.5268823
  11.7311013  30.4664612  37.9850841  11.2835610  29.9934793  37.2834945
  12.3531449  31.0353255  37.5315571  40.9854507   0.1107523  45.5701494
  40.6219673   0.5307839  44.7906065  40.7801390   0.7135622  46.2847805
  81.3621330  27.2067046  40.9185600  81.6911125  27.3569345  41.8048048
  81.9724083  26.5734529  40.5406809  31.7760825  26.4649963  29.9536681
  32.5687456  26.6911793  30.4402471  31.9172168  26.8331575  29.0814471
  77.5497007  15.6167996  38.9052796  77.4286985  16.4503241  39.3600607
  76.7856407  15.0959253  39.1525316  12.4599957  10.7472825  50.6237888
  13.2500637  10.2070522  50.6369877  12.6318669  11.4386368  51.2631035
  35.1024222  11.9359064  46.1785030  34.7637296  11.9186771  45.2833939
  35.0446987  12.8552318  46.4387751  68.6381721   3.4379059  43.3457756
  69.5381165   3.1285399  43.2426834  68.3060980   2.9597655  44.1056061
  76.4595652  19.4999158  65.3150845  76.3331652  20.4399967  65.4435396
  76.9487906  19.4338775  64.4950056  10.5440438  30.7731247  52.4554205
  10.2594864  30.2918410  53.2323503   9.7505164  31.2023926  52.1356153
  25.3194046  61.4670134  45.8539391  25.8032870  62.1897936  46.2535334
  25.7164145  60.6789637  46.2248707  25.3200674   8.1226969  23.2865620
  24.4587851   8.2050985  22.8771305  25.9366250   8.3812857  22.6015639
  15.7704425  18.6039507  32.1705770  15.5141950  18.0867434  32.9341626
  16.6942215  18.3919346  32.0367336   1.4168477   0.3297101  56.8100119
   1.7443547  -0.5413116  57.0342731   1.0655505   0.2329380  55.9248829
  27.6216197  26.0174942  49.3759108  27.3868108  26.0060978  48.4480286
  26.7944908  25.8687520  49.8341322  69.7743607  11.2878287  21.7645073
  70.6276560  11.5766191  21.4409065  69.4880962  11.9918561  22.3464251
  64.8063898  74.9701834  44.2733908  63.9742708  75.1689005  43.8440561
  64.8136425  74.0162277  44.3517828  60.4185867   2.0595689  16.9479930
  61.3340235   1.8030348  16.8366528  60.1753855   1.7128369  17.8064013
  74.8874235  20.8843780  34.1639256  74.4576597  21.5210414  33.5927916
  75.6150293  20.5468202  33.6415482  65.2357912  70.4598475  25.4752350
  65.1515341  69.5127487  25.3650641  65.7594633  70.7425404  24.7255111
  51.9765520   5.1990348  66.6187382  51.4036179   4.7621047  67.2488785
  52.7232933   4.6077576  66.5238810  43.3015871  31.0990381  65.5844498
  43.4723949  32.0339847  65.4707193  42.4035215  31.0578752  65.9131050
  19.6496236   4.7268784  32.9932570  19.8880637   5.4870176  33.5238862
  19.5798552   5.0692433  32.1021056  61.2823582   5.1506317  45.8200836
  61.7916727   4.3799669  46.0708904  61.7746449   5.5378932  45.0962639
  63.5760260  10.1601803  44.7199011  63.0844069  10.7749844  44.1753292
  63.0771303   9.3447572  44.6706867  28.7085485  13.3849669  16.3590682
  29.4174671  13.4707952  15.7216513  28.1010437  14.0909147  16.1381447
  75.5756378  10.8065569  36.7826152  74.9349451  10.6020534  37.4637318
  75.1255083  11.4264405  36.2087202  75.1946020  51.6178513   6.5363300
  74.8284054  50.8219290   6.9218701  76.1328745  51.5618563   6.7172843
  35.6592107   8.8135630  27.5766110  35.9478712   9.4050688  28.2716155
  34.8828721   8.3835077  27.9351950   6.5842903  21.9775033  37.7483988
   5.9315723  21.2786770  37.7912164   7.2878844  21.6153955  37.2098207
  48.6446047  71.3262796  21.8086863  49.3545532  70.9021616  22.2906899
  49.0351582  71.5653038  20.9681106  75.9281826  35.7747436  61.2764263
  76.2139368  35.8439565  60.3655005  75.0296068  36.1045432  61.2712812
  19.0298426  22.2655392  33.6738396  19.1044295  21.3115883  33.6483645
  19.0258503  22.4806476  34.6065474  38.6044955  26.8565321  62.6166058
  38.5643959  25.9336996  62.8676081  38.0641818  26.9141078  61.8285799
  81.8018246  23.1313062  48.9386654  81.9134808  22.3998833  48.3313942
  82.5852203  23.6671853  48.8148069   5.2212340  25.3856397  53.1089926
   5.8293116  24.9753857  53.7239456   5.6305289  25.2664709  52.2519588
  18.1853688  74.8091125  32.2894835  18.6188602  74.1212082  32.7945685
  17.5203681  75.1587820  32.8825569  81.9277668  31.5906620  21.2046266
  81.8690681  31.7346382  22.1491146  82.0806503  32.4617982  20.8385968
  36.0530782  21.0288429  57.0749474  36.8433571  20.8717394  56.5582180
  35.4598522  21.4798856  56.4742184  62.0971537   5.6339562  56.2375164
  62.9896736   5.8863795  56.0010481  62.1508455   5.4051125  57.1654081
   7.3785639  32.9340625  57.8350019   8.2342422  32.7983880  57.4280119
   7.1804029  33.8566065  57.6741409  43.8466263  69.0698719  20.5238986
  43.7121248  69.4781637  19.6686566  44.0798044  69.7962332  21.1020541
  30.8282757  19.6519244  15.6642842  30.6001520  20.5338860  15.9581149
  31.6709638  19.4711959  16.0807490  57.4615955  62.4708176   5.6639791
  57.6206875  63.1754875   5.0359964  57.4159956  62.9117918   6.5123272
  62.8657913  56.9812346  45.1111221  63.2514286  57.0690536  45.9827900
  63.4402657  57.4937534  44.5423174  19.2935503  60.0073004  45.6109810
  18.9736187  60.7648659  46.1008501  19.6677387  59.4314957  46.2778091
  32.6813197  75.8924627  53.2864475  33.0065203  75.1120567  53.7352705
  33.0671096  76.6240835  53.7682438  13.1250548  20.6490564  54.4959641
  12.4584162  20.5372667  55.1737022  13.5095525  19.7786260  54.3923187
  58.1347990  68.1199932  46.2847042  57.1805096  68.0531693  46.3177490
  58.3457661  68.8349962  46.8851185  61.9913530   4.2700091   7.1902049
  61.5009975   5.0918567   7.1714002  61.9172955   3.9264947   6.2998420
  75.0861502  72.3998976  40.1407957  74.2248631  72.8001642  40.0216484
  75.0026035  71.8865585  40.9443712   9.0872473  34.3623018  54.9319506
   9.3366843  34.1578722  54.0307140   9.0576446  33.5122299  55.3709650
  39.2658305  75.9121990  33.1475687  38.5527897  75.8304214  32.5142288
  38.8287711  75.9332323  33.9989018  40.3740788  53.2626295   0.9167702
  40.2834225  54.2132473   0.8508834  39.4742918  52.9362154   0.9248853
  35.6502724  25.9821725  49.8812246  35.7520890  25.9931135  48.9295197
  36.2967730  25.3445005  50.1839542  30.0222993  38.9635324  25.6701016
  30.5104995  38.7077498  24.8874974  30.5135226  38.5779047  26.3955140
  73.4759665   5.6774426  36.7722964  73.2508373   5.2212715  37.5831318
  74.0380955   6.3999128  37.0520854   8.5814422  50.8070230  20.1094770
   7.6786363  51.1214399  20.0613618   8.6831760  50.2516937  19.3365014
  24.5092607  75.8529091  29.6135211  23.6454177  75.6881666  29.9914956
  24.5416999  76.8021679  29.4948506  13.4894335   9.2953008  61.9453049
  13.3951879   8.5910791  62.5867271  13.7453508  10.0584388  62.4633408
   2.5628588   8.0727196  42.6402760   2.8179583   8.9867139  42.7658558
   3.2211125   7.7204728  42.0412302  18.6527407  43.6486387  67.6882696
  17.8791761  43.2565260  68.0933285  19.1314983  42.9068279  67.3184824
  73.4365225  24.1885638  20.9538436  73.5713005  25.1037025  20.7076955
  73.8026810  23.6880040  20.2247357  14.4410288  30.5141115  52.4695158
  14.1585183  30.0295663  53.2451677  14.1260123  29.9909759  51.7324114
   7.3390234  12.2385907  51.9049454   7.6833564  12.2687721  52.7975607
   8.1134212  12.3105013  51.3469410   7.0909125   9.3868011  32.8132820
   6.4633334   9.9928260  33.2071233   7.0388204   8.6009812  33.3573461
  64.7898388  53.3697796   7.7337670  65.2951288  53.0591154   8.4850335
  65.3015757  54.1003895   7.3865390  79.3191433   3.5583779  59.2391491
  79.3173218   4.4703516  59.5298958  80.1107979   3.1850407  59.6266270
  63.1184292  38.5985255  58.6783123  62.6120949  38.6097693  59.4905472
  63.8106108  39.2446184  58.8186026  55.8748913   0.4278509  57.9536152
  55.8621550   0.5762723  58.8991547  55.4386377   1.1958548  57.5847197
  14.7578311  27.1773338  31.6941714  15.2912450  26.8073940  32.3976254
  14.1425443  27.7589488  32.1406889   7.0968002  23.5743785  63.8645029
   7.7119678  24.3077278  63.8642931   7.0611352  23.2919335  64.7783852
  64.8844147  49.4977283  44.7338963  63.9957666  49.8489618  44.7901773
  65.1214647  49.5925713  43.8113737   6.0078603  73.9866924  34.6779299
   6.6824675  74.0361595  34.0006638   6.0035372  73.0675173  34.9449968
  78.8841724  37.1208096  24.1660094  78.3724737  36.4021039  23.7947154
  79.7901917  36.9125199  23.9380264  24.1522169  10.1165211  39.1424155
  25.0512147   9.9758470  38.8453603  23.9715433  11.0329843  38.9334083
  73.7868786  16.4303482  59.8261118  74.3748665  17.0285869  59.3650150
  73.1857300  17.0041049  60.3011465  23.0046487  47.4243402  33.9350915
  23.4677243  48.1880379  34.2794204  22.8289843  47.6432610  33.0199695
  72.5994873  10.5503619  40.0650978  72.0839357  11.1352944  39.5098519
  72.0190287  10.3415930  40.7970238  16.1312938  11.2628841  53.1740808
  15.6865001  10.7585466  53.8552809  16.1042297  10.6981182  52.4017191
  -0.2166938  35.6632543  24.5261908   0.6584473  35.9464407  24.2613053
  -0.1394916  34.7151923  24.6332026  70.0119972  27.0585418  27.8712130
  70.1189041  27.1189833  26.9219232  69.0966225  27.2926521  28.0245376
  75.4411030  42.2106552  57.1081114  75.3445816  41.6711044  57.8928375
  76.3669109  42.1342468  56.8772936  44.1645908  75.5856419  55.1961327
  43.5598516  76.2665129  54.9012661  44.1390085  74.9260187  54.5029688
  44.6648407  27.1766853  63.6384535  45.5796766  26.9742346  63.8342190
  44.1768074  26.8226957  64.3819237  41.6552877  22.1548772  61.1301422
  41.3687086  22.2576118  60.2226448  42.2015285  21.3688922  61.1212969
  72.2211885  61.3752174  30.4022813  73.1117916  61.7016554  30.2738619
  71.6598558  62.1210909  30.1905990   4.8521206   5.3447032  38.4667134
   3.9552161   5.6640893  38.5656404   5.1765448   5.2602333  39.3632865
  11.0043633  67.6146412   5.2483141  10.2152884  67.4974871   5.7773399
  11.3368177  68.4757948   5.5015296  75.6863070  18.8551486  18.6032999
  75.3562355  17.9574871  18.6418664  76.0563755  19.0117955  19.4720590
  26.8348718  17.8403401  36.2594891  25.9511852  17.9049802  36.6216421
  27.3139668  18.5620856  36.6666555  14.2580307  30.2904725  44.0174723
  13.4665775  30.6045055  43.5801888  14.9764240  30.6143498  43.4741068
   0.8042739  48.0710793  39.9258137   0.1586600  48.4369802  40.5304050
   1.1659683  47.3160219  40.3898096  41.7443657   9.5193052  66.3018036
  41.6819620   8.5683876  66.2118387  42.6420784   9.7260821  66.0418272
  15.7277668   6.0303575  60.9026146  14.8205090   5.8865595  61.1717558
  15.7523501   5.7545966  59.9863291   3.7165517   2.8081521  40.0893116
   3.6886829   2.1847901  39.3634510   2.8921917   2.6697317  40.5556822
  16.2700355  68.8841009  48.9688110  16.4226878  69.8193359  48.8336515
  16.8389177  68.6521959  49.7028589   1.1133221  41.0356045  60.3534794
   1.4260723  40.1522255  60.1583910   0.5735080  41.2706900  59.5987844
  51.0282516   6.2661260   4.0735051  51.7886400   6.8224663   4.2424062
  50.4881573   6.3537830   4.8589006  11.0002625  72.0836401  54.9824810
  11.1419845  71.3315105  55.5573273  11.3636744  72.8259563  55.4653120
  40.8515739  22.5536752  35.9483457  40.3882504  21.8545008  35.4871297
  40.7201099  22.3568726  36.8758273  80.1333427  50.7777739  54.2811155
  79.1844606  50.8311033  54.1670704  80.3311348  49.8440027  54.2091227
  38.8449240  33.0575252  23.6118650  39.7005081  32.8355908  23.2445049
  38.7708592  32.5105500  24.3938899   9.3853509  18.2577634  35.9720254
  10.1277709  18.0306876  36.5319180   9.0102518  17.4145663  35.7179594
   0.2818709  30.1906443  24.8574448   1.1552720  29.8083282  24.9425173
  -0.1740247  29.9266505  25.6566310  23.0144048   5.6725830  11.0904253
  22.6882696   5.8986104  11.9615054  23.6808634   6.3341832  10.9050858
  40.1795864  20.9742117  19.7329843  40.7056475  20.9866071  20.5325723
  40.8217001  20.9964538  19.0234590  45.9493828  31.0114932  65.0050402
  45.0509501  30.7663631  65.2263165  46.4680338  30.2346516  65.2142143
  74.8332739  11.0065961  41.8444061  74.6972466  11.6395950  42.5494194
  74.0426207  11.0711122  41.3087416  39.3650103  51.3106728  14.1014814
  38.6300397  51.9202852  14.1679859  40.1425648  51.8638659  14.1764414
  22.7754068   9.9213260  49.5014191  22.5652337   9.0482116  49.8326731
  23.4357905  10.2552783  50.1085424  82.0773602  55.8306122  58.5742426
  82.4205685  55.1366425  58.0113459  82.8392410  56.1407471  59.0637159
   3.4113392  24.0549660  49.6497440   4.2464766  23.6509132  49.4141197
   3.3076882  23.8644576  50.5820513  45.5054140  28.7010622  50.6591177
  45.7073355  28.6926866  51.5947390  46.3272619  28.9545965  50.2389812
  12.7315557  16.6659379  24.2336559  13.5079622  17.1346402  23.9274812
  12.9695463  16.3525677  25.1062322  71.1430359  71.3602304  37.4941778
  71.6614866  70.5576515  37.5516319  71.0122013  71.4941740  36.5554690
  22.0292926  68.7045288   0.6091182  22.0228219  68.2622623  -0.2397569
  21.2169981  68.4247303   1.0311629  40.1370573  22.9429650  24.6220636
  40.9874630  22.5089836  24.6906495  40.0391483  23.4104729  25.4515696
  15.3021240  43.3225441  38.9351106  15.5522382  42.7332258  39.6467137
  15.5827713  44.1883993  39.2313600  14.5374537   7.2894555  51.3873482
  14.1169751   6.9586200  50.5936384  14.8995066   8.1376094  51.1308670
  63.5773945  62.8133488  -0.1325093  62.6786709  62.7835035   0.1955736
  64.0845633  63.1807089   0.5914093   1.7893480  13.4675872  55.2695370
   0.9865438  13.7331808  55.7180882   2.0456176  12.6519680  55.7000303
  68.7789536  14.0769923  38.4780121  68.1711674  13.3428192  38.5664439
  68.4451056  14.5758271  37.7323961   6.1617845  51.2460041  17.2079277
   6.4770401  51.6329288  16.3911438   6.4913386  51.8288898  17.8919363
  72.9528522  64.9623489  31.7749858  72.2254229  65.2608013  31.2290883
  72.6175499  64.1809559  32.2145581  82.0037842  17.5542116  35.6346846
  82.0782661  16.8735993  34.9657655  82.4084187  18.3255088  35.2376890
  79.3527079  18.8832617  40.2670574  79.6261740  18.1005383  40.7453823
  79.8970413  18.8851905  39.4797039  29.7822809  20.4032540  39.3610692
  30.6586576  20.1732469  39.6697664  29.8965168  21.2461829  38.9221454
  42.1554089   5.5943602  26.7460680  42.7865219   5.3889632  27.4358082
  42.6574993   5.5262178  25.9339762  22.4534917  44.3484449  29.5583320
  22.9581404  44.0546799  28.7998700  22.9937387  45.0315523  29.9554801
  25.8577871  25.2818584  24.0279365  25.0586510  24.8318624  23.7538648
  25.9617138  25.9923077  23.3949304  82.3596096  23.3695531   5.3806925
  82.0726109  22.6284480   4.8471892  83.1712055  23.6627769   4.9664906
  69.3713570  32.5930953  40.8995533  68.5260677  32.2011352  41.1188316
  69.7409630  32.0099902  40.2365208   9.9198794  51.9996977  26.8833947
   9.8298204  52.7319527  26.2735391   9.1574311  52.0711231  27.4576783
  17.7473104   8.5122472  34.2867613  17.4771345   7.6989901  33.8603234
  17.6212120   9.1862476  33.6188865   9.4455302  18.0056834  56.0992670
   9.1493773  17.1094918  56.2585354   8.6385292  18.5153997  56.0273647
  25.1940942  26.4292884  39.6563482  25.3055549  27.1118617  38.9946055
  25.9969330  26.4663601  40.1762581  44.4958210  56.1359024  30.8085227
  45.0372744  55.7966375  30.0958085  45.1217365  56.3732433  31.4927244
  30.4629159  37.6750326  57.2704554  30.1176476  38.5243630  57.5455141
  29.6854210  37.1540785  57.0696163  17.7342033  21.7623663  18.3975434
  17.8058803  22.3851442  17.6741910  17.4387705  22.2900319  19.1395128
   5.0829256  18.6428440  46.3931179   6.0272104  18.7021565  46.5381718
   4.9944252  18.4853446  45.4531193   6.3778377  17.8367722  20.2884269
   6.8985385  17.3741353  19.6318674   5.4752219  17.5757742  20.1056790
  17.2197115  50.0357056  64.8792934  17.2949123  50.9083462  65.2653980
  17.6823103  49.4626093  65.4906797  67.2909737  53.9644670  67.8679752
  67.7346563  54.1170788  67.0336580  66.4545965  53.5671949  67.6253223
  38.3949447   4.9580488  57.0521069  38.1569576   5.8641392  56.8556499
  37.6829410   4.4374102  56.6803312  30.2301955  18.7208319  60.7966471
  30.3231168  17.9142654  61.3036442  30.7885623  19.3534708  61.2485600
  83.0371380  24.2627454  67.2905445  83.1244564  24.2682076  68.2437372
  83.4270191  25.0905585  67.0095634  12.1539879  41.0274029  24.8780084
  11.7676222  41.1473465  24.0105033  11.5206003  40.4864120  25.3495812
  42.9846048  24.6600604  40.5758762  42.5216007  25.4880428  40.4481840
  42.2983217  23.9937878  40.5394888  27.4750733  40.8491087  30.9482670
  27.2167349  39.9775386  30.6485009  26.6474390  41.3077974  31.0926843
  10.9949017  70.1556349  44.8174429  10.2536857  70.7319593  45.0036669
  11.6484582  70.7281590  44.4158077  65.7679224  74.8587894  37.2913957
  66.1355448  74.3308592  38.0001831  64.8343182  74.6475935  37.2948647
  27.2196984  50.2545929   6.9725478  27.9003930  49.6940613   7.3449624
  26.9893646  50.8549643   7.6815820  36.4421272  74.5591450  41.1174726
  36.4359069  75.4737806  41.3996553  37.3680544  74.3165398  41.1117887
  74.9828959  76.2018776  31.1515045  74.8324108  76.7130852  31.9466496
  75.8632088  76.4507246  30.8697963  30.5772066  58.7748575   2.3380849
  29.8763442  59.0889978   2.9093489  31.1899972  59.5082951   2.2852579
  33.8067460  62.9241085  19.8112082  34.2279124  62.5742102  20.5963326
  34.4537210  63.5235596  19.4392979  36.7256260  68.3721876  44.4338417
  37.6445341  68.1237316  44.5343781  36.6327262  68.5746527  43.5029221
  63.5623646  28.6003494  32.1521378  62.8650379  29.1913462  32.4361944
  63.7201071  28.0350900  32.9083347  58.3935452  39.6790886  39.9457788
  57.6665497  39.4792628  39.3560505  58.8532305  40.4040146  39.5222163
  24.6091080  26.4585066  50.0571918  24.1788816  26.5897512  50.9021282
  24.7475886  27.3431802  49.7189522  28.8737941  30.6962943  36.3322330
  29.1983914  30.9695935  35.4742265  29.5594072  30.1238775  36.6764832
  17.1311593  34.8635006  42.5118971  16.5260375  34.2646408  42.0743752
  17.7929378  35.0616980  41.8493271   5.1393819  37.7386689  43.6814499
   5.5295783  38.2897425  44.3598986   4.2183101  37.9984546  43.6622524
  28.1789970  32.9395914  43.0464125  28.5892487  33.7619543  43.3140755
  27.4202323  33.2079816  42.5282621  14.2896199  14.0347767  45.7186413
  13.9097571  14.9056923  45.8345747  14.8711097  13.9250076  46.4710045
  16.2829137  39.6222115  57.3788118  16.9563365  39.7055697  58.0539322
  15.4751217  39.4577694  57.8652906  17.6784718  48.4490395  40.5306339
  17.3262036  47.7570963  39.9708509  17.6638246  49.2325258  39.9809408
  23.4316778  12.5801897  33.0571103  23.6123085  13.5157311  33.1485796
  24.1563392  12.2469604  32.5279045  72.5996637   7.2101903  48.0946827
  72.9219580   6.5035218  48.6541271  73.2347631   7.9167539  48.2115030
  21.6200161  44.8738337  10.1621997  21.0337973  45.0404263  10.9003246
  21.1885381  45.2887535   9.4152737  19.9399149  45.8471775  38.0150986
  20.3957629  46.6204357  38.3475256  20.3061724  45.7103920  37.1413827
  51.9711542  54.7693920  35.8023977  51.5142059  54.8254824  34.9631810
  52.4359798  55.6027126  35.8781838  25.7404065  30.4541993  41.8916893
  26.1728525  31.2990880  42.0157242  26.2604809  30.0154948  41.2184191
   3.9755386  31.9167852  50.5828094   4.4484270  31.4543366  51.2747288
   4.3571484  32.7946091  50.5773592  25.9003448  37.7159238   6.0221684
  24.9606538  37.6819539   6.2012208  25.9599376  37.9855061   5.1056504
  48.7107372  12.4021280  67.1859550  48.7501097  13.3538103  67.0911789
  48.7978172  12.2513604  68.1271839  29.3235517  10.6627512  12.9824269
  28.6008835  10.1717985  13.3735096  29.0804243  10.7536864  12.0610952
  21.3449574   1.2313145  22.6456046  21.1957979   0.7853529  23.4793305
  22.2386479   0.9904061  22.4016476  81.3577080  57.1512127  14.5073569
  81.8009663  56.3853073  14.1424692  80.8462048  57.5018835  13.7782311
  13.7288892  10.2780557  47.9731417  13.1678843  10.1004422  47.2181845
  13.1441391  10.6769264  48.6175013  54.9004078  66.5657854  60.7199144
  55.5989361  65.9153128  60.7919168  55.2265596  67.3224163  61.2071133
  34.2486954  26.4106560  15.9212923  34.0469074  27.1152067  15.3055620
  33.4631991  26.3335776  16.4628530   1.9278209  19.4581473  46.6227245
   2.8617188  19.5739663  46.7978048   1.6239713  18.8759887  47.3191452
  10.5144274  48.2326317  45.1297998  10.8479929  47.6265001  45.7912874
   9.9498385  47.6945591  44.5748711  69.6965075  17.3885918  34.0366077
  70.5136919  16.9162869  34.1958880  69.6464491  18.0272448  34.7478390
  38.2064700  12.4519598  54.4192219  38.1330967  12.8179908  55.3006220
  37.9465556  13.1683135  53.8399839  10.7839727  46.5435457  17.9276049
  10.3014088  46.1310577  17.2112107  11.6361988  46.7596531  17.5491333
  31.2202191   8.9327371  49.7876453  31.9556761   9.4728559  50.0767946
  31.0590577   8.3363187  50.5187702  17.8003716  31.4205647  46.7206144
  17.1617150  30.7705092  47.0134974  17.9051101  31.2487197  45.7848120
   8.9119160  54.5429325  42.9870558   9.8490351  54.5151520  42.7940035
   8.7983817  53.9282370  43.7119627  10.2976537  34.7392774  35.3609300
   9.9228895  35.5712128  35.6501865  11.2214029  34.9345636  35.2035046
   6.5819079  31.3260818  52.2931290   6.6083419  31.6271138  53.2013750
   6.4253557  30.3839684  52.3575211  27.9202294  24.8580408  37.7783871
  28.0694389  25.7952356  37.9034162  27.3010278  24.8091602  37.0500827
  25.6738782   9.2942280  58.2728958  25.7729006   8.8580334  59.1191578
  25.1119757  10.0472367  58.4558582   5.6466967  15.4399383  30.8459926
   6.3795221  14.8603582  31.0540438   5.0351411  15.3232348  31.5730500
  44.6798372  20.7626081  58.4442425  43.7637329  20.9250736  58.6691666
  45.1668358  21.0087776  59.2306662  10.8362615  55.5488110  30.4429770
  11.3614261  54.7493839  30.4061961  10.0328612  55.2871227  30.8927536
  27.6219559  34.8062587  46.3604307  26.9008899  34.7853351  45.7312584
  27.7482486  35.7361341  46.5491533  56.8698645  19.1887069  23.8082695
  56.8210459  18.3866882  24.3284750  56.0077286  19.5922482  23.9088058
  68.5557270  35.5443525  50.5222273  69.4601870  35.7528710  50.7561159
  68.2877302  36.2574315  49.9426365  81.5849781  53.8564539  17.7640736
  80.7724857  53.4336996  17.4859273  81.3527393  54.7797203  17.8634226
  14.1300046  49.4286251  27.0509648  14.4717348  50.2857971  26.7965889
  14.9100816  48.9008284  27.2216702  27.4297476  75.9402657   9.4885713
  26.6600966  76.1505604   8.9597571  27.1968126  76.2220716  10.3731954
  10.2032971  22.0607567  40.3757143  10.9388161  21.8538117  40.9522724
  10.5860233  22.5993848  39.6831584   2.5065023   7.6623362  31.9476604
   2.7814350   8.0226320  31.1045527   1.6095445   7.9766035  32.0613909
   3.5594228  44.8952389  35.8484387   3.6057246  43.9824677  36.1329317
   3.0720508  45.3381824  36.5430593  41.6707277  38.6549807  22.8704357
  42.1794701  38.7834764  22.0698714  41.8017387  37.7330589  23.0920887
  21.5649033   1.2766741  25.5751348  22.1819687   1.2411676  26.3060236
  21.6141081   0.4072816  25.1776838  20.2327609  39.7205520  43.9615679
  20.7934546  39.0405130  43.5882044  20.6025457  39.8864675  44.8287296
  23.2250166  46.7780209  45.8191109  24.0057850  47.2849178  46.0420227
  22.5790381  47.0306587  46.4787483  40.2848768   1.5072580  30.0928426
  40.1638746   2.3566794  29.6684933  41.2161064   1.3150534  29.9828219
  28.9932346  23.0836034  54.3216610  28.9498568  23.4584713  53.4419870
  29.6523476  22.3926592  54.2553377   1.9083010   0.3448026   8.8597268
   1.9740182  -0.5968404   8.7009138   1.4869143   0.4143871   9.7163618
  15.1664352   9.8834157  55.4984140  14.9555910   8.9529777  55.4205561
  14.4029713  10.2666903  55.9302187  17.0239532  53.5563946  59.8511600
  17.8784132  53.9873266  59.8718596  16.4443409  54.1507673  60.3276062
  29.6387434  48.3605385  10.0428641  29.9129868  48.3748865   9.1259032
  30.3397846  48.8153648  10.5096686  49.8546505  24.5050478  41.8348789
  50.3071404  23.7525821  42.2160339  49.0375519  24.1441298  41.4908981
  25.5802751  15.5008256  44.5320034  25.6007957  14.5893991  44.8237419
  26.4353681  15.6414938  44.1254807  13.9847159   9.4717884  31.2695956
  14.1957545   9.8618919  32.1178365  13.7396395  10.2150452  30.7184696
  22.1310019  27.3024249  68.0307436  21.4614177  27.9747295  68.1568241
  22.4746299  27.1389484  68.9090538   6.1678338  35.8568788  47.1825075
   5.6296992  35.0736308  47.0677662   6.6234827  35.9589338  46.3469219
  16.7266345  28.5278606  50.0039053  16.5094709  28.6197329  49.0761995
  15.8792591  28.5246682  50.4490757  72.6231813  57.9327250  65.6627035
  72.4349499  57.0672750  65.2996683  73.1286287  58.3740425  64.9800634
  12.6546228  16.4672422  36.1336184  12.7411914  16.0934448  37.0105529
  12.1433663  15.8206439  35.6470394   9.9410361  49.6632481  68.3830309
   9.3477052  50.4134941  68.3466721   9.7095245  49.1374731  67.6173925
   4.0052199  20.4205656  52.9230547   4.7783631  20.6454158  53.4406662
   3.2866240  20.4161978  53.5553789  13.7475073  16.9552565  55.4373789
  14.4584858  17.1445847  56.0496664  14.1178751  16.3136077  54.8312855
  70.1238537  72.0048094  62.8738832  70.0272131  71.5239811  62.0518780
  70.9013414  71.6252708  63.2833862  82.2435474  31.2986255  45.3579807
  82.4757004  32.0357585  45.9227514  81.9574261  31.7046380  44.5397377
  67.8353786  44.4948816  38.0450630  68.1004000  44.2969894  38.9433050
  66.8797302  44.5359707  38.0808401  76.2449408  31.1087060  17.5737727
  75.9622097  31.1992812  16.6637778  75.4385519  30.9334660  18.0588090
  33.2818794  74.3862343  11.6120470  33.1206465  73.5012770  11.2848020
  34.2315507  74.4926453  11.5569615   7.4864125  62.4467659  56.9512653
   8.0331266  62.7869463  56.2430191   7.0025033  63.2095671  57.2678089
  78.1512308   7.6242733   3.9011398  77.7624178   8.4640700   4.1456699
  78.8725805   7.8556275   3.3160222  12.6646888  51.3305759  51.0351944
  13.0099213  51.8698502  50.3236961  11.7262614  51.5189743  51.0448647
  61.5639734  15.7728326   1.7770755  60.8201218  15.9724963   2.3454501
  61.1670017  15.5046320   0.9483951  -0.0071409  47.7101326  47.0198870
   0.7867167  47.2145224  46.8189049  -0.3320864  47.9981565  46.1668444
  26.7105985  18.1383407  51.6698027  27.5003505  18.6789775  51.6851711
  26.7873573  17.6250196  50.8655357  18.9832532  45.1065636  21.4608049
  19.9132931  44.9336195  21.3146925  18.6872602  45.5239058  20.6518292
  66.1622953  29.1540575  32.2536397  65.2108717  29.1121197  32.1573806
  66.3027239  29.7544479  32.9857898  80.9177971  56.3398314  17.3023021
  81.0694981  56.6270733  16.4019060  80.7871056  57.1508455  17.7936316
  60.0069523  23.8459516  36.1309361  59.4787455  24.4395542  35.5972075
  59.3932581  23.4927869  36.7750502  70.4932785  22.2878695  28.1919932
  71.1795807  21.6426206  28.3619237  70.9594488  23.1211185  28.1240702
  74.1224575  77.0285273   9.9188858  73.9855909  76.1658669   9.5273298
  73.3106565  77.2077417  10.3933275   2.1426666  24.9273348  38.0333400
   2.6421279  25.0991344  37.2350574   1.3364449  24.5122933  37.7267814
  79.9641705  22.2516680  41.4068651  80.0930119  23.0590940  40.9091806
  79.2147636  21.8288398  40.9875298  82.8345776   4.9099609  24.4483590
  82.8558922   4.1821066  25.0696516  83.6454773   5.3906077  24.6146178
  69.5576859  18.0434477  51.2424231  68.8708162  17.7518249  51.8419218
  69.6600580  17.3192060  50.6249857  21.3642621   9.2652661  22.8888130
  21.4455843   8.7441736  22.0900130  21.0684013   8.6419791  23.5522985
   5.2690309  32.9109311  47.5088358   5.2081585  32.0319366  47.1348047
   4.4045350  33.2944441  47.3611975  22.2231317  54.5498562  66.4769840
  23.1714106  54.6609354  66.5452623  22.0985198  53.6050844  66.3869238
  18.7474477  28.5963607  24.3591523  18.6462522  29.5393848  24.2299414
  19.0523732  28.2699704  23.5125589  77.5679016  67.8800535  10.9958041
  78.0425739  67.6304245  10.2029610  77.9458809  67.3322392  11.6837454
  12.3037171   1.7486396  49.4900370  12.1028566   2.6350737  49.1898346
  12.5724041   1.8597412  50.4020119  33.6571193  77.8438139   1.6269003
  34.3835449  77.3146105   1.9562647  33.4392977  77.4517393   0.7812855
  65.8258057  29.2853308  65.8745050  65.1795197  29.1190505  65.1882839
  66.6627121  29.0404344  65.4797363  42.1708441  60.4927826  42.8982258
  41.5250206  59.7904301  42.8218079  41.6509390  61.2792635  43.0636740
   6.7610633  55.2037716   6.9231886   6.4775604  55.5552530   6.0791987
   7.1791345  54.3702126   6.7072570  68.2179356  38.1132555   2.2511645
  67.8233528  38.3153796   1.4028223  67.4797678  38.0943871   2.8602505
  19.7194111  62.1440363  58.0749655  20.2348328  62.8071308  57.6157522
  19.4910955  61.5069628  57.3980236  76.5137386  63.7667513  24.0429187
  76.2505627  64.3682337  24.7394776  76.5926647  62.9173374  24.4770789
   6.0591733  71.3505268  35.3505635   5.5314022  70.6733751  35.7738256
   6.2022263  71.0226440  34.4627237  83.3230972  52.7316856  32.3547292
  83.1677437  53.1590891  31.5124559  82.9131889  53.3114147  32.9966998
  14.8637521  37.4530149  47.9249334  14.5502555  36.5487099  47.9114151
  15.3198624  37.5608945  47.0903301  16.8925858  40.4537582  50.6822395
  16.0462689  40.4047441  51.1267328  17.1101260  39.5437431  50.4803085
  35.3815722  25.3515649  40.3504515  34.5360541  24.9787927  40.1007032
  35.9001184  24.5992708  40.6357574   8.2461005  45.9083557  51.8060446
   8.1338394  45.0656033  52.2458124   8.9742607  45.7676172  51.2008953
  43.3874702  32.1771002  61.9117594  43.1617641  31.4932895  62.5423861
  43.3829165  31.7322493  61.0642195   7.3830408  37.1254730  60.1047611
   7.9148465  36.3643479  59.8721647   7.7539736  37.4331164  60.9318018
  48.0018425   8.3203059  53.8976336  48.2194471   9.1714793  54.2776060
  47.8065872   8.5104930  52.9800606  75.0901318  49.3885660  21.7197227
  75.5323982  50.1380730  22.1183133  75.5075645  49.2915392  20.8638215
  24.8816729  21.9728518  58.5509348  25.5600858  21.7045474  57.9312563
  24.3577623  22.6134825  58.0699539   9.6015561  13.1071281  58.8201857
   9.1687524  12.9659390  57.9781771   9.2924958  12.3885107  59.3718243
  57.6265717  17.8050160  30.2186751  57.0417023  18.5164094  29.9577594
  58.4902143  18.0798531  29.9107504  17.4388075  50.6898689  38.6403823
  16.7468226  50.1082325  38.3256006  17.1015048  51.5714264  38.4812903
  18.6236143   1.6943347  25.1251698  19.2281699   2.0750937  25.7621670
  18.2875419   0.9075864  25.5544877  81.5123653  38.5864353  35.3883433
  82.1857643  38.1775379  34.8446846  81.6394711  39.5264959  35.2604437
  21.6982365  37.4009418  42.9830217  21.7035961  37.0931983  43.8893843
  21.9338202  36.6299891  42.4669170   4.8879436  19.6347320  38.7542462
   4.5928842  18.7384200  38.5936379   4.1110468  20.0874567  39.0824318
  70.7493448  75.9886837  67.6472139  71.1567879  76.5593672  66.9956398
  70.1874161  75.4055262  67.1369219   5.7840794  29.0637136  41.2757254
   6.0116571  28.1924677  40.9511232   5.3924078  28.9045882  42.1345043
  20.7722235   6.5881610  57.2626972  21.1331010   6.0524851  57.9691315
  21.5294480   6.8136442  56.7223215  19.0327132  25.9569240  19.1297925
  19.8726702  26.4116502  19.1924524  19.1957200  25.2353525  18.5223413
  10.0614619  24.5352936  12.6661217  10.4362082  24.6289682  11.7903233
   9.4531870  23.8002515  12.5890005  76.3167381  32.6848316  58.2379198
  75.8877563  33.5288548  58.3787441  75.9624863  32.3720360  57.4055147
  11.3692045  20.2333450  43.2947397  10.4456651  20.0914049  43.0869913
  11.3567197  20.7617307  44.0927887  77.1278763  57.5630379  52.2205877
  77.2745466  57.0715714  53.0287790  76.9058132  58.4465265  52.5144720
   5.3308785  50.6575775  35.8433080   5.0654459  51.5094042  35.4966474
   6.0557830  50.3853273  35.2806139  17.9030216   8.4480649  37.9895210
  16.9917977   8.4311324  38.2821226  18.1709182   9.3611532  38.0931234
  14.4748211   3.2424232  61.1022234  13.5599470   3.3131814  60.8297682
  14.4386017   3.2157186  62.0583677  62.6325178  50.2870846   1.1151710
  62.6612520  49.3903732   1.4488049  63.0139399  50.2290487   0.2391689
   9.4716787  29.0207505  39.5101452   8.9752948  29.7968864  39.7698545
  10.1025391  29.3440628  38.8669372  81.8859386  18.8536370  44.7690535
  81.0330391  19.1669929  45.0700521  82.1879196  19.5282161  44.1607952
  41.7076921  38.1051922  17.9877269  40.8042145  38.2310104  18.2777667
  41.8221951  37.1551108  17.9661000  42.0912409  26.0038829  23.6291647
  42.6226521  26.5182734  24.2368126  42.0204639  25.1433158  24.0422606
  19.0347874  60.0186300  10.0909495  18.8880324  59.1689920  10.5066538
  19.2300057  60.6102896  10.8176291   1.9679834   5.7154691  26.1766052
   2.2112045   4.8359886  26.4657235   2.6798272   5.9817106  25.5946898
  48.5351706  55.8597803  13.4733057  49.4075012  55.8175182  13.8650775
  48.4240580  55.0114965  13.0440009   6.4724547  63.9655542  50.3745031
   6.9729227  63.1540918  50.2891159   7.1371549  64.6516323  50.4353380
  69.4659710   5.0605327  37.5411081  69.1518211   4.1965297  37.2745800
  70.1849079   4.8778510  38.1460810  23.9059114  41.1378813  25.1026058
  24.6147823  41.7201614  24.8293185  23.4350896  41.6322374  25.7735538
   0.5942064  12.3585165  46.6717720   1.0737325  12.7754045  47.3876572
   0.1012825  13.0718529  46.2662983   9.7043514  32.4970675  48.4219933
   9.3992239  32.1877789  47.5690746   8.9617831  32.3531890  49.0086126
  50.1884508  67.6839733  52.1202564  49.5372295  68.3625269  52.2983265
  50.8157825  68.1028175  51.5309715  81.9883823  30.0889230  17.8872859
  82.6749516  29.7204733  18.4432554  82.1848488  29.7559428  17.0116389
  42.1114874  27.3733687  40.1235247  41.5453434  28.0093288  39.6861887
  41.7783594  27.3327780  41.0199642   5.7792896  11.6926992  40.2255297
   5.9206092  12.1959734  41.0273886   4.9757838  12.0559990  39.8532081
  71.6667700  11.8564236  42.9070807  72.3710966  12.3572361  43.3185911
  71.0904551  12.5202894  42.5284290   2.8825730  48.1548214  52.8159523
   2.0804486  47.9015207  53.2727528   3.2792142  47.3251057  52.5504684
  80.1676846  35.8803272  42.7859545  80.6714344  35.1164150  42.5050640
  80.2215767  36.4873910  42.0478487  25.2358818   5.3478521  57.9239702
  24.8282146   5.3927898  58.7888527  25.4296899   4.4189110  57.7985096
  12.4159276  48.9352798  67.1940899  11.7562640  49.1732073  66.5425777
  12.2725904  49.5484161  67.9150248   9.2209339  20.4366493  30.6456709
   8.9560610  19.6028042  31.0339689   9.2120314  20.2750945  29.7022462
  20.5376935  67.4785900  57.5130081  21.0348630  66.9638729  56.8773031
  19.6226275  67.2641420  57.3316336   3.4499428  31.0773945  14.0032244
   4.0838915  31.7909145  14.0755451   2.8116691  31.3882542  13.3611929
  83.4849739  71.4609671  53.1119871  82.5905132  71.1227608  53.1542826
  84.0209770  70.6953955  52.9050207  70.4361725  71.2713051  27.4453521
  70.3272676  71.7562342  26.6272926  69.7305918  71.5898037  28.0083299
  34.7486281  75.8098793  34.3527317  34.5114207  74.9277449  34.0667224
  35.3434920  76.1297274  33.6744523  40.0795889  43.5859013  41.8709040
  40.3618002  43.3344460  42.7503109  40.6086445  44.3553400  41.6604328
  29.7852230  65.4143524  33.8499165  30.4455733  65.9833622  33.4544420
  29.1283107  66.0165834  34.1992259   5.2433187  46.9048548  39.5476937
   5.1124495  45.9673595  39.4055510   5.5008680  47.2434568  38.6902285
  31.7458844  26.8503189  40.6594324  32.2711372  27.1960044  39.9377370
  31.0977817  27.5331450  40.8324766  68.7706137  67.4459839   7.0345026
  68.2616329  68.0839014   7.5347352  68.1340551  66.7776632   6.7807782
  37.8438163  50.2797031  31.5607786  38.0872917  49.3871737  31.3151217
  38.6617613  50.6776714  31.8588018  57.9247284   1.4460926  50.7597065
  57.7757549   1.1799850  51.6670227  58.6102104   0.8559650  50.4465008
  32.0006275  77.0812798  44.5085716  32.2727513  77.5770235  43.7362909
  32.0026541  76.1685419  44.2202425   7.1871758  41.3346958  47.4560404
   7.0787609  41.7776871  48.2976055   7.8862888  40.6988716  47.6083755
  18.8104916  57.8786087  11.5262556  19.5848763  57.3698664  11.7665589
  18.1739295  57.6853943  12.2145057   4.7224769  26.3951230  27.7116489
   5.3230613  27.0155692  28.1246591   4.8228440  25.5901861  28.2198167
  74.0630817  25.5442929  44.7059488  73.2504082  26.0494423  44.7307730
  73.7786818  24.6391392  44.5792675  11.2685156  11.2907434  54.7967863
  11.3071764  11.6744637  53.9207172  11.0125697  10.3804028  54.6484518
  25.6950712  44.2986202  61.4488411  24.8432684  44.3301821  61.8843508
  25.6706882  45.0218821  60.8223200  40.0345659  63.4431791  38.8413000
  40.7223892  63.2195902  39.4683099  39.2565131  63.5862350  39.3801880
  24.1794729  69.1549397  48.2271528  24.2188430  69.7734594  47.4976921
  23.5837722  69.5631647  48.8554287   2.4705701  49.2076206  67.7110815
   2.3353350  49.0313768  66.7800140   1.9156294  48.5690165  68.1588030
  36.3311386  48.3001137  42.5783777  36.6354370  49.2053986  42.5144053
  36.6097903  48.0146837  43.4485006  11.6869628  54.0890026  55.2506018
  11.6183889  54.3807936  54.3415403  12.3974657  53.4476280  55.2433300
  69.8114395  36.4728355  45.5669022  70.6989098  36.2902284  45.2582169
  69.8978567  36.5409493  46.5177584  17.2426879   1.9699574  37.2504330
  17.4410701   1.1591753  36.7819166  17.7333605   2.6442844  36.7805886
  44.1616344  44.5921659  35.3146553  43.3233118  44.1652584  35.1380253
  44.2124605  45.2966642  34.6686435  31.5989232  19.1590667  51.8642521
  31.9863033  18.4343207  52.3550844  31.1749363  18.7411535  51.1147118
  23.9615273  43.6806345  14.7754931  23.8409138  43.5450315  13.8356555
  24.2153525  42.8208065  15.1109135   7.7502596  52.0426846  40.3537798
   7.4181533  51.9859505  39.4578314   7.7730453  51.1356211  40.6586552
  45.0860262  53.9149475  34.3263125  45.1432896  53.5917616  35.2254820
  44.5477819  53.2664108  33.8725233  44.8078394  43.7378454  42.1989489
  45.3069544  43.1117916  42.7235174  43.9452934  43.3344936  42.1012068
  29.8589754  42.3457384  27.7020836  28.9557171  42.3144197  27.3868465
  29.9104166  41.6445303  28.3516145  17.5299597  23.7739706  20.5707645
  18.1321311  24.4926095  20.3779387  17.2907448  23.9017129  21.4887476
  16.4530587  17.9949880  55.2407980  17.2375548  17.7343345  55.7233477
  16.3275051  18.9164317  55.4675388  17.4140799  34.7177076  62.9667091
  17.6764154  35.4785442  63.4849167  16.5366662  34.9339008  62.6510572
  28.4270740  23.3978105  34.1195202  28.5614467  23.8483763  33.2857537
  27.6782084  23.8440061  34.5149207   2.4910256  60.0447941  62.5587368
   1.9083673  59.6874905  63.2288694   3.2593340  60.3446770  63.0445385
  14.0785873  38.3297276  33.3281732  14.2523408  38.7399864  34.1753626
  13.8884985  37.4156356  33.5392022  75.2074003  54.8653984  25.0493026
  75.3029060  54.9674225  24.1023588  75.8556747  55.4634380  25.4212260
  19.4421816  46.7929792  24.6973276  19.3074083  45.9163094  25.0572038
  20.3433418  46.7835379  24.3747544  35.0032997  34.9987626  18.6346900
  35.4920936  35.2075148  19.4307637  35.6359696  34.5461464  18.0769265
  18.9648736  19.8274779  42.9822254  18.1389308  19.5256901  42.6041079
  18.7578142  20.0040054  43.8999414  19.4230580  26.4716268  39.1394711
  20.3218079  26.5759921  38.8270831  19.2938018  25.5242872  39.1850019
  28.7976623  71.6107035  24.1207981  29.2993450  70.8294106  24.3534565
  29.4603729  72.2845745  23.9693332  35.2819276   6.4967638   5.4148853
  35.9920931   6.1479461   4.8761609  35.4619670   6.1631250   6.2938070
  67.1655846   9.3251681  35.3767586  67.0857859   8.5500729  35.9327197
  66.3934994   9.2951834  34.8117661  62.5066996  75.7880163  42.9857635
  62.0770645  75.2405977  42.3285103  62.5316477  76.6600895  42.5919342
   8.4797323  71.1173153  43.1946850   7.9438442  70.4095221  43.5525799
   7.9477578  71.9041348  43.3136225  78.1301498  66.3417482  32.3636317
  78.6900568  67.0923281  32.1652055  77.4426317  66.6979361  32.9263711
  50.2155352  59.0373898  41.1303854  50.5582237  58.1686974  40.9202242
  50.0676346  59.0142345  42.0758057  49.2853212  60.8275366  39.0490413
  49.6014357  61.7305708  39.0201378  49.9181414  60.3698444  39.6024728
   6.5788299  69.8942041  32.9740500   6.6185945  68.9511585  33.1331539
   6.1507708  69.9754715  32.1217632  64.5449162   6.3619369  15.1235485
  65.4014063   6.0508943  14.8304415  64.4782352   7.2488344  14.7697139
  31.6395164  72.8084278  29.4912767  32.0753980  72.2764921  30.1570773
  31.1217546  73.4400272  29.9905133  26.4300251  64.4255304  45.8252573
  25.6227684  64.9378920  45.8706141  27.0109773  64.9427795  45.2674246
  74.8107958  54.4912815  48.9366341  75.2040386  54.5023346  48.0640125
  75.0861025  55.3174925  49.3338871  19.8374474  71.5917826  27.9104757
  19.8263323  71.9680834  28.7905359  20.7358575  71.2829542  27.7933669
  34.1104674  65.3650951  64.8637009  34.0852118  65.4451704  63.9101887
  33.8251162  64.4678736  65.0363445  26.9497800   0.7821400   6.8064022
  26.9945931  -0.1091898   6.4603460  26.6007662   0.6781229   7.6916152
  35.7173944  46.3132334  40.9692478  35.6038952  46.8640900  40.1947069
  35.7483435  46.9307995  41.6999245  31.3571310  63.2192469  46.4111233
  31.7677879  62.8418684  47.1890545  31.0195398  64.0653324  46.7050695
  18.8642824  70.1791954  34.1211796  18.8091767  69.3989801  33.5693955
  18.4471917  69.9211597  34.9431801  43.1671143  50.4597998  41.1411667
  42.4556923  50.3867769  41.7773867  43.7173176  49.6945572  41.3082218
  18.8053206  68.9357011  67.8215484  19.5493249  68.3334796  67.8176109
  18.0772809  68.4147255  68.1603365  82.2298527  76.5394926  31.5041208
  81.5697765  75.8720970  31.6915298  82.4786472  76.3812208  30.5934691
  69.3212748  63.1448746  34.7401309  68.7570572  62.4325275  35.0408840
  69.2079973  63.1551695  33.7897134  37.0356965  38.1829762  60.6224060
  37.0195007  39.0739536  60.2729368  36.1513615  37.8498387  60.4700708
  46.0661125  71.6622448  31.0109162  46.5657711  72.4341631  31.2768316
  45.3241682  71.6373348  31.6151762  65.3925610   3.7361592  35.6256342
  65.2713966   2.9089189  35.1595616  65.9152842   4.2725533  35.0295854
  38.9955187  77.5204086  10.5521750  38.3662581  77.4755812   9.8322767
  39.6947241  76.9185781  10.2969408  21.8344665  64.0739202  29.3164325
  21.6652179  63.5424757  28.5385156  22.3966980  63.5254431  29.8635197
  34.8012185  26.4591670  35.9940147  34.2670631  25.7566667  36.3646984
  34.1923690  26.9639492  35.4548216  44.2802286  58.7796021  28.8280296
  44.9652767  58.1136513  28.8867879  43.8463926  58.7528372  29.6808505
  61.5260553   8.2328528  36.5374351  61.0848904   7.5777787  35.9966159
  60.9207582   8.3926666  37.2615290  23.9164734  59.3165112  24.1696930
  23.1278038  58.8352060  24.4198465  23.5932040  60.1647949  23.8661528
  11.8331075   1.5014677  26.5421081  12.3340225   1.3725449  27.3475242
  11.7244112   2.4502400  26.4769316  19.7538865  41.8872404  39.7363520
  19.3177009  42.7061558  39.9716139  19.5861733  41.3050604  40.4774094
   4.7594869  55.5504322  58.4087992   3.9774826  56.0804033  58.2544327
   5.2121323  55.5400944  57.5654507  28.8798523  75.8976126  38.4673238
  29.4534111  76.5059996  38.9332914  28.6589551  76.3517952  37.6542115
  53.9149809  56.2550259  32.4473643  53.6274290  57.0154476  32.9526401
  53.5305595  56.3842821  31.5803313  25.9506226  18.2837164  54.1588688
  25.8447266  19.2326832  54.0919495  26.2866950  18.0192411  53.3025169
  43.9270210   8.1463802  47.0488930  43.8392210   8.3187032  47.9863548
  44.4459295   8.8795775  46.7181635  59.1498862  -0.1282867   0.4549964
  60.0005851  -0.3269133   0.0637264  58.7868057   0.5625692  -0.0991848
  66.5120792  64.8685932  43.0553436  66.6431856  64.3259335  43.8328791
  66.2399721  64.2517519  42.3758602  13.2177997  49.2472601  35.7135367
  12.3851216  49.3210793  35.2472425  12.9701889  49.0390110  36.6143990
   9.3764353   0.2935925  66.3372183   8.7977177  -0.0439044  65.6535435
  10.1912725  -0.1958455  66.2244225  83.5780048  58.9693165  33.6995101
  83.8208008  58.6314964  32.8374434  82.9882145  59.6998167  33.5130858
  32.3686194  57.1033812  45.1306200  31.4376545  57.3085880  45.2167892
  32.3911405  56.3177729  44.5842266  36.4521098  44.3389273  19.7284293
  37.0818448  44.0085840  19.0876973  36.3198233  43.6085367  20.3327966
  40.0380421  64.4346762  34.6055865  39.1026044  64.2378426  34.5561886
  40.4656029  63.5796547  34.5570135  41.6405582  60.6035471  39.1377926
  42.1922207  61.0123348  38.4708643  41.2321949  61.3389730  39.5945382
  57.9285383  13.3722782  30.1390386  57.8745222  14.1775441  30.6536865
  58.1272697  12.6906347  30.7809877  68.2825947  66.6122007  46.1689663
  69.1842461  66.7523766  46.4581108  68.2608366  66.9575310  45.2764988
  39.1582775  78.2666922   5.8121943  39.3172765  78.9595222   6.4532363
  39.1687226  77.4586773   6.3252610  82.9005337  50.1150846  53.9473963
  82.7952099  51.0659170  53.9148712  83.1097221  49.8663425  53.0470657
  79.4108677  64.0779877  24.7037411  79.8994350  63.5110998  24.1069412
  78.4933710  63.9385509  24.4692421  58.3974409  11.0336065  61.4388227
  58.8171148  10.1834083  61.3074207  58.1166935  11.2999856  60.5633450
  64.0035105  42.8225613  33.6025786  64.1255522  42.8407001  32.6533651
  64.2938232  43.6855316  33.8979244  62.6367760  71.5228462  43.3629942
  62.8550863  71.9971514  42.5607443  62.7094364  70.5992126  43.1224680
  66.4393520  77.2047043  23.0423546  67.2717667  77.4972153  22.6711988
  66.4297485  77.5705433  23.9268327   5.2910143  72.3070908  30.8882475
   5.9955966  72.3794222  30.2443814   4.9174589  73.1871796  30.9344077
  43.2476711  51.6031170  30.4794002  43.3022451  50.8706188  29.8656440
  42.5124264  52.1273613  30.1618862  77.3601151  29.2868686  42.4805117
  76.5445995  28.8479352  42.7223921  77.7385569  28.7307739  41.7995024
  21.0025930  59.2706537  34.9636745  20.1198697  59.1112280  35.2977610
  20.8750129  59.4727516  34.0367913  53.6365986  67.2238111  17.7159512
  53.2690763  66.4831066  18.1981444  53.1187773  67.2669411  16.9120657
  52.6286745  66.7059278  30.2766824  53.3038998  66.2327576  29.7904658
  53.1066275  67.1581173  30.9718943  74.2949915  47.6071215  36.7899895
  75.0418568  47.2100639  37.2380638  74.6817112  48.0811691  36.0538125
  55.8397245  70.0177145  35.0213766  55.2642584  69.2980051  35.2803802
  56.5764189  69.5900869  34.5847464  28.9306426  14.8813236  66.6336775
  28.0892015  14.4788992  66.4185858  29.1564631  15.3937709  65.8573818
   5.1908720  31.0108352  39.3859982   4.2623910  30.7935381  39.4692850
   5.5900043  30.6667209  40.1850653  18.7226570  66.0065413  40.3073263
  18.2052410  66.1019707  39.5076990  18.9494860  66.9030905  40.5542564
  21.8730021  53.9946127  43.6644697  22.2020316  53.1978416  44.0805626
  22.0414281  53.8645411  42.7312279  52.8398943  12.6898468  43.9364147
  53.5028696  12.2280705  44.4496965  52.9428339  12.3472464  43.0485773
  81.6727161   0.2625740  25.2551460  82.2491837   0.8614074  25.7298136
  81.8070221  -0.5852645  25.6786585  54.5704603  75.6237745  26.0211730
  55.1334047  76.3446665  25.7389641  54.2964411  75.2011013  25.2072382
  56.0445356  69.8029470  51.0330582  55.9487820  69.2570496  51.8134785
  56.3045931  70.6600285  51.3707209  38.4500265  67.4069977  51.4095879
  39.0361261  67.5675821  52.1491337  38.9239740  66.7833900  50.8593845
  52.6589394  35.7952499  16.5662837  53.0296087  35.0047135  16.9585705
  53.3549595  36.4482045  16.6400313  66.3530064   3.4091732  16.6934669
  66.0418463   3.5742748  15.8034360  66.4606476   4.2804074  17.0750380
  29.4701695  22.9954934  38.5024047  28.5960054  23.1629682  38.1502390
  29.8440838  23.8659573  38.6392093  12.9546058  51.8198776  47.9312038
  13.8653409  51.5490866  47.8151655  12.4425948  51.0481358  47.6893568
  24.1740060  74.7100544  37.2345352  23.4766507  74.0618467  37.1357727
  24.0925694  75.0135946  38.1386733  81.4342594   9.7787404  30.5832291
  81.9622612   9.8760849  29.7907877  82.0220470   9.3613213  31.2129092
  18.7751937  39.8620081  19.4635403  17.9265404  39.4792199  19.6860099
  19.1297138  39.2828584  18.7889040  43.8481951  54.1644669  41.2793303
  42.9319477  54.0933037  41.5470171  43.8105011  54.4941378  40.3814840
  50.4125786  59.8629808  11.0798538  51.3406277  59.6294260  11.0597205
  49.9606943  59.0349865  11.2425089  18.7043691  57.1193695  51.0220051
  19.3066525  56.3806248  51.1099863  18.9092159  57.6853514  51.7662716
  49.3144989  76.2630081  33.2945824  49.3596649  76.4483500  34.2325807
  48.7714481  76.9657135  32.9374647  17.5048542  59.6885300  61.7160892
  17.5866973  59.2361307  62.5556517  17.8178978  59.0545464  61.0708761
  78.6412477  10.8028114  51.4907360  78.0057812  11.1226857  50.8503532
  79.3810797  11.4055061  51.4156389  40.7186604  67.4567652   9.6621770
  39.9095583  67.7902126  10.0499964  40.7569361  67.8669834   8.7981796
  10.9434426  19.9168074  46.9736576  11.3727677  20.6438446  46.5227365
  10.9414279  20.1744270  47.8955364  19.7704887  58.8244486  29.9224663
  19.4990265  59.7088957  30.1680279  19.0114963  58.2766771  30.1227331
  69.6853590  41.7197561   2.0585114  69.7093582  40.8516073   2.4609646
  69.7589493  41.5504646   1.1192792  11.2110162   5.5678040  55.7322264
  10.7117009   6.1953640  56.2547970  10.8804572   5.6814921  54.8411369
  11.7017937  54.1773605  41.7278433  12.3689461  53.5091352  41.8847322
  11.5897882  54.1854429  40.7772541  35.4963565  48.8485622  34.4920135
  35.3840137  47.9785585  34.8750353  34.6502638  49.0440559  34.0893435
  32.8584409  78.4573221  37.7060270  33.5914660  77.8922701  37.4618483
  32.3826599  78.5994673  36.8877006  46.6482258  62.2157812  54.2711306
  45.7561541  62.0969057  53.9450788  46.9013262  63.0864477  53.9643478
  51.9301939  54.6283293  38.5623431  51.4857531  54.8236561  37.7373862
  52.6157475  54.0045786  38.3232236  47.0196642  78.8509720  25.2042866
  46.4554943  79.3312965  25.8102822  46.4945044  78.7599302  24.4092083
   3.1823173  76.4847040  36.7478299   2.6238614  76.1834478  37.4644923
   2.9801410  77.4163628  36.6620135  45.7599545  75.4970598  17.6623321
  46.6670084  75.3177118  17.9099751  45.6823158  75.1536417  16.7722380
  43.2040262  70.7682467  18.1187296  44.1188812  71.0288954  18.0122876
  42.7025318  71.5261412  17.8181767  56.7062283  13.6773312  60.0684404
  56.4616060  13.0706370  59.3696451  55.9148884  13.7616551  60.6003284
  34.9776769  73.1195211  33.3199215  34.1848207  72.7629042  33.7204671
  35.6017089  72.3938942  33.3367443  28.9044762  73.4614325  43.4393549
  28.1812549  74.0809870  43.3427429  28.5513687  72.7656698  43.9938450
  50.5717278   1.5721591  38.6591172  50.0548744   2.2986585  38.3108425
  49.9222660   0.9625391  39.0095448  78.5428667  15.8929908  17.4247360
  78.6588240  16.3990247  16.6205502  79.3637657  16.0112655  17.9026127
  82.9458141  66.8425989   4.2381194  83.4040833  66.9189548   3.4012285
  82.6782513  65.9245968   4.2817903  55.9903002  72.8842926  40.7203579
  55.0646877  72.7081251  40.8890057  56.4579391  72.2639036  41.2795162
   8.5101312  62.1506071  51.1924219   8.4633142  61.7606735  50.3195000
   9.1293716  62.8744555  51.0985041  51.1228466  20.9379458   8.1363600
  51.8555260  21.5323496   7.9748005  50.3529215  21.5063596   8.1550407
  51.5344286  72.7725458  51.0908794  52.2229624  72.1107531  51.1555719
  51.3466311  73.0122852  51.9983435  59.6000433  70.0032187   8.0457455
  59.8972082  70.1792192   8.9384645  59.7727728  70.8163166   7.5711286
  31.4613891  48.6377096  30.7758784  30.5603194  48.6934853  30.4577661
  31.9182301  49.3492651  30.3273082  83.7161726  18.1371069  48.3933496
  82.8435034  18.0712771  48.7810946  84.3088621  18.1820595  49.1436338
  48.6036110  66.2674093  49.7691584  48.5763168  65.3294802  49.9583006
  49.4535065  66.5544558  50.1030874  63.1986380  76.5503883  46.1456966
  63.1624603  77.1604538  45.4089832  63.6907530  75.8004045  45.8116674
  33.3276796  68.8792276  42.9436255  33.0979729  67.9500580  42.9331160
  32.5521660  69.3136644  43.2986927  15.1090038  78.3955240  10.2346051
  15.7333481  78.9124823   9.7255081  15.6473351  77.9376650  10.8802021
  49.1442490  52.4607897  43.3849859  48.4852552  53.0538750  43.7458372
  48.6431265  51.8372297  42.8593588  45.1434469  40.5968046  40.3038931
  44.4319248  40.9246206  40.8538961  45.7047844  41.3585186  40.1592445
  37.7762604  49.3589163  26.6207361  38.2462263  49.1895771  25.8042264
  37.5589776  48.4893799  26.9567871  24.8220253  54.9463558  23.5043693
  24.9037457  54.3596315  22.7524996  24.6056700  55.7968235  23.1221056
  49.9472809   5.3299469  43.8146162  50.3558397   6.0579324  44.2829609
  50.3603506   5.3386950  42.9511738  39.5471001  52.0478344  36.5782523
  39.1805935  51.3559103  36.0276675  38.7989473  52.3814201  37.0734501
  42.3670912  43.8785410  38.3852673  42.2678375  43.4063673  37.5585675
  41.5621042  44.3899298  38.4671521  25.3160787  64.5380783  32.3078012
  25.6825948  64.0285587  31.5851045  24.8565221  65.2616644  31.8818188
  48.4767342  58.0277824  30.4391432  49.1637897  58.6412191  30.1785946
  48.9499187  57.2538900  30.7447886  42.2664547  78.1127453  34.6050978
  41.4349651  78.4549856  34.9333167  42.3418045  77.2450781  35.0022221
  23.9893450  79.0290371  25.1299286  23.4651007  78.2872148  24.8280978
  23.4047951  79.5142458  25.7122612  39.1030717  62.8770781   0.9255188
  39.7221756  63.3715773   0.3884748  39.0819430  62.0070601   0.5269618
   3.1379098  73.7930727  26.4336467   2.2023594  73.9621305  26.3223100
   3.5052967  74.6389389  26.6901064  28.5746574  40.9454393  17.3952925
  29.2518497  41.0533047  16.7274547  28.9944005  40.4247952  18.0801117
  11.5985119  65.3982019  46.0543966  11.9350886  65.9690952  45.3637218
  12.3397076  65.2777815  46.6479969   1.8985669   3.9485723  54.8231316
   2.4606603   3.1787822  54.9109125   1.7284596   4.0150347  53.8835144
  69.2092657   2.1658482  22.3863673  70.0766611   2.5701314  22.3661137
  69.2030334   1.5744382  21.6337538   3.9897552  28.2964921  21.9098473
   4.7733673  27.8649282  22.2503448   3.3057830  28.0878258  22.5461435
  20.0769544  49.7920656  22.5079393  20.8954263  50.0676966  22.9206920
  20.0851822  50.2188349  21.6511822  26.0258007  11.5180314  10.1727188
  25.2716994  11.2179172   9.6652800  25.6609440  11.7590010  11.0242140
  67.0657682  46.6213846  43.4704161  67.0992613  47.3334312  44.1092443
  67.3526096  45.8489180  43.9575005  54.7754765  61.9483709  13.6228549
  53.9754725  62.4323893  13.4180355  55.4753494  62.4595308  13.2165074
  42.7562952  69.4475698  38.5118270  41.8085194  69.5010662  38.6346602
  42.9131222  68.5401344  38.2506704  20.1234865  77.9872656  16.9309294
  19.3844545  77.8650713  16.3350010  20.1043749  78.9192772  17.1482348
  59.4700050  62.8942728  58.0393934  58.5721302  63.1883907  57.8859425
  59.8220253  63.5198116  58.6726522  65.3431559   1.5340391  41.3432598
  65.9593964   1.5278521  42.0756817  64.4985437   1.3190745  41.7390537
  79.4576311  15.8655703   7.5057465  80.0008202  16.2136006   6.7986059
  79.6992493  16.3861871   8.2717830  30.8110547  62.1009541  59.4203424
  30.8378530  61.5089273  60.1720190  30.5404305  61.5466356  58.6884069
  65.5227661  77.7703714  44.1241550  65.3864098  76.8244457  44.0706348
  65.6007051  77.9484701  45.0614071  11.4488077   6.0866606  11.2585533
  11.4835930   6.9905162  11.5717089  10.8684850   6.1188489  10.4980123
  53.2508659  48.6273241  44.0195847  53.2956743  49.1718340  44.8055458
  53.0864239  47.7438831  44.3493032  20.6911588  68.0786085  25.4444671
  20.0041676  68.5316658  25.9333611  21.4644623  68.6330843  25.5483460
  77.8978586  57.8506517  56.2012243  78.8433647  57.9396296  56.0815096
  77.5500584  58.7234116  56.0180283  50.6601763  70.5018377  44.8606873
  49.7669935  70.3285599  45.1580667  51.1290264  69.6828127  45.0207090
   5.6314611  15.4360414   9.9639601   6.4665109  15.0154352  10.1689327
   5.0435120  15.1556253  10.6653261  59.0096426   8.4461296  60.6578302
  58.5735559   8.0335647  59.9122763  59.9215984   8.5370547  60.3816032
  43.4710836   8.6945975  35.1649976  44.3764925   8.9972383  35.2347946
  43.3958292   8.0091006  35.8288217  48.1879997  58.9359140  22.4172521
  48.2906199  59.0356636  21.4708114  48.4238005  59.7917557  22.7752566
  10.3671169  60.2316284  46.7355680   9.7633666  59.5600176  47.0528364
  10.2912414  60.1908541  45.7822514  42.9937649  44.7783184  21.5018964
  43.0211782  45.7251883  21.6394234  42.6444244  44.4273281  22.3210406
  41.7712927  75.9181499  15.6774366  41.0136271  75.8918142  16.2617993
  41.9392872  76.8511343  15.5449772  15.9770083   9.5715064  66.6112232
  15.1235604   9.1445047  66.6855860  16.4784479   9.0042013  66.0256004
  14.7126889  69.0604734  39.6017456  15.0769877  69.6317244  40.2779055
  13.9645088  68.6375093  40.0231266  68.3369875   1.5004481  58.7367916
  68.2184267   1.6410020  57.7974176  69.2789125   1.5978193  58.8765287
  14.3135369  76.8711185  63.1567907  14.6515644  77.5523615  62.5755119
  14.5114267  76.0508251  62.7049160  33.1400061  67.7119541  49.7442484
  33.3904314  68.5239935  49.3036652  33.9718151  67.2964478  49.9715805
  51.1773586  66.6742802  47.6984024  51.6164160  65.8262968  47.7646065
  51.5262938  67.1824741  48.4306717  40.3986549  60.4493999  10.0064325
  40.8626938  59.9397516  10.6706309  39.9622869  59.7934437   9.4628012
  24.3143272  -0.1576880  50.4592562  24.5297718  -0.0295258  51.3830471
  25.0186729   0.2846222  49.9854565  50.4840136  55.1761532  28.3932161
  51.1446857  55.5010223  29.0049338  49.7032785  55.0450563  28.9312720
  41.5322685  76.5080070  46.9777060  40.7673264  76.7696667  46.4652348
  42.1199417  77.2622395  46.9329834  32.0985794  77.5625181  41.5913725
  31.2872362  77.6926708  41.1004400  32.4107528  76.7011833  41.3141012
  13.0989498  16.5362270   0.2353794  13.9366716  16.3875158  -0.2031868
  13.1817049  16.0778768   1.0716183  45.3700256  13.8894451  46.6305304
  44.9235916  13.9652860  45.7872200  46.1260271  13.3301795  46.4518785
  72.5959158  29.7011685  57.8600836  73.2007313  29.9360394  58.5638332
  73.1246281  29.1838408  57.2525740  62.2109365  61.8733692  47.6248884
  62.4101830  62.7929544  47.8006601  63.0435133  61.4985991  47.3374939
  58.3973646  30.0341702  65.3570461  58.6301804  29.1494775  65.6387377
  58.9831972  30.2132916  64.6215534  29.1904163  23.2558179  25.6731176
  29.7290015  23.6958289  26.3308024  29.2137027  22.3322058  25.9233856
   1.7537320  26.1917853   0.0271341   1.9041616  25.7702446   0.8732470
   1.1152561  26.8803573   0.2127416  49.6433496  73.5128355  33.3079696
  49.6814251  73.1901932  32.4075890  49.6509647  74.4660759  33.2213354
  54.7357273  62.3342419  58.9168072  54.9440241  61.4068890  58.8033962
  54.6637678  62.4494219  59.8643208  32.4626851  10.1149130  54.3405676
  32.8743458   9.9319559  55.1851320  32.5347733   9.2926663  53.8558531
  57.5516081  76.6695738   8.5533965  57.2195578  76.0232115   7.9303503
  58.2987452  76.2394810   8.9693737  59.8174286   5.1826626  42.7316713
  59.4365549   4.3500012  42.4526739  60.6725121   5.2107048  42.3023987
  64.0875912  67.0931578   8.4294331  64.0477753  66.2596083   7.9605675
  64.5011187  66.8781710   9.2654991  58.4977102  76.1621428  11.4712155
  59.1987801  75.5639362  11.2126064  57.7089214  75.7924843  11.0744834
  31.2234354  43.7519884  22.8825307  30.3697157  43.6187983  23.2944202
  31.0974717  44.5081997  22.3093724  61.3639927  16.2626994  20.8288741
  61.2316704  15.6764030  21.5738440  61.6890717  15.6937659  20.1311159
  38.1739211  68.5097265  17.8264236  37.8296256  67.6237440  17.7135956
  38.2617950  68.8478327  16.9352484  20.9302664  63.4409475   6.3413668
  21.1182189  64.2568684   6.8052411  21.6496730  62.8572893   6.5822595
  37.0586348  78.1901121  45.7139063  36.2500238  77.6795626  45.6724501
  37.0474744  78.5860729  46.5853024  71.3311625  71.9408512  47.4104595
  70.4365349  72.2731733  47.4841738  71.2693834  71.2249231  46.7781115
  73.6104536   3.5189471  25.4990292  72.6878881   3.7097681  25.3296399
  73.6025429   2.6676157  25.9365273  39.9379396  71.9659615  28.4085751
  39.4193435  71.4848423  29.0534115  39.4079423  71.9457960  27.6117539
  79.2574596  68.3445692  46.0554218  79.9483585  67.6906776  46.1617994
  79.4554377  69.0113497  46.7130280  63.7631226  61.4220619  28.9927816
  63.7511826  61.0783815  28.0994868  64.6924353  61.4800739  29.2146873
   3.0772755  61.7736292  11.8429506   3.5631868  62.5967455  11.7919362
   3.4208933  61.2475014  11.1209059  17.3860252  73.5879230  19.1463268
  17.6306939  74.4827127  19.3823874  16.4475334  73.5402632  19.3285131
   3.1397814  65.5758238  26.7622876   3.3707988  65.7617140  25.8521748
   2.8519014  66.4185524  27.1132421  79.2263937   7.2623587  39.4272113
  79.1396093   6.3374501  39.1964602  79.2650557   7.2679985  40.3836107
  33.3718085  43.5510445  24.5358801  32.7957463  43.8736820  23.8428521
  32.8691840  42.8561354  24.9609733  74.5534420  67.7002764  41.0866213
  74.8260307  66.8036366  41.2814713  74.2263365  67.6612186  40.1878929
  40.3771448  66.3285065  54.5170259  40.1223373  65.5610037  54.0049314
  40.3275347  66.0363913  55.4272127  83.0389214   4.5430830  37.9343486
  82.7650356   5.4476178  37.7825618  83.8978386   4.4796029  37.5166631
  49.8334360  59.3143654  17.7535033  49.5501661  58.5784006  17.2109675
  50.7892990  59.2910719  17.7086008  34.7459579  64.3724632  42.5724840
  35.2213120  64.9052525  43.2099819  34.1390014  63.8529158  43.0996466
  44.6801662  76.1776876  38.1661463  45.5233288  76.1856556  38.6191869
  44.4776154  77.1018553  38.0208182  62.7505589  14.1193926   3.5831642
  62.1485615  14.5078290   2.9483831  63.1505537  13.3858383   3.1161150
  74.9055910  65.6259155  28.9780760  74.1029692  65.2427483  29.3319392
  75.5750370  65.4263067  29.6324682  70.5921316  63.7593508  29.3638325
  70.6302404  64.5893860  29.8390412  71.1106253  63.9116669  28.5737705
  41.3679266  74.8897600  44.1149807  40.4490566  74.9818563  44.3668175
  41.7038107  75.7860088  44.1024065  43.0049944  68.5611153  34.6448684
  43.0334806  68.2548237  35.5512929  42.3705530  69.2777967  34.6540499
  25.3222418  77.6139641  33.1514001  24.7947216  76.9612122  32.6911092
  24.8401833  78.4333706  33.0399203  82.2815704  64.4963980  14.0747321
  81.6914463  64.1058111  13.4301889  82.5256348  63.7693739  14.6475351
   7.3091215  18.0887377  30.6839776   6.3534892  18.0488479  30.6464529
   7.6004893  17.5427461  29.9537516  28.3462095  13.1723166  27.3891664
  27.4032617  13.0456972  27.2840643  28.4602642  13.3602834  28.3207726
  71.8798447  10.5173182  23.7100291  71.8961382  10.6964552  24.6501756
  70.9528589  10.5567563  23.4747243  51.7199183  69.2703295  27.5901890
  51.0258007  69.5815849  27.0091963  51.3679552  68.4678364  27.9753685
  60.1773787  10.9612882   0.8411497  60.9745646  10.4356205   0.7748515
  59.5800114  10.5720484   0.2024966  34.6173501  15.8909011  65.4614019
  34.6254802  15.4262435  66.2982178  34.0129304  15.3889811  64.9146080
  30.3328943   6.5552622  61.2713528  31.0767484   7.1568984  61.3021040
  30.3678536   6.1758578  60.3932524  45.3473806  62.3539352   4.6026593
  45.4548454  63.3024120   4.5314071  45.5502176  62.0234966   3.7275031
  71.6277742  10.2496099  55.4767561  71.4212751   9.7483832  56.2656546
  71.7113495  11.1529839  55.7819843   2.5298923  32.4311113   1.6838372
   1.5756419  32.4403381   1.6093218   2.7541214  31.5049601   1.7743760
  63.6416149  76.7615843   0.5349255  64.4273186  76.7518091  -0.0117065
  63.8699865  76.2225342   1.2922230  72.8662491  64.8309946  53.2241249
  73.2085323  64.9170637  52.3343658  71.9185257  64.9228859  53.1260967
  39.5903730  15.7148910  11.9012475  39.0876245  15.4217172  12.6611984
  38.9456630  16.1437035  11.3384855  69.7201967  27.0286918  36.9639659
  69.1887760  27.6525903  37.4585104  70.0572300  27.5344634  36.2244844
  69.6374321  52.4820042  26.9826579  69.0580750  53.1256676  27.3904252
  69.9053860  51.9109249  27.7025890  57.0152140  65.2964592  52.5563288
  56.5234089  66.0881805  52.7743530  57.3246288  64.9667549  53.4000111
  40.9132719  51.9550276  40.5908537  41.7476654  51.5289974  40.7870960
  40.3039980  51.5973663  41.2366819  25.2669549  39.3635035   0.7477409
  24.7885370  40.0933409   0.3544372  26.1427450  39.4173312   0.3652159
  33.0095601  68.8712168  59.5357275  32.3261881  68.9767647  60.1976156
  32.6277828  69.2354679  58.7371016  35.3554130  64.4515991  33.2463002
  35.6909919  63.7337971  32.7092886  34.5624924  64.7389650  32.7936101
  71.7275429  16.1608326  17.9269850  72.1759129  16.0234404  18.7614405
  71.6205835  17.1100819  17.8660071  29.7551537  60.1077843  34.9126554
  29.8491812  61.0494328  34.7688150  29.9946356  59.7123671  34.0744877
  55.1021099  74.5914412  58.9161062  54.7451019  75.2861881  58.3628416
  54.4581699  74.4885588  59.6168137   9.4527400  11.2716603  44.8307133
   8.8905507  10.6866896  45.3386354   9.6398580  10.7861447  44.0272856
  71.2141943  36.3546658  50.6521368  71.6427851  35.8768511  51.3622284
  71.0332537  37.2194648  51.0203981  66.5885258   2.2565442  50.4110527
  66.5869284   1.3363703  50.1474047  65.6635571   2.5022206  50.4287672
  18.8539970  65.7248783  65.8856916  18.4888160  65.4130602  66.7137289
  19.8004007  65.6250858  65.9886265  66.9645691  48.2079887  38.7542748
  67.7781534  48.5944796  39.0782118  66.6468716  47.6735687  39.4820786
  73.6836958  61.4563847  35.2027583  74.4664764  61.5026093  35.7517099
  73.4913540  60.5209398  35.1381660  64.0162849  13.5656333   8.4103388
  63.1257296  13.6897850   8.7385553  63.9082098  13.4338903   7.4684280
  64.8823214   4.3618739  43.1481600  65.0650787   4.4042325  42.2095251
  65.5769396   3.8068041  43.5026073  33.7692904   1.4566138  36.8335962
  32.9302549   1.6474372  36.4142680  33.7614274   0.5084514  36.9645834
  40.6196976   5.0137484  55.4719353  39.7017813   4.8007870  55.6401873
  40.6082392   5.4787022  54.6353245  83.0221272  26.9354510  13.4055007
  82.1026707  27.0079851  13.1494081  83.3333969  26.1475086  12.9599822
   0.5866288  16.2439811  56.6213083   0.0792273  16.1906695  57.4312067
   1.3285485  16.8077993  56.8401575  62.3343182  50.0034571  44.5735884
  62.4183798  50.7829857  44.0244961  61.4279652  50.0234604  44.8807621
  33.3311343  47.4707508  64.2202902  32.5052786  47.9308367  64.3703413
  33.9503074  48.1611776  63.9832830  20.9835339  44.8048973  32.0245886
  20.0394487  44.9567699  32.0678282  21.2431359  45.1520824  31.1711812
  18.8786888  21.5421009  59.2948723  18.8794768  22.4986434  59.2593813
  18.2191992  21.3274455  59.9545908  28.8543963  66.8218088   6.7914623
  28.3446026  66.2375975   6.2301815  29.7354794  66.4477587   6.7890018
  66.8164206  61.9686222  32.2877765  67.5092983  61.5873146  31.7485571
  66.2856770  61.2200975  32.5602841  21.7251921  65.5598068  64.2154598
  22.3447227  66.2883568  64.2558336  21.6579676  65.2521992  65.1193905
  69.5261192  46.4118147  48.8749647  69.0439796  46.7846346  49.6130562
  70.3294754  46.9300652  48.8273430  81.4423847  20.0094414   5.7987714
  81.6640472  20.5723977   5.0570309  80.6899071  20.4371023   6.2075657
   3.6971289   0.7028629  45.8303595   3.0168384   0.0777965  45.5799007
   4.5063621   0.3283653  45.4823303  57.2558355  67.6839685  14.6622384
  56.5126944  67.2419596  14.2516279  57.3066759  67.3028564  15.5388224
  19.3160069  10.5872416  38.6785507  20.1117396  10.1183498  38.4271932
  19.5331466  10.9953690  39.5167136  14.6453333   0.4281072  38.4353304
  15.3395867   1.0448076  38.6675501  14.4524920  -0.0337844  39.2512345
  53.1322861  57.4545717  35.4384184  54.0745163  57.4416828  35.6065512
  52.8338146  58.2841778  35.8111024  48.3587885  72.7724218  41.8354893
  47.7610016  72.6028633  41.1073875  48.4808397  71.9178963  42.2491550
  51.0520697  14.9252880  65.2813482  50.4402637  15.0987554  64.5659208
  50.4974222  14.8498583  66.0578203   9.5175236   8.9942807  22.6858926
   9.7936362   9.9084634  22.6205969   8.6252218   8.9882606  22.3394942
  81.6887760  61.6213989   4.6207815  82.4747562  61.1507845   4.8982471
  81.8573093  62.5322437   4.8619878  66.6364384   5.4829347  34.2694402
  67.2998857   5.5164105  33.5802746  66.0345125   6.1963111  34.0572882
  17.5704896  32.1209002   5.5150557  17.3169029  32.9318404   5.0742584
  16.7874670  31.5717793   5.4754037  73.8875246   2.5689676   9.6037292
  73.2880497   1.8353517   9.7403777  74.7494030   2.2193092   9.8298496
  68.1550074   2.5602344  53.3429575  67.8047848   2.4979466  52.4543142
  68.3108425   3.4955323  53.4739733  72.6985216  13.3820021  52.4208260
  73.6061716  13.2718849  52.7041435  72.6882553  14.2281175  51.9733715
  10.0856805  16.6193438  38.2569098   9.3786359  16.9944322  38.7819147
   9.9103963  15.6783307  38.2564688  50.3582573  51.8888617  36.3903832
  50.6823826  52.7864075  36.3156462  49.7558022  51.7896080  35.6532097
  81.9934273  13.9998829  47.2396469  82.3469067  14.8787940  47.1025276
  81.4531994  13.8357127  46.4667082  51.7866707  64.2042112  15.5377710
  52.7139950  64.0739870  15.7361293  51.3496542  63.4473228  15.9281182
  75.5060101  59.2865324  54.1666794  75.1757240  59.5851326  55.0140190
  75.0865030  58.4367561  54.0320539  13.7795103  19.1363299  42.9366732
  12.9287302  19.5256305  42.7345657  13.7860942  19.0570366  43.8905621
  56.6355944  15.5116045  41.0982037  57.2078133  14.7623181  40.9327793
  55.7585192  15.1957250  40.8809662  63.6854315  75.7149124  63.1964111
  63.9515114  75.6570005  62.2787619  63.2421350  74.8845196  63.3701134
   8.5200149  24.3931603  42.0971155   7.8154200  24.5036244  41.4586973
   9.2909771  24.7664809  41.6699362  37.9334211  57.5708771  38.6379552
  37.9268169  57.7510738  37.6978922  37.8496933  56.6193676  38.7000322
  49.2229986  71.4349270  18.8080680  49.1410542  70.5637598  19.1961241
  49.5848894  71.2757397  17.9363298  54.8327398   8.6303121  50.4044867
  54.2970228   7.8393662  50.3440952  55.6413078   8.4077471  49.9430609
  62.3952103  69.9561310  58.5763407  63.1675482  69.5946789  58.1415129
  62.6751900  70.1014757  59.4800663  56.3750505  70.1741552  23.5120606
  57.0822096  70.2987623  22.8791094  56.7995977  70.2605391  24.3655992
  76.4306831  18.3065021   5.3499901  77.3147535  18.6266780   5.1707196
  76.2458849  17.6994610   4.6333438  10.3235137   5.1782554  38.2776666
   9.4079781   4.8997992  38.2555509  10.6077993   4.9957466  39.1732693
  17.2999799  74.1593599  10.7746673  16.5029633  73.8119316  10.3743029
  17.3798490  73.6834240  11.6013074  51.3857794  58.4222126  27.6140165
  50.5119038  58.0659819  27.4538040  51.2356043  59.1799927  28.1792116
  41.8562126  51.8622351  37.7345729  41.5792942  51.9388962  38.6476302
  41.0435057  51.7216539  37.2488022  77.3444414   9.4661456  53.4105206
  76.8792439  10.0383461  54.0207720  77.9012346  10.0578582  52.9044676
  39.2773676  24.6291208   6.0107976  38.4958863  25.1359200   5.7901818
  39.9340940  24.9125147   5.3746933  13.6271787   8.3725822  66.2848854
  13.0459523   7.7007753  65.9283972  13.1880903   9.1994619  66.0856247
  48.6280632  75.0846720  18.0574799  49.0604734  75.1122046  18.9110005
  49.3373489  74.9257660  17.4346650  20.3457499  55.1925421  56.4913464
  21.2011003  54.9239874  56.1559629  19.7170091  54.6870995  55.9761333
  59.1190100  74.5487976  57.8322792  59.0495968  75.4612494  57.5514889
  59.7367907  74.1549683  57.2162580  75.6872749  22.8983021  13.3531976
  75.9804535  22.1155357  12.8867698  75.5354071  23.5449743  12.6640069
  35.3684378  20.0498056  24.7371411  34.6831393  19.9570131  25.3989458
  35.8144093  19.2028511  24.7337747  40.6072330  62.8449869  43.5207081
  40.2684212  63.6217403  43.9657879  39.8274803  62.3997355  43.1890917
  60.9405661  59.5662975  20.2985597  61.3334990  59.2594433  19.4814444
  61.5035200  59.2075396  20.9845686  59.5837927  67.8202438  31.3884664
  59.4135523  66.8875313  31.5199852  59.6208143  67.9252291  30.4377627
  37.9265165  40.5631065   7.3301113  38.1052446  41.2954855   7.9199481
  37.4501371  39.9319339   7.8694797  75.5950785  28.9427543   3.3273882
  75.7443810  28.2022762   3.9152917  76.2399626  28.8281989   2.6293659
  76.8646669  56.5141201  19.8710299  76.6909647  57.3271847  19.3967056
  76.7206717  55.8237886  19.2237735  28.3935761  62.1503973  25.5923486
  28.9961505  61.6670895  26.1576343  28.0583215  61.4933205  24.9823642
  29.0389514   7.7328575  41.8519068  29.3677640   6.9385505  42.2728443
  29.2447305   7.6152092  40.9245205   5.8182585  25.5572939  45.0092840
   6.1524147  24.6719623  44.8651981   6.0520577  25.7569647  45.9157610
  73.1950617  42.1026897  51.7861938  73.0067539  42.8232479  51.1848879
  73.3975649  41.3612938  51.2156200  35.9476280  60.5046368  39.6544170
  35.2829361  60.5294037  40.3427505  36.1344075  59.5734358  39.5352197
  59.0574503  46.7131186  50.6101227  59.9887133  46.9245291  50.5446339
  58.9398098  46.4275646  51.5161324  26.5195966  40.1253414   8.9606994
  27.4273801  40.3388309   9.1765296  26.1950898  39.6549797   9.7286111
  16.5406799   3.9693120  51.2306547  17.4474788   4.0581343  50.9372950
  16.1323547   4.8045486  51.0028744  76.1534548  65.0770473  13.8997912
  76.1710119  65.0992060  12.9430091  76.8141317  65.7163429  14.1663337
  49.8744059  61.6141653  50.4984856  49.9428892  61.3305807  49.5868254
  50.4724836  61.0377645  50.9741879  51.4273977  70.9822702  13.5279334
  51.9797230  70.6499100  14.2355359  52.0131207  71.0379934  12.7729142
  24.8281717  32.0123196  38.9032197  25.7303333  31.8957782  38.6053038
  24.2934084  31.7820501  38.1434584  33.4682441   2.3823285  64.1594362
  32.8229856   2.5573105  63.4744120  34.2984867   2.6810569  63.7883663
  83.6223221  62.0601749  50.6671476  83.0536175  62.0003033  51.4347553
  83.1529427  62.6383829  50.0658226  28.5353303  43.2727242  31.5666628
  28.7263584  42.3421335  31.4494586  27.9074526  43.4774637  30.8737826
  39.0953732  18.4038591   4.8152578  39.8452187  18.8472068   5.2120030
  38.9079857  17.6746905   5.4063839  43.9520836  77.7828693  17.7182376
  44.4365072  76.9976854  17.9732919  43.0776787  77.6548529  18.0860174
  22.6503491  19.1564476  21.7643523  22.9783726  18.5151505  21.1339784
  22.2784972  19.8541498  21.2247515  18.8940299  43.7492990  48.5955811
  18.5656786  42.9814768  48.1277418  19.3155766  44.2796373  47.9193640
   8.6642063  37.4186015  62.5093269   8.8611221  36.5451550  62.8477764
   9.3260050  37.9843783  62.9070091  76.4417887  61.6045475  33.9477944
  77.2011757  61.8645096  34.4693160  76.2555218  60.7079220  34.2263651
  13.9057493  72.7447462  36.8603706  13.7718463  71.8655825  36.5062976
  13.3268917  72.7871370  37.6215267  42.9347277   1.2670371  30.6387091
  43.2429743   1.3928694  29.7412777  42.6958418   0.3411511  30.6822991
  62.3614454  72.9036379  60.5734825  62.0489931  73.3333540  61.3696909
  62.4841928  71.9889259  60.8273888  71.6268253  72.0048952   3.4211567
  70.6879997  72.1322584   3.2847196  71.7696476  72.2397947   4.3380299
  38.7376904  25.4502797  22.3035145  39.1556668  25.1204038  23.0989432
  38.3032703  24.6852779  21.9263101  38.0849624   5.0517797  53.5622787
  38.0718541   4.6647808  52.6869011  38.5311198   5.8907056  53.4466171
  52.7262831   6.3537031  50.8596039  52.5920916   5.6126231  50.2688217
  51.9235325   6.8694252  50.7830811  80.8655167  30.9373808  67.1366596
  81.2164497  31.8133307  66.9760656  80.5006123  30.9838581  68.0203533
  73.8925362  42.5160027   4.7304747  74.6481705  42.2923517   5.2738243
  73.5537291  41.6718960   4.4322664  37.4427676  68.4645510  48.3984041
  36.7180681  68.1360149  48.9304829  37.0369172  69.0964317  47.8049088
  36.9091225  13.0693948  35.4850817  37.6092076  13.3085155  36.0924816
  36.4913988  13.9011514  35.2616549  61.3125992  12.1590781  35.7325673
  61.1479521  12.2933984  36.6658831  60.4854679  12.3871195  35.3081965
  60.8187866  77.5903702  63.1767130  59.9659204  77.5699711  63.6108017
  60.9394598  76.7010498  62.8438711  78.4668970  35.0468135  44.9058962
  78.8622236  35.0362730  44.0342140  78.9928818  34.4299817  45.4149103
  53.4269190  22.4089050   7.7295285  54.0099907  22.5696397   6.9876212
  53.9566326  22.6154137   8.4995878  60.9375715  54.3284893  29.7402501
  61.2327147  53.5023880  30.1232243  60.9517717  54.1732597  28.7958264
  76.9352961  39.0226626   6.9754660  76.3982201  38.4313893   7.5028944
  77.4170065  39.5449781   7.6168489  41.3883257  54.3490362  33.9389563
  41.4136076  54.4745970  34.8875475  42.0401573  54.9619198  33.5987759
  32.7731633  18.5587037  38.0683661  32.8730774  19.4222867  38.4689593
  33.2304716  18.6290205  37.2304177  82.8692627  53.2985258  57.5729275
  83.4484482  53.0029821  58.2753706  82.0077515  52.9577160  57.8135061
  16.1446071   1.0500736  45.3663254  16.9822693   0.9718663  45.8228731
  16.1297429   1.9519362  45.0459242  48.3483076   9.4850349  22.8849387
  48.2282495   9.7814620  23.7871313  47.9289484  10.1612341  22.3528433
   8.9830822  19.8693550  38.8819838   9.4789284  20.3191471  39.5661306
   9.6506935  19.5329273  38.2842016  49.7234440  64.2237329  12.0664322
  49.7489691  63.3642960  12.4870849  49.5044708  64.0371418  11.1534882
  18.6164892  55.8672380  35.4500794  18.1333518  55.9276724  36.2741899
  17.9518783  55.6431437  34.7986913  61.6108084  63.8160181  50.4610491
  62.0631409  63.9881516  49.6352196  60.7637453  63.4550571  50.1994658
  55.9730339  69.5819712   1.8029723  55.2640820  69.0668011   2.1879661
  55.7214880  70.4917812   1.9617032  61.7691326  15.6611395  35.6815290
  61.9702673  15.4019439  36.5807462  62.0301247  16.5808058  35.6332827
  74.6334553   9.5244169  28.4394622  74.4437838  10.2501857  29.0340328
  75.3720427   9.0697724  28.8444567  56.4837980  69.2115688  31.3247871
  57.1216869  68.8535404  31.9421577  55.7120848  68.6547327  31.4278841
   4.1384819   7.7521622  40.4300594   3.4722602   7.5455415  39.7745538
   4.9695006   7.6615250  39.9637699  18.6660743  71.8162012  16.8517768
  18.6652792  71.6622925  17.7965212  18.0205083  72.5108719  16.7217302
  75.8038282  12.3408484  14.0385580  76.0759449  11.5510058  13.5712993
  76.6154814  12.6968706  14.4000804  79.1018677  47.7378178  19.6466208
  78.8652039  48.6038113  19.9786985  79.5388031  47.3100853  20.3830743
  72.8021669   7.0998937  51.8885708  73.5036230   6.8879306  52.5044155
  73.1656790   6.8871194  51.0290289  11.9857681  25.4017115  40.4468346
  11.9241893  24.9190140  39.6225524  12.4438226  24.8059034  41.0396528
  53.7245226  10.7310569  20.7272220  53.3031416   9.8816305  20.5962920
  54.5842934  10.6376803  20.3169632  25.7459831   4.3889478  30.7622766
  25.0661016   4.4207495  30.0892377  25.3646398   3.8601866  31.4631486
  63.6643553  52.1873236  43.1334543  63.8263559  52.5333357  44.0111017
  63.8965654  52.9063892  42.5458765  69.7215271   1.6934137  48.9338827
  70.3360176   2.2164927  49.4486856  69.7875595   2.0495532  48.0478573
  13.6769223   6.2672031  25.8441567  14.0260029   7.1344477  25.6385803
  12.7528095   6.4213270  26.0403562  32.0986986  66.6891909  41.7545080
  31.7715335  65.7896757  41.7463255  31.9161987  67.0184469  40.8744431
  77.5653648   1.6145079  43.2062769  77.0830393   2.2567946  43.7269163
  78.4828615   1.7589617  43.4377098  75.9863806  45.1595354  61.3324404
  76.2284565  45.5434322  60.4896736  76.6381979  45.4984045  61.9460630
   4.4205448   6.2777698  25.1957822   5.0264579   6.0921121  25.9131622
   4.6086618   5.6035978  24.5428395  15.6103428   0.7374302  60.9480619
  15.5565889   0.5305449  60.0150347  15.2370079   1.6158405  61.0205126
  56.8026018  15.3136718  54.3716478  57.0003748  15.3447223  55.3076792
  55.9351730  14.9118447  54.3233252  38.8171339   9.6909630  55.3328991
  38.8988733  10.1243126  56.1824656  38.1821227  10.2226079  54.8529577
  37.7478433  53.2483244  11.9111836  38.2459259  53.9475298  11.4877975
  38.0441308  52.4474716  11.4786553  68.4711647  48.9505720  15.3254020
  68.5352659  48.0383205  15.6081092  68.9992619  49.4355249  15.9595668
  64.2406273  54.1467190  41.2823248  65.1027298  53.8650465  40.9762573
  63.9409447  54.7662878  40.6170750  81.2981892  76.4750862  37.0571232
  82.0175552  76.9659042  36.6598248  81.5204334  75.5569935  36.9023633
   7.1012241   7.3289287  34.4987082   7.5140119   6.4862192  34.3098211
   6.2873417   7.1015424  34.9482894  71.6625261  14.1961956  45.3453445
  70.7406092  14.4525409  45.3210354  72.0521736  14.6312726  44.5869827
  72.2913837  20.0954843  28.2602668  72.8587008  20.1392150  29.0299892
  72.6326132  19.3591225  27.7527547  59.6140528  16.0368633  34.0103555
  59.9615049  16.8878651  33.7433267  60.2428818  15.7131016  34.6553254
  70.6610394  52.8541899   6.8745929  71.5986013  52.9204893   6.6934502
  70.5076170  51.9182062   7.0035481   7.1198922  39.4047117  16.2963510
   7.1730769  40.3368282  16.5074408   6.1856776  39.2414212  16.1666942
  57.7416325  19.5677030  32.3801136  57.9052305  18.8244426  31.7995715
  58.3546591  19.4449496  33.1049323   6.7844123  57.8519773  28.7306046
   7.2420877  58.6638117  28.5122204   6.3943022  58.0202436  29.5883536
  24.2556357  56.6528893  40.4481888  25.0712967  57.0731831  40.1756477
  23.6641645  57.3803425  40.6410646  24.5472741  29.1608572  17.1884620
  25.3796339  29.5592451  16.9341135  24.4285226  28.4392214  16.5709078
  70.7466555  74.8952103  57.4407816  70.0934029  75.0470209  56.7578125
  71.4115429  74.3505716  57.0194435  60.3054810  74.7301245  51.5438414
  59.9284983  74.1426373  50.8888769  60.3193760  75.5869389  51.1173344
  82.4211502  16.6732597  41.8656778  81.5398788  17.0235646  41.7357826
  82.4162006  15.8349931  41.4035988  54.5407295  59.1824102  22.2296524
  54.9129725  59.0299797  23.0982327  54.5620012  60.1334667  22.1234894
  50.7254076  63.7068319  44.8206568  50.3210592  64.0750027  45.6062698
  51.4663124  63.1973839  45.1489162  28.8584423  66.1532497  38.6821294
  28.3182883  66.9406271  38.6149907  29.6401596  66.4386797  39.1550779
  28.4757733  18.7850296  66.8204546  27.7580810  19.4170415  66.7790747
  28.4419370  18.3288133  65.9796476  46.2243700  59.5895815  31.0906053
  46.1799669  60.3101587  30.4620910  46.7077875  58.9018774  30.6327844
  59.2543173  72.5026369  47.3139763  59.4573450  73.3881378  47.6154757
  60.0998497  72.1396589  47.0502472  72.9011250  38.3373928  56.5185118
  72.4252558  39.1472483  56.3343620  72.2194052  37.6687002  56.5843678
  77.1309900  10.5203676   4.5385534  77.7649021  10.5988657   5.2514517
  76.2821436  10.6682229   4.9554819  35.9686708  58.5319567  17.3355317
  35.3692460  58.8055944  18.0298269  35.6452298  57.6727247  17.0647216
  59.0589142  51.5794802  28.0680799  59.6437263  50.9004450  28.4044433
  58.2680464  51.5001774  28.6014366  83.2173443   4.9656892  20.3287482
  82.6389313   4.3695265  19.8530793  83.8605499   4.3929285  20.7464361
   5.2291542  35.6275225  33.7298083   6.0311574  36.1462021  33.6666131
   5.0140536  35.6317496  34.6625161   5.7252997  55.6965303  55.8635044
   5.2915233  55.2021599  55.1680422   5.2791095  56.5433502  55.8694935
  -0.2115870  60.4790974  38.3991599  -0.0864211  59.9601078  37.6046705
   0.5797675  60.3228092  38.9144897  59.2465115  14.9567354  59.0973473
  58.6961365  15.2420652  59.8266649  58.6623621  14.4364333  58.5457277
  78.1889772  21.4091563  56.2974453  78.4228897  20.7040882  55.6937933
  78.9412165  21.4808369  56.8850040  43.5103859  78.3184946   4.2381981
  42.7571787  78.6175175   3.7287876  43.6250367  78.9885703   4.9120563
  66.5735340  74.6104622  24.2524505  66.3699865  74.9723339  25.1149178
  66.9398880  75.3475285  23.7638330  72.1000767  24.3561172  28.5488820
  71.5458393  24.8948956  29.1134858  72.9641867  24.3894172  28.9592934
  18.5147059  42.7612352  57.4152231  17.9816878  42.7525043  56.6202116
  18.5601568  41.8434381  57.6832008   3.2902709  60.2921677  51.7733431
   3.8492957  61.0452461  51.5820408   2.7063283  60.5975676  52.4675846
   1.7781031   3.0361637  47.7504396   1.2005796   2.9533085  46.9916058
   2.6052022   3.3540460  47.3883772  27.8054070   5.6226319  50.0307274
  28.5839295   5.5314791  49.4813395  28.1385684   5.9518015  50.8655262
  22.9738998  61.7607689  30.5080533  23.2983708  61.5763855  31.3895035
  23.3107376  61.0416889  29.9735451  78.8997507  48.1605625  26.6363096
  78.0504322  47.9765701  27.0376062  79.5057583  47.5621510  27.0732260
  68.7314892  74.8223686  18.5185122  69.3851519  75.2464056  17.9625034
  69.0394020  74.9778318  19.4114029  15.1300478   7.9341596  46.8232441
  14.9045074   8.8382834  47.0421553  14.3960261   7.6261955  46.2916374
  60.5427837   6.2193185  27.6057291  61.1172342   5.7169253  28.1835151
  60.8887577   6.0610914  26.7273784  14.1229522  43.5022974  45.0433302
  13.9734232  43.9421463  44.2064285  14.2301738  42.5794125  44.8130751
  52.2642231  40.2642918  13.8534915  52.0863104  39.4379330  13.4043717
  52.6712799  40.8167648  13.1861770  67.4373055   3.2604471  65.4620409
  66.9420719   4.0071914  65.7987118  67.7797318   2.8278691  66.2442541
  58.8530588  57.4656963  21.0902262  59.3715000  57.9952860  20.4844332
  59.4933128  57.1128178  21.7081141  38.8943458  39.7385359  66.9233656
  38.6561346  39.9507141  66.0208893  38.2977796  40.2624321  67.4580383
  53.8915396  34.2880964  43.5091162  54.5089531  33.9926267  42.8399897
  53.3257246  33.5316610  43.6636829  62.1454668  11.9692767  52.0356655
  63.0045319  11.6783082  51.7297602  61.7748976  12.4447882  51.2921619
  14.7053933   4.7716853  58.4983110  15.5778801   4.6543452  58.1225061
  14.7457838   4.3222401  59.3424702  66.5337992  71.3276100  35.0965571
  65.7953167  71.8649387  35.3831911  66.9732666  71.8590450  34.4327211
  64.8090887   6.6477418   7.3235881  65.6066227   7.0461196   6.9750625
  64.1104555   6.9753581   6.7571855  60.4963398  69.9510765  39.5817327
  60.7445192  69.2859459  40.2237940  61.3098288  70.1530886  39.1194940
  14.5509374  11.9217062  21.5711713  15.4179513  11.9933236  21.1719346
  14.7224796  11.8905008  22.5123572  31.8602967  71.7559004  25.7354856
  31.4202285  71.2422037  26.4127517  31.1535716  72.0498133  25.1606941
  66.1174965  28.5072303  37.0678115  65.7980251  27.6539135  37.3610997
  66.9188213  28.6491084  37.5717807  29.7011447   7.5316644  51.7731428
  29.6108770   7.3154128  52.7012157  29.0004301   8.1616443  51.6047525
  67.1100950  12.0450950  38.2589531  67.6401091  11.4591122  37.7186418
  66.4557934  11.4737546  38.6610603  75.1330805  14.1203523  38.1486440
  74.7706747  14.2426145  37.2711778  75.7287312  13.3763015  38.0602336
   2.7750713  17.8015292  58.2306051   2.4703765  17.7840161  59.1378450
   2.1488672  18.3669579  57.7785110  48.8964653  69.7068024  55.4396534
  49.6242332  69.1633940  55.7417965  49.3163252  70.4615068  55.0268936
   0.8259309  17.7975464  40.6221199   0.6617703  17.7083445  39.6833324
   0.0288363  17.4678302  41.0370445  39.2603230  68.3066988  27.1333814
  39.4458914  68.5329771  26.2220120  40.0297308  68.6081743  27.6164532
   2.3293279  10.1418471  15.9133375   1.5042971  10.1506734  16.3985980
   2.4154542   9.2402089  15.6037199  25.7201481   2.7026397  26.8477917
  25.7440281   3.6053395  26.5303111  26.4415550   2.6500750  27.4747205
  83.6775720  78.4781075  36.8477583  83.2906555  78.6564493  37.7049160
  84.3552767  79.1465569  36.7471266  46.8436193   1.6509093  37.3174691
  47.1629143   0.7491797  37.3516369  46.4009094   1.7163321  36.4713264
  65.4378653  77.5642729  36.2733293  66.1749697  77.9439592  36.7516065
  65.2209568  76.7688942  36.7596960  60.5821466  54.3817997  33.0518484
  60.4962683  54.0569973  32.1555424  60.1063061  55.2123451  33.0522561
  64.1875315  71.9138145  66.2393093  65.0729561  71.5502882  66.2495613
  64.0512180  72.1868658  65.3320646  12.0901108  30.1055098  61.9665670
  12.2623324  30.3315210  61.0525131  11.3347507  30.6417370  62.2076511
  51.1681271  78.9250851  35.2039742  51.7257357  78.1599808  35.3451085
  50.2756691  78.5908508  35.2936292  73.5934639  12.7092874   4.3734282
  73.9681530  12.7112639   5.2542442  73.5101700  11.7821050   4.1506588
  13.6077130  32.4052906   4.8694244  14.0841460  31.5865111   5.0067031
  13.4068835  32.4115229   3.9335501  13.4834611  64.2167425  50.8527184
  14.2973912  64.3651342  50.3713369  13.7650776  63.8603020  51.6952562
  76.3028240   1.8214975  21.5218854  77.1142960   2.1232016  21.1135745
  75.9601736   2.5932670  21.9726562  21.4437175  64.1479635  48.8412571
  21.8498445  64.8790598  48.3756447  22.0771790  63.9146900  49.5198917
  50.4962206  64.3767262  37.3369265  51.4180851  64.2608547  37.1067643
  50.0176573  64.1003466  36.5553737  30.3447413  28.4242225   2.8405398
  31.1993098  28.0969787   2.5597227  30.4721570  29.3670201   2.9460275
  62.4790764  71.9235706  64.0356874  62.0644808  71.3488483  63.3922338
  61.7504311  72.3916054  64.4434309  61.2103415  62.7077532  25.8983231
  61.1790609  62.5976706  26.8486571  60.5413055  63.3662796  25.7113409
  36.0247350  73.1413412  17.5487471  36.0751057  72.1862841  17.5091434
  35.1331425  73.3460474  17.2669864  31.1728573  50.1807356  23.0794692
  30.3430057  50.4243183  23.4896493  31.1039877  50.5124521  22.1842289
  24.8658419  74.8912811  44.4091606  25.7094193  75.0010347  43.9703417
  24.2591667  75.4285479  43.8997221  44.7595787   3.3009323   8.8914442
  44.5934200   2.7608550   8.1188262  45.5127525   2.8885812   9.3144399
  75.7514954  48.4684229  43.1720972  75.3878736  47.8363132  42.5520515
  75.5117702  49.3222761  42.8119659  47.4418020  75.9699488  25.3658891
  47.5401211  76.9133139  25.2369404  48.3203936  75.6666136  25.5945706
  18.8965011  63.6602592  49.8779678  19.8101342  63.9444542  49.9051762
  18.8997507  62.8024530  50.3026867  10.8779657  18.9729476  60.5246449
  11.5855014  19.1558480  59.9064445  11.3247573  18.7031794  61.3270378
  32.1109796  76.7413759  57.4105692  31.2551570  76.6790724  56.9864082
  31.9825339  76.3386726  58.2693863  80.1385307   9.0492219  37.6909757
  79.7108078   8.5893935  38.4133625  79.4253874   9.2699283  37.0918536
  13.4860063  22.9103994  41.2656021  13.4786093  22.9541469  42.2217703
  14.3148899  22.4820399  41.0518408  14.2083192  24.2227173  13.6742759
  14.1630256  24.0537095  14.6153474  13.7615585  25.0614834  13.5597908
  66.7153454  22.3567486  44.3808222  67.4494267  21.7428327  44.3593502
  67.0568085  23.1223321  44.8429012  81.7666245  25.8048439  44.1601419
  82.3456192  26.5642643  44.2256308  80.8840370  26.1752868  44.1666460
  63.5727835  59.1966677  21.3773870  64.4181728  59.6430922  21.4247966
  63.7367916  58.3324528  21.7548347  22.0638943  76.7937851  47.0597076
  21.5131307  77.3284960  47.6315260  22.7853942  77.3722982  46.8127346
  79.2431498  24.8773432  40.1814985  78.5901213  25.5048442  39.8716164
  79.0653229  24.7893596  41.1179113  34.5321798  22.5631261  41.8734074
  34.1117120  21.8690634  42.3810625  33.8528657  23.2295632  41.7703056
   1.4530727   4.9455053  41.4398479   0.5906624   5.0590503  41.0403633
   2.0579195   5.3631759  40.8267021  70.3013229  63.0811691   5.2069235
  71.1047363  62.7590466   5.6155789  70.2410889  63.9951706   5.4847914
  42.3718452  77.6707315  42.1776199  42.5978565  77.6447487  43.1073904
  42.9246807  76.9992971  41.7778921  66.0291767  65.4959583  52.5559902
  65.3949308  65.8965445  51.9614363  66.7004490  66.1673546  52.6778650
  76.9615650  57.7318573  64.0093899  77.3920059  58.2542181  64.6862125
  76.0790014  58.0975771  63.9496946  82.8439522  75.7257318  45.4885006
  82.1114731  76.2180805  45.1179695  82.9209900  74.9532652  44.9285126
  81.1136913  66.3399076  15.9583306  81.4368629  65.6805086  15.3443420
  80.6352139  66.9626474  15.4110777   7.5591141  42.6253557  11.2779689
   7.8118098  41.9517183  11.9093072   7.6162380  43.4459162  11.7675090
  17.8152132  41.3802719  47.8514910  17.1282995  41.3247538  48.5157967
  17.3450661  41.5437460  47.0338917   4.1642833   4.9311459  47.8583813
   4.7675976   5.6536788  47.6846313   4.1964966   4.3962181  47.0652580
   8.7027824  26.1334705  16.0020530   8.7619579  25.4765701  16.6957486
   7.7892470  26.1003947  15.7181668  22.2038889  11.7405999  23.9612269
  22.5337625  11.8377340  23.0679297  21.9325542  10.8244228  24.0180516
   0.7437894  57.3005104  59.4673967   0.3674903  58.1689930  59.6101236
   1.2698662  57.3949718  58.6733246  37.1044445  55.5792475  23.3476710
  37.8798532  56.1089087  23.5332370  36.6622567  56.0429049  22.6365304
  18.3125031  10.3819227  45.0958776  17.8868425   9.5355070  44.9594021
  17.8098679  10.7920718  45.7996988  11.1696804  73.5014534  27.1776032
  10.7751238  73.0715561  26.4188266  10.9135199  74.4198179  27.0926356
  82.9065704  77.3404074  28.1416130  82.7632999  77.6206017  27.2376251
  82.4440861  77.9908085  28.6701179  15.9208238   1.5378495  21.8973708
  15.8967328   1.5419850  20.9404826  16.8532693   1.5283698  22.1134448
  45.7895565  11.5025938  49.3746233  45.7612419  11.2841082  48.4431219
  45.7219362  12.4570930  49.3989182   6.6973084  26.0448885  31.9443059
   7.5725263  25.6611300  31.8899441   6.1418414  25.4461932  31.4450550
  13.0938995  31.5100265  59.4077730  13.3423913  30.5986571  59.2532206
  13.8101697  32.0208406  59.0306044  69.0916729  11.7931283   0.1329354
  68.9974689  12.3912787  -0.6083968  68.8387203  12.3143530   0.8948887
  57.4889565  11.3343263  64.0292931  57.5912333  11.2988460  63.0782366
  58.0044889  12.0949626  64.2974186  16.1513305  10.6082630   1.9695595
  17.0673501  10.8621013   2.0822793  15.6536520  11.3753653   2.2525808
  19.1980076  24.5509577  42.1236372  19.9259603  25.1690006  42.0577621
  19.4787061  23.7945008  41.6086531  29.2216372   1.2157068  49.1025543
  29.3427896   0.4030007  49.5935392  29.3891978   1.9086576  49.7412825
  71.9671679   4.1987699   1.2348336  72.2160292   4.9919897   1.7092830
  71.7040920   3.5831058   1.9189239  34.9685574  26.3468528   1.0248636
  35.9176135  26.2619996   1.1160935  34.7067547  25.5772305   0.5195218
  21.5485740  74.2112350  47.3543024  21.6431808  74.3695068  48.2935762
  21.5871000  75.0823879  46.9595432  78.2363081  71.3799191  28.7771487
  77.3865747  70.9420156  28.8264179  78.0225325  72.3100758  28.7040925
  69.6122837  76.5398836  34.0770102  69.0067053  76.3050365  34.7801113
  69.3807602  77.4411297  33.8525558  80.8065414  15.5590653   1.1240318
  80.0272274  15.4388297   1.6666657  80.5360603  16.1843121   0.4516205
  72.2902203  12.7529526  48.9274311  72.5546265  13.5987377  49.2893267
  71.8054914  12.3301172  49.6362877  81.9263935  61.0138369  29.2003298
  82.4095821  61.2034082  30.0045848  82.3024559  60.1928568  28.8828444
  14.5664608   5.5772108  19.0200365  14.0479279   6.3429642  19.2669713
  14.7059035   5.1071429  19.8421216  60.9426975  68.7398672  21.5941405
  60.3226948  68.1289244  21.1959195  61.3043833  68.2617092  22.3403168
  31.6729975  29.3441224  31.4671159  31.6105580  30.2739120  31.2484241
  32.5803971  29.2243958  31.7473340   1.9958141  23.2136869  26.2202716
   1.1529031  23.1778431  25.7681131   1.7735335  23.4378862  27.1239066
  81.7204571  22.4914718  26.2911773  81.7840195  23.3955860  25.9833336
  81.3580132  22.5640154  27.1741295  36.9132853  43.4371567   7.0612371
  35.9874129  43.2317066   6.9316995  37.0894766  44.1477966   6.4446533
  23.9963770  40.3817129   3.8991132  24.0824914  40.4524136   4.8498064
  24.5819974  39.6638775   3.6582968   2.5587031   0.2177355  21.6167212
   2.5789762   0.0125363  22.5514483   1.7041716   0.6266981  21.4797640
  68.4591055  55.8131838   2.9106623  68.7979794  56.3579369   3.6210430
  68.2267666  56.4355373   2.2215131  49.5936346  69.9340725  10.8083010
  49.8284245  69.0101433  10.7219219  48.8334656  70.0424671  10.2367842
  65.8087111  77.7236414  25.8493423  65.2810955  78.0607700  26.5733552
  66.7093229  77.7615261  26.1713552   7.5512755   8.7924308  55.9274912
   7.4085516   9.2318892  55.0891972   7.4038506   7.8654015  55.7401037
  48.4510946   1.2318616  45.6155109  49.3543625   0.9344507  45.7245493
  48.5259151   2.1737286  45.4621506  75.2584982  59.0103006  41.8408537
  75.0000143  59.8133612  42.2930861  74.9629354  59.1373634  40.9393406
  28.5071254  12.7458966  18.8600516  29.3329573  12.2986865  19.0450907
  28.5686779  12.9901040  17.9365766  37.8284383   2.8913191   0.3197985
  37.5932002   3.2019806  -0.5544926  37.7991343   3.6751452   0.8684237
  57.0653391  78.8040066   1.0312621  58.0045652  78.8526678   0.8531714
  56.6773653  78.5343599   0.1987946  81.6753006  58.6653328  44.3914843
  81.7561913  57.7570772  44.6826220  82.0916176  59.1771364  45.0850010
  83.2628632  17.8689623  38.2787132  82.3508644  18.1464374  38.3653212
  83.2473183  17.2075593  37.5869489  25.9320879   6.8288374   4.6548811
  25.8669472   6.4881605   5.5470288  25.1556301   6.4878094   4.2109847
  18.9658487  21.1879539   5.2430522  18.4347165  20.5454898   5.7135534
  19.6992636  20.6821561   4.8930481  11.7519546   4.1860971  48.7567139
  11.0330021   4.8028237  48.8945055  12.1600378   4.4726366  47.9396486
  21.1637068  42.9519558  18.2606673  20.2579856  43.1729555  18.4776068
  21.0945654  42.1728468  17.7089036  49.2557287   6.5911233  19.8857760
  49.1395187   5.8998096  19.2339993  49.0205717   7.3965734  19.4251406
  26.7951894  24.2743206   7.6639515  27.6983118  24.5640254   7.5348353
  26.3998580  24.9569821   8.2060969  51.7814589  39.9471426  62.1498013
  52.6747513  40.2910137  62.1458197  51.7223263  39.4434500  62.9616070
  79.8736715  63.2337904  52.1464014  80.6820679  63.6609697  52.4296618
  79.2297983  63.4736776  52.8128195  21.9482279   7.5190514  32.3409510
  22.7998900   7.0852453  32.2888088  21.9457006   7.9391956  33.2010102
  33.0246520  42.1458054  67.9759455  33.3084488  42.3793745  67.0921278
  33.5828280  42.6676130  68.5524750  41.9215727  72.0435429  40.4993773
  42.8624296  72.2074080  40.4348326  41.8160915  71.5766096  41.3282824
  19.5795095  21.7514896  28.3284259  19.5372093  22.0823646  29.2256236
  18.9212871  22.2597241  27.8544307  24.1779208  19.4283116  51.9877291
  23.4343123  18.9362383  51.6396761  24.8890138  18.7890112  52.0310163
  65.7373095   4.4830501  60.5633307  65.3367043   3.6266714  60.4137850
  66.4726639   4.3044108  61.1494827   8.9928913  11.8567455  32.5744677
   9.8773807  11.5333009  32.4033117   8.5481459  11.1239505  33.0004311
  31.5125132  17.5631976  40.4795122  31.4098835  17.8492498  39.5718360
  32.4367023  17.3249054  40.5524969  70.9878778   7.3586380  32.1725607
  70.4194593   6.6265208  32.4115849  71.5734529   7.4620372  32.9226565
  53.5017456  78.9158320  39.9166799  54.3736328  78.6665083  40.2230930
  52.9549851  78.8882965  40.7018709  19.0402710   4.9036279  30.1042914
  18.1455839   4.6559447  30.3375721  18.9791620   5.1923847  29.1937327
  14.8167241  14.4202328  67.9120922  14.9082029  13.8010466  67.1878910
  14.1265607  14.0471482  68.4604692  37.5332975   2.5821424  35.8886456
  37.9860210   3.3733547  35.5966568  36.6272235   2.7065980  35.6062055
   4.6756345  78.0133820   6.8262196   4.2989364  77.8787279   5.9566224
   5.6133676  77.8628302   6.7069578   8.5484391   4.8941225  24.3323541
   7.8005123   5.3223306  23.9158487   9.2310965   4.8984596  23.6613894
  77.7459669  69.5128107   8.0390948  78.1854391  70.3602123   7.9683053
  76.8442488  69.7296953   8.2759529  11.3474572  36.3106775  15.2142441
  11.1447346  35.4782796  15.6411493  10.5334640  36.8115163  15.2672315
   8.4319746  13.8237894  37.5617552   8.0261499  13.8194168  36.6948533
   9.0768671  13.1172502  37.5278831  17.2281086  26.1572099  25.9669137
  17.2058022  26.3818002  26.8971252  16.6522563  26.7992163  25.5516386
  70.0610876  76.7860794  10.1564765  69.7494888  76.0482931  10.6806946
  70.6197119  77.2846127  10.7528293   0.2737704   4.3218827  56.7629957
   0.7747327   4.3605304  57.5777197   0.9285749   4.1460705  56.0873127
  66.6991663  54.2552185  44.6518087  67.4639845  54.8034668  44.8270464
  66.9120407  53.8005733  43.8368177   8.3227903  53.0460072  30.4010320
   8.1619585  52.6395798  29.5494556   9.1252542  52.6306772  30.7169175
  18.7223339  28.5602260  30.6213498  18.0842233  29.2466140  30.8160710
  19.4653618  28.7549496  31.1925101   9.1598886  35.8011508   5.0459421
   9.5278227  36.3075137   5.7701331   9.6966332  35.0094032   5.0102663
  62.9780865  15.4248321  33.0328894  62.5299644  14.7257936  32.5566936
  62.8033733  15.2366436  33.9550018  80.5031013  68.8467932  13.7989628
  80.9121227  69.0772772  14.6331108  80.2386284  69.6859217  13.4219360
  18.5687637  33.5403895  32.1797609  18.5484624  34.3785357  31.7178869
  19.2230046  33.6618757  32.8678322  34.9529576   3.7447560  42.2498989
  34.0605879   4.0759659  42.1488810  35.4570794   4.2064446  41.5798712
  12.1990585  13.1401122   1.8882683  12.3353279  12.4148464   2.4979009
  12.9624581  13.1147361   1.3113733  62.5225973   4.0291619  58.5904074
  61.6274548   3.6988211  58.6667633  63.0735350   3.2894248  58.8463163
  12.2315741  62.4700928   0.3680752  11.3220346  62.1794701   0.4352202
  12.1836746  63.2987022  -0.1087324  37.1680140  75.3713560  31.3594675
  36.2409496  75.4394817  31.1311173  37.3220277  74.4317675  31.4578652
  57.0313787   3.9216995  11.3750947  57.4534750   3.7939903  10.5255330
  57.7471590   4.1579643  11.9650662  25.5940294  33.1254458  10.2902389
  24.9380088  32.4358606  10.3919280  25.9825206  33.2166266  11.1602926
   6.3744473   3.2652846   5.8318722   5.9788454   3.3788818   6.6960639
   5.8896232   2.5388417   5.4401350  83.1074047  48.0226994  22.0063186
  83.5942173  47.3707819  21.5020871  82.4759960  47.5114202  22.5124288
   2.7643150  24.0618777  14.4512701   2.2008856  23.3625150  14.1201019
   3.6381164  23.8370895  14.1316259  34.1710581  79.1667808  46.1899328
  33.6783852  79.2072021  47.0096111  33.7725081  78.4432099  45.7063675
   9.5281780  27.6926517  63.3247852   9.4360811  27.8440833  62.3841381
   9.5796567  28.5697317  63.7046719  10.1479149  18.9274406  52.0170975
  10.3728902  18.5600913  51.1623049  10.8471322  18.6278200  52.5980949
  18.3865833  70.7792234  11.6644287  19.0504360  70.7609367  10.9750831
  18.4205091  71.6727734  12.0059693  34.0275550  74.3159199  55.0241089
  33.4283185  73.9271927  55.6613207  34.2861438  75.1499271  55.4162836
  20.5293870  42.1146631  12.3317695  20.2267194  42.9662371  12.0164132
  20.8697677  41.6773891  11.5512800   7.6434815  14.9587512  22.9107881
   8.2101136  15.5735683  23.3767915   7.6124215  15.2937174  22.0146489
  19.9668896  36.2018132   9.0179002  20.8586192  36.3005900   9.3515080
  20.0595546  35.6380224   8.2499254  26.3785696  12.6856577  30.4517579
  25.7148075  12.1669912  29.9971867  26.0594368  12.7470088  31.3521028
  57.7392244  44.3137980  60.7606745  57.9525661  45.1408195  61.1928177
  56.7827034  44.3009090  60.7270384  78.6548901   5.7093734  25.0092840
  78.5496140   4.7587934  24.9699402  77.7604103   6.0500234  24.9993658
  26.8397379  16.9389236  64.9215174  26.1915731  17.5247371  64.5304441
  27.6409864  17.1018648  64.4238424  24.1125035  78.5656500  40.7164431
  23.5865951  78.8702869  39.9769521  24.9598503  78.3417320  40.3316116
  36.6344428  31.9660020  21.8970776  37.1678662  32.6869965  22.2315240
  36.6820431  31.2963223  22.5793505  21.6576815   9.2645299  37.9813910
  21.7477369   9.9945796  37.3688960  22.4936986   9.2378253  38.4467888
  83.8380031  25.5477190  56.5481472  83.1305687  25.9828997  57.0239449
  84.2541507  26.2475872  56.0449219  48.9696884   7.1204710  47.9553032
  49.3943119   7.6060396  48.6625195  48.7907887   6.2582505  48.3305407
  54.8783398  74.1737604  49.5312643  55.1244068  73.8264036  48.6739302
  53.9448881  74.3699646  49.4512701  27.3368979   5.5236423  65.2474689
  27.5472546   5.0589252  64.4375181  28.1146169   6.0509825  65.4299450
  24.6462154  50.1529551  60.1589060  25.3961372  50.1412439  60.7536411
  24.0400743  49.5089340  60.5250454  33.2872677  15.9842205  32.2663999
  33.4696341  15.1159084  31.9072199  32.9710412  15.8147526  33.1538200
  22.3518443  18.4901392  59.7591019  22.2599387  18.4710169  58.8065195
  23.0705118  19.1020644  59.9181509  10.9159112  12.2159851  37.6332355
  11.5368176  11.5622914  37.3116875  11.4658594  12.9167783  37.9834890
  -0.2116850  38.5414028  33.4738827   0.6415865  38.1462884  33.2948375
  -0.3913954  39.0820789  32.7047253  51.8623161   5.4169977  54.5262527
  51.8351555   6.0287416  55.2619600  51.0344076   5.5578434  54.0669537
  25.1370239  38.8978243  24.2143011  24.6927118  39.7138882  24.4442153
  25.9741759  38.9425349  24.6762681  76.9784546  69.4136810  42.2651911
  76.2241793  69.9925041  42.1544504  76.6422462  68.6771774  42.7758408
  45.3972912  63.2295179  36.4035845  45.8335495  62.6595974  35.7702589
  45.1231098  63.9905643  35.8918571  83.2249355  21.4478135  34.2627549
  83.1942654  21.3689756  33.3092999  83.2283783  22.3911405  34.4250941
  41.2221289  27.9211950  19.2536616  40.4171801  27.4063230  19.1971064
  41.2524366  28.2192278  20.1627755  24.5547295  54.9640083  49.0755129
  25.4613709  54.9485731  49.3820953  24.4062495  55.8723211  48.8125372
   0.2137021  31.5404606  13.4537494   0.2110078  31.7623377  14.3848753
   0.7935657  32.1890831  13.0546498  19.5899951  60.3002930  22.6363277
  19.1502631  59.6597528  22.0772433  18.9509058  60.4998541  23.3204126
  33.4178734  34.2238665   1.2442164  34.1394615  34.1760468   0.6171171
  33.8064933  34.6138239   2.0272481  78.2686472  24.6583366  45.5328512
  77.5152206  25.1107526  45.9121895  78.6387491  25.2872920  44.9134398
  29.2045403  38.3659124  18.6971438  29.4783282  38.1931233  17.7963579
  29.9678373  38.7746358  19.1052544   9.4377798  22.2763968  55.1058006
   9.7796988  22.8665924  54.4342422   9.3394023  22.8280020  55.8818722
  83.3496166   2.4495620  39.7500849  83.0439922   3.0917692  39.1094637
  83.2279845   2.8792441  40.5967331  82.4495506   1.2700956  66.5315533
  82.6278400   2.0422809  67.0683718  83.0700207   0.6120519  66.8449688
   4.3004569  10.1116002  43.1642437   5.2143556  10.3951836  43.1397009
   4.1654855   9.8160541  44.0646124  39.6493530  29.5106220   8.1921411
  38.8371825  29.0124416   8.1003493  40.2463818  29.1144395   7.5574529
  58.8923597  28.4572697  18.6357903  58.9842176  27.9609752  17.8224730
  59.0817451  27.8222752  19.3265462  72.1240377  71.0126114  15.6856334
  72.8217936  71.5641880  15.3318918  71.9375849  70.3850079  14.9873650
  71.2726164  68.0518723   7.4244034  71.5446234  68.3093929   6.5435362
  70.3269577  67.9212236   7.3544598  69.2123127  70.4318476   5.8467948
  69.5387173  71.3314152   5.8686113  68.6598110  70.3585911   6.6250044
   6.1788726  64.8924160  34.9354649   5.5264580  64.2960835  35.3028560
   6.9078815  64.8609686  35.5549717  75.3807306  65.8777761  62.2554159
  74.6548176  65.5772352  62.8021812  76.1596155  65.7400370  62.7944851
  24.0037441  34.6315861   2.6745489  23.5462427  34.6317506   1.8337610
  23.4769583  35.2023482   3.2339764  20.7606435  33.0048394  34.3756962
  21.0703778  32.4029613  33.6989093  20.0519824  32.5312495  34.8112941
  14.7357476   4.0365300  24.7183871  14.4949055   4.4708246  25.5366874
  15.4906976   4.5303431  24.3983388  22.6300144  23.3579516  57.0546055
  21.9906878  22.6826072  57.2813272  23.0582237  23.0269980  56.2650871
  44.5555687  31.5122485  16.0492969  44.6312618  31.8287778  15.1491237
  43.6127806  31.4572525  16.2053680  38.7056065  12.3540938  40.6210279
  39.5774555  11.9780028  40.7421303  38.1621480  11.9143844  41.2748957
   6.7581135  67.2024298  46.3478565   6.0714281  66.8464422  46.9117451
   7.5755572  66.9304132  46.7650223  27.6245737  57.1702099  28.7803984
  27.4969196  56.2508106  28.5466361  26.7840719  57.4426556  29.1485810
  31.8481112  31.8536568  44.3360901  31.7526937  32.3725533  43.5374212
  32.7804875  31.9065452  44.5461130  31.3541770  38.2469702  31.5188551
  31.7315555  37.4694848  31.1073565  30.7722425  37.9011869  32.1956277
   1.9754121  42.3956013  43.9097643   2.8234431  42.1099186  44.2495584
   2.1660523  42.7149725  43.0277872  37.9742432  12.1200573  32.8089643
  38.5523534  12.6016223  32.2172594  37.9960775  12.6202083  33.6248088
  23.5137534  30.8774400  33.8086224  24.0956593  30.1723170  33.5250449
  22.9420066  31.0330677  33.0568790  78.8761806  59.5231724  25.6535292
  78.3539438  60.0582266  25.0558472  79.3770933  60.1570415  26.1668777
  11.1839652  26.6245437  50.7766294  11.2611687  27.5638151  50.6091785
  12.0341992  26.2653613  50.5230093  32.4417043  34.3692517  42.7791262
  31.7858410  34.9353194  43.1861162  33.1386089  34.9667239  42.5078726
  34.4330907  71.3971281  24.8264980  33.5328794  71.5966368  25.0834990
  34.3631577  71.1019278  23.9186454  16.2372386  21.3943338  32.5758362
  16.0588944  20.5171561  32.2367454  16.5171015  21.2494040  33.4796643
  55.4787779  78.2080364  17.5530934  55.1411104  77.7726030  16.7703986
  56.3072777  77.7646065  17.7352679  28.3087611  26.7095661  34.5445228
  27.4417162  26.3945842  34.7999668  28.7119436  26.9930458  35.3650808
  20.2894163  21.7803574  41.6181803  19.7316158  21.1894441  42.1240616
  20.8366585  22.2129130  42.2736645  41.2682009   3.6000875  23.3435845
  42.0641804   4.0404874  23.6414051  40.6890249   3.6110082  24.1055989
  18.3918071  45.5189228  42.1262407  18.1826043  45.2550173  43.0222416
  19.2230403  45.0839329  41.9363260  78.4877443  66.4682531  50.9137630
  77.6089716  66.5685272  50.5477905  78.9821672  66.0172176  50.2294016
   1.1853012  27.6826954  55.3281832   1.7341286  27.9229593  54.5816612
   0.8503883  28.5167313  55.6574965  32.7783155  29.6666431  26.1103487
  32.9402637  30.6096196  26.0820580  32.7500653  29.4563746  27.0437407
  33.0145764  34.3038678  24.2211628  33.6629200  33.8739705  23.6634231
  32.1913505  34.2197967  23.7400579  81.8976879  70.2923155  40.3944778
  81.9069099  71.2335110  40.5685425  81.0152054  70.0124121  40.6375980
  16.2763929  42.9412270  14.1993308  17.1799171  42.7048922  14.4091451
  16.2847161  43.1060600  13.2564664  33.1844068  32.7350760  35.0407767
  33.8727283  33.0900025  35.6033349  33.1769896  33.3129501  34.2777324
   9.4821864   2.7181634  28.8205338   9.6417660   2.8876796  27.8920794
   9.9959815   1.9337025  29.0125442  18.3253026  35.1457357  40.0709009
  19.1638553  35.1773524  39.6104002  18.0624104  34.2263961  40.0269175
  11.7425585  31.4652777  30.4119086  10.9768224  32.0326662  30.3227496
  11.6971087  31.1412263  31.3114405   1.0771748  44.9577093  43.7759733
   0.7894201  45.4014587  44.5737886   1.2275666  44.0519714  44.0466309
  13.8561988  10.3808284  38.0551624  13.9515054   9.4631779  38.3102417
  14.0924239  10.3973949  37.1277165   2.6976287  14.9175239  40.4433250
   1.8533665  14.4815123  40.5588579   2.9511994  15.1863158  41.3263226
  40.2855873  22.7962708   2.8915572  39.6674800  23.4078240   3.2917795
  40.9231806  23.3559179   2.4482729   2.4357124  23.6620736  44.0027189
   2.3591149  22.7082109  43.9800882   3.3716685  23.8298702  43.8928938
  16.5023184  35.1964498  25.1193213  17.0898724  35.8190823  24.6911383
  17.0785940  34.4982862  25.4302979  65.5497456  78.0783892  52.5750780
  66.3051224  77.4905109  52.5806665  65.7841110  78.7635660  51.9491100
  25.8512378  14.1778147   2.9028237  26.4502263  14.3972278   3.6164784
  25.1206684  14.7873819   3.0073494  21.6154528  29.8035741  15.2353513
  22.0144224  30.0916624  16.0563636  20.7679915  29.4420123  15.4948020
  29.4025350  64.6670914  59.9335766  29.6498871  63.7478447  59.8334074
  28.4481192  64.6519041  60.0049257  45.9202623  17.4236917  17.7390599
  46.0469580  16.4767146  17.7974880  46.0240555  17.6222563  16.8084514
  71.1046648  78.1025410  25.5512571  71.3137245  77.3103905  25.0562572
  70.7294798  78.6982203  24.9026918   5.2643299  11.5322459  35.1813602
   6.1375237  11.1860049  35.3654313   4.7755429  10.7819319  34.8432064
  51.6664648  32.8025961  13.0636799  51.0229969  32.2730279  12.5927842
  51.3391972  32.8337932  13.9626551   7.3248863  10.5297446   4.2349207
   8.0424953  11.0581696   4.5842576   7.7530783   9.7545654   3.8716295
  10.7394350  60.6043768  12.7347302  10.5768800  60.4943562  11.7978716
   9.9321711  60.3070402  13.1544292  68.3626986  24.9674439  19.0352678
  69.1905451  24.4924712  18.9624238  68.6168146  25.8901000  19.0543365
  19.3797290  48.6953735  55.1570654  20.1171207  49.1335392  55.5819130
  18.6928618  49.3611670  55.1229429   6.7197239   3.6501092  28.1908464
   7.3255408   3.3728534  28.8781214   6.8899715   3.0497664  27.4650121
  24.6102405  24.3092871  17.4155235  25.3669906  23.8482857  17.0535290
  24.4552422  23.8882256  18.2610488  30.1572490  11.3619578  21.4897251
  29.7843099  12.1820283  21.8131971  31.1040688  11.4907217  21.5461445
  16.5924478  63.3120584  27.5364804  16.5320659  63.7044668  28.4074593
  17.5273764  63.3262300  27.3316908  17.2981238   0.8704836  15.4022753
  17.0987260   1.7743587  15.6461656  18.0367374   0.9428962  14.7977614
  19.9689364  52.0421362  34.5416880  19.7745085  52.7272129  33.9020753
  20.0933909  51.2519741  34.0159678   1.3109693  56.7715740   7.7398193
   1.7088455  56.0352993   7.2752464   1.8540570  57.5241995   7.5056338
   3.7630516  31.3616037   5.3847784   4.6745110  31.2070560   5.6329483
   3.4527218  30.5119801   5.0716245  45.7983923  10.2635527  46.5233040
  46.6054296   9.7840071  46.3363314  45.3677797  10.3486073  45.6726742
  12.8220153  23.0541849  19.7422087  12.8957891  23.7453532  20.4002929
  11.9708443  22.6509023  19.9128103  18.3231878  17.6066220  32.7272725
  19.0985835  17.0706022  32.5609088  18.5463333  18.1151521  33.5069108
  75.5756664  67.8763008   5.8144128  74.8022413  67.5833893   5.3324914
  75.4277658  68.8108110   5.9594989  40.3250074  29.6604347  45.7411766
  39.3963099  29.5882368  45.9614897  40.3331423  29.9969053  44.8450994
  23.1466913  36.4198852  36.0740161  23.0808091  35.5920267  36.5499830
  23.3976173  37.0598340  36.7401505  21.0975909  16.6544676  32.0365644
  21.3236499  17.5783384  31.9289017  21.0381103  16.3167274  31.1429048
  28.2229567   2.1979095  22.0835137  28.2417369   2.4410987  23.0091143
  28.9798307   2.6438043  21.7033148  21.9308114  25.3349781  27.2676897
  22.8484011  25.4763365  27.0347095  21.4430857  25.5864549  26.4833975
  26.2549496  18.5647058  26.3161302  26.0331178  19.4935644  26.3812900
  25.5164671  18.1128776  26.7244554  38.8019943  13.5619533  18.2026410
  39.7420192  13.7010908  18.3176339  38.6293364  12.7247500  18.6333513
  24.5240593  29.1858888  44.1882610  24.6630216  29.6332574  43.3535242
  24.4082999  29.8932028  44.8227167  81.6907978  67.5560427  29.8222065
  81.4059925  68.2759476  29.2593050  81.2504768  66.7845583  29.4656157
  40.8868361  18.7101030  22.2365856  41.1222792  18.3878827  23.1066275
  39.9453402  18.8746953  22.2888160  17.4307656  31.9467807   2.4108468
  17.9799819  31.5523553   3.0883583  17.2029388  32.8088236   2.7589980
  21.2525940   3.3549002  48.9711237  21.8379974   3.0502537  49.6644640
  21.7786121   3.3021492  48.1731558  36.3141704  33.9116311  40.6190920
  35.6502795  33.5718417  40.0190735  35.8778667  33.9349008  41.4707518
  71.0542393  76.0566664  23.6672401  70.6012058  75.8147287  22.8594899
  71.6615105  75.3341866  23.8268709  30.9675503  24.8012161  45.8337355
  31.6538739  25.1528072  45.2666569  30.5448890  24.1234541  45.3062630
  47.8680944  60.5325937  26.7513227  48.7755680  60.8131313  26.8697190
  47.9347467  59.6249819  26.4546227  13.2254076  49.0643549  30.0341916
  12.7349460  48.3108664  29.7056603  13.6326981  49.4431686  29.2551875
  34.3421149  15.2834415  54.5540571  34.3569827  15.2310896  55.5097103
  34.0888047  14.4051659  54.2699862  20.3132725  42.4109173  50.4651690
  20.8974695  43.1434202  50.6610918  19.6571839  42.7794218  49.8735762
  60.6021976   6.2446278  54.3080997  60.0598907   7.0215607  54.4441509
  60.9078979   6.0095197  55.1841736  52.6084948  39.1274619  64.7474337
  51.7305183  38.7645960  64.6303225  52.5213718  39.7322965  65.4841948
  66.3173962  23.2983971  32.8270245  66.8299723  23.3517313  33.6336565
  65.4654360  23.6674786  33.0597782  32.2818422  25.3266048  13.2321513
  32.7030945  24.5663881  13.6332107  32.1645665  25.9440660  13.9541054
   8.2649636  75.4298162  48.0301142   8.1614923  75.9189224  48.8463879
   8.4561723  74.5346117  48.3098888  16.9782174  32.1915936  22.1152020
  16.0530341  32.1222901  22.3507142  17.0001841  32.8515506  21.4222336
  37.3248768   4.4907027  17.9063618  38.1945825   4.8895636  17.9338002
  37.4859309   3.5559100  18.0346417  32.3038554  21.6992903  49.9742937
  32.0698619  20.7812190  50.1107645  31.8651915  21.9394970  49.1581392
  35.9513593  16.8090439  32.3454165  36.3991928  16.2806404  31.6847587
  35.0379443  16.5266156  32.2991562   0.9927529  20.1853871  37.8857231
   0.1708812  20.6390691  38.0726218   0.8046892  19.2645717  38.0672789
  18.1354415   9.3820441  23.9421344  18.0230343  10.3325665  23.9523172
  19.0021312   9.2392677  24.3225217  66.7989731  63.2177210  13.3120036
  66.3177395  62.5712395  13.8284373  66.7120695  64.0324116  13.8069415
  12.1369255  22.1907067  60.7621956  12.7514076  21.4991617  60.5164146
  12.6033413  23.0044985  60.5713367  41.1689377  21.8390536  22.1671033
  41.8940020  21.7309022  22.7825832  40.3887224  21.6151142  22.6743937
  67.1844244  40.1835155  49.8454905  66.5809965  39.5904422  49.3978691
  67.1908903  40.9725142  49.3035746  32.1336985  11.0803711  30.6627369
  32.6679897  10.6283474  30.0097132  32.1068668  11.9890034  30.3629017
  52.1450758  35.7042885   7.1900004  52.7578735  36.4354873   7.2678435
  52.6867580  34.9666405   6.9094861  43.3321381  21.7315555  34.6212697
  43.0119991  22.4213791  35.2025485  43.9709949  22.1695638  34.0589142
  30.6212687  31.9267130  67.9793406  29.9341798  32.5804663  67.8499317
  30.1479602  31.1113310  68.1447601  77.4283886  31.9421554  38.4862208
  77.2082186  32.6134086  37.8403306  77.5187016  31.1381102  37.9747677
  54.5724010  56.7413616   4.9984425  55.2035141  56.2490940   5.5234230
  54.1528893  56.0810375   4.4468829  51.7238045  68.9554596  61.4589882
  51.0072565  69.5798159  61.5728951  51.3300371  68.1027126  61.6433859
  12.9973578  55.9442234  14.6706784  13.1014907  55.0447464  14.3603063
  12.2806084  55.8977985  15.3034079  32.5267506   2.2232497  47.5885487
  33.0937099   2.5469500  46.8885469  32.8557587   2.6497871  48.3797836
  -0.0567987   2.0124201  26.6212106  -0.2261999   2.1676899  27.5504184
   0.8677313   2.2321452  26.5063143  83.8459060  12.3484886   0.8973706
  83.4399316  13.0683649   0.4144698  83.8068813  11.6046953   0.2961377
   0.0843075   5.0655037  64.9356842   0.6105153   4.3159187  65.2139997
   0.6967015   5.6230563  64.4557476  27.9894638  21.6414690  28.6741781
  28.4133840  21.8013954  29.5173550  28.6969852  21.3416505  28.1034279
  13.4783411  22.8502512  31.4805436  14.1580510  23.4473586  31.1679912
  12.8874910  22.7483201  30.7343936  24.1471386   6.9853538  42.5874949
  24.2341566   7.0849067  43.5355186  24.7275090   7.6531911  42.2222614
  16.5129459   2.1266046  39.9555850  17.2350645   2.4268095  39.4036317
  15.9144187   2.8726259  39.9936557  54.1705132  33.3261061  15.1883054
  54.9447012  32.8722954  15.5213475  53.5096359  33.2040644  15.8699059
  69.7525787  42.4087143  37.4643397  69.8073196  42.0050383  38.3305287
  69.5331335  43.3237171  37.6399589  36.4257884  24.0676689  18.6853898
  35.7546329  23.3861470  18.7216127  37.2363305  23.5956979  18.4943509
  78.0375814  57.6082420  16.0759878  78.7356281  57.7206850  16.7212152
  77.2315121  57.6113081  16.5921950  38.5380626  32.5552893  15.6620467
  38.9653468  31.8167901  15.2281356  38.0940580  33.0240393  14.9553883
  14.5676899  13.8378656  49.4073629  14.2739975  13.7039387  50.3084993
  15.3840804  14.3303466  49.4922161  19.4587672  36.5981841  55.4513168
  18.9261246  36.7944741  54.6806097  20.3379536  36.4494038  55.1032829
  72.0055723  38.9772677  16.0414362  71.3431072  38.3065176  16.2071633
  72.8175259  38.4861326  15.9159279  44.8057079  23.2261705  32.3167014
  45.6120396  23.7339473  32.2260189  44.2043781  23.8117409  32.7768540
  31.2591743  19.0322423  64.4812965  31.0709810  19.8254108  64.9829912
  32.1967554  18.8861048  64.6070671  29.8722649  59.9327230  17.6944447
  29.8640203  60.6266022  17.0351338  30.1328373  59.1476917  17.2127187
  19.2766440  34.3284535  15.5434883  20.0392413  33.8127947  15.2812433
  18.5479522  33.9426851  15.0572538  76.6369295   8.6501890  62.0108080
  76.4514399   8.4800398  61.0872984  77.5923586   8.6427385  62.0685291
  49.8594475  70.3187323   4.1675526  49.3438339  69.9085140   4.8618799
  49.9940872  69.6216774   3.5255113  35.5793953  32.1137476   3.8092130
  35.8332753  31.3196158   3.3389664  35.9704161  32.0135093   4.6771333
  12.9696453  33.7136126  18.2125592  12.6684356  34.0012574  19.0743971
  13.5261881  32.9562283  18.3938372  50.0196552  22.7651191  55.1785994
  49.2397738  23.3095193  55.2865124  50.5686092  22.9809690  55.9324503
  40.2529812   4.7750407  18.1988955  40.4172564   4.1047251  18.8621616
  40.3510141   4.3157727  17.3648119  39.3271327  37.3239732  24.9623370
  40.2751398  37.2396636  24.8603177  39.0881419  38.0512571  24.3877316
  32.8871989  39.7262621  20.5351853  33.1316638  38.8014913  20.4995823
  32.7072740  39.8909760  21.4607811  13.9774287  26.6503716  57.0919609
  13.7996650  26.8501878  58.0110359  14.8757148  26.3197684  57.0881319
  54.8077106   2.6809990  12.6039803  55.0014734   1.7670181  12.3958254
  55.4437733   3.1827784  12.0941997  22.6488495  28.6013174  64.9186516
  22.1172428  28.5165477  65.7101345  22.5167370  29.5066214  64.6372175
  34.7336912  20.3489017  34.4530392  34.7136664  21.3052464  34.4178843
  33.9879298  20.0739527  33.9196777  55.3185749   4.9089721  63.1574774
  54.4414186   4.6580970  63.4471130  55.2718687   4.8827752  62.2017765
  26.6878796  58.5174608  35.5507421  27.0255613  59.2360735  35.0161386
  25.7435346  58.5260534  35.3946352  22.1273971  35.7520533  57.6778412
  22.3019791  35.8381248  56.7406416  21.2546873  35.3615737  57.7240372
  71.0553694  46.2074089  26.6337585  70.6755781  45.6643152  27.3244429
  70.9383106  47.1054697  26.9436169  29.1811299  25.9749866  23.9584255
  28.7260842  25.1378369  24.0497851  30.0416994  25.8237243  24.3492889
   9.8356688  30.8596969  21.1168456   9.0998209  31.3825679  21.4352226
   9.5014572  29.9629569  21.0970259  66.2908411  41.3302088   0.0443577
  66.1130571  40.3908730   0.0919631  66.3100100  41.6169214   0.9574081
  41.3888073  28.3866477  27.1230316  41.3799667  27.8778386  27.9337525
  42.0111036  27.9275680  26.5589142  34.2721772  25.1187348  22.5776529
  34.9119997  25.6700802  23.0280757  34.7213006  24.2824912  22.4543023
  10.2425456  16.3676083  21.6022468  10.4842019  16.1735940  22.5078917
  10.7295191  15.7283509  21.0822129  30.9818840  53.1572056   6.4066803
  31.6139221  53.8107157   6.1072105  30.3968096  53.6398315   6.9906253
  27.4382377  43.6950111  17.8626192  27.6971006  42.8010321  17.6389492
  26.4818931  43.6842918  17.8236258  82.2126484  41.4852285  19.0293360
  81.8441105  40.6032419  18.9791763  81.5496635  42.0451689  18.6254263
  25.3368783  57.8727627  29.9292397  26.0403943  57.9995584  30.5658078
  24.7056198  57.3108339  30.3786635  81.3823223  15.2488732  37.7678132
  80.8091545  14.5882964  38.1568527  81.0364914  16.0830188  38.0853605
   7.3572510  37.1243787  23.1976414   8.0448097  36.6734648  23.6877155
   7.5742376  38.0530286  23.2798481  55.3174162   0.0057309  30.0779438
  55.8070564   0.6123810  29.5225525  55.7953835   0.0012756  30.9072542
   1.9372895  70.7750511  42.8259993   1.7454205  71.4339542  42.1587181
   1.3903031  71.0227489  43.5714436  48.8939524  10.2748072  26.0756874
  49.6638727  10.3182256  25.5086160  49.1694069  10.7021713  26.8866849
  29.8319101   6.6934323  39.5980597  29.6013641   5.8645612  39.1784739
  30.1700807   7.2364223  38.8859963   0.5841615  21.4635277   9.3035799
   0.1761761  20.9583998   8.6002839   0.7884418  20.8147240   9.9770451
  32.6985788  71.0320902  67.1744919  32.2380137  71.8558455  67.0146751
  32.2270775  70.3877354  66.6465473  34.8803902  12.4579203  51.5672207
  34.6753192  13.3902621  51.6373253  35.8092260  12.4336183  51.3372040
  72.4477720  15.2615261  42.9896069  73.1852055  14.9856901  42.4452353
  71.7294407  15.3933728  42.3708630  38.6076355  24.4253182  39.9377918
  38.3240247  24.5253253  40.8465242  38.5825467  25.3127837  39.5800090
  27.5363231   1.5969209  38.7871575  26.7415428   1.8962476  38.3456182
  27.2187471   1.0968632  39.5390344  43.6416721  63.1447697  30.8008456
  44.1656494  63.3025217  30.0154805  43.1994486  63.9776659  30.9650230
   2.4902165  56.5041113  23.9737797   2.4439862  55.6262398  23.5950470
   2.6289317  56.3544989  24.9089813  12.3899877  35.7161999  52.8416014
  13.2851386  35.8552885  53.1507778  12.4199271  34.8707771  52.3937225
  47.0790577  16.8096209  45.9077168  47.5936747  16.0081911  46.0031605
  47.6645947  17.5068510  46.2030935  20.6554985  35.5129576  38.7919307
  21.4780378  35.1258636  39.0916276  20.8395433  36.4504266  38.7326860
  65.2116585  22.2681761  16.4935958  64.9398613  22.4853325  17.3853374
  66.0707378  22.6794076  16.3982010  31.3570046   9.4318861  44.3813753
  31.8348551   8.8853484  45.0052214  30.4445910   9.1570807  44.4720125
  38.6552501  75.1094866   0.5777378  39.0090632  74.3054581   0.1974954
  39.4240308  75.6561804   0.7400292  12.3997962  47.9964590  55.1081371
  12.8663242  47.1687365  54.9921274  12.8153682  48.5946989  54.4871378
  15.0675237   3.7916192  36.5378118  15.5150080   3.3655018  37.2688460
  14.1398144   3.6070120  36.6844678  80.5697823  23.9962363  31.6624141
  80.5331707  23.2716441  32.2867966  80.8946419  24.7371173  32.1740723
   3.4912696  46.8257809  33.9667010   4.1428760  47.2482491  33.4070921
   3.9917436  46.1921692  34.4807959  30.6090045  31.9825029  18.8289189
  30.6144452  31.0271692  18.8884127  31.2600899  32.2661567  19.4706821
  13.3280516  15.2703655   3.0468801  12.8522539  14.5298159   2.6708010
  12.6525462  15.7968855   3.4743160  34.1178536  18.6147821  64.2010212
  34.0095448  17.8581524  64.7772264  34.7217894  19.1894984  64.6713352
  67.7085495  59.2826319  60.8054972  67.9489279  58.3607531  60.8981943
  68.5391521  59.7322655  60.6500578  68.2853842  29.2093873  64.5646858
  68.4546804  30.1496601  64.5058680  68.3291864  28.9010572  63.6595631
  21.5940094  28.6150408  31.5758443  21.5728307  28.2345247  30.6977844
  22.2327900  28.0841494  32.0516038  12.8644001  39.4172311  21.5441632
  13.5173357  40.0425386  21.2296820  12.1427751  39.9620628  21.8582463
  83.6564075  21.4465714  52.8598976  83.5561689  21.0061073  52.0159960
  83.2108584  22.2861028  52.7463055  39.4951272  10.0615370  38.0303645
  38.8903499   9.3195981  38.0325794  39.2026401  10.6111228  38.7574410
  42.5872612  65.8977842  30.0364161  41.8863010  65.7539320  29.4006538
  43.2032537  66.4763689  29.5869446   4.7174007  44.0719843  23.6488509
   4.2538264  44.1034698  24.4857144   4.0950355  43.6660814  23.0454135
   5.4707760  65.6026316  14.7774327   4.9623215  65.9902096  15.4898155
   5.6286800  66.3282871  14.1735113  22.8870654   1.8221883  43.5623837
  22.7777934   1.3498673  42.7370310  22.8396654   2.7463380  43.3175707
  35.1999998   8.1161934  24.9449301  34.9010348   7.2135335  25.0547361
  35.5606246   8.3546245  25.7989407  10.3236628  32.7507949  26.0216355
  10.9828436  33.0306602  26.6567659  10.8080280  32.2136807  25.3946352
  43.8792706  67.0756531  16.1041343  44.0308332  67.4394989  16.9764149
  44.4532824  66.3109016  16.0605621   4.3071240   4.0125862  15.0201929
   4.6406534   4.8640040  15.3031731   4.9919301   3.3921096  15.2697563
  37.6717448  34.4896650   9.5604026  37.0074677  33.9058304   9.9266076
  38.4840107  33.9850712   9.6033007  49.3985558  35.1574945  13.0312860
  49.1815329  35.4865551  12.1590161  50.2519608  35.5440044  13.2276022
  24.6380067  46.1521196  30.2838302  24.7096920  46.2068176  31.2367725
  24.4241691  47.0434761  30.0081706  40.1028109  20.7580900  10.0072765
  40.5773592  21.3711119   9.4458187  39.5438218  20.2660394   9.4059038
  24.1313481  49.5429182  35.4674125  24.0844131  50.4820967  35.6462240
  24.0427494  49.1307640  36.3267803  20.5208588  40.6394768  16.8931472
  20.8202577  40.8494854  16.0085642  19.8787987  39.9404812  16.7690587
  11.9568408  57.2907019  22.8211308  11.8832588  56.3408422  22.9137874
  11.2578619  57.5267220  22.2112513  23.6730599  20.2580333  26.7215061
  22.7454042  20.0807738  26.8772912  23.7352252  20.3953171  25.7762456
  21.1140323  25.0763726  11.2795806  20.3488040  25.0294065  11.8526888
  21.2779188  24.1686034  11.0239851  47.8276873  61.7258739   3.0908680
  48.7443399  61.9117260   2.8873038  47.6287222  60.9312534   2.5956678
  10.1164734  24.5973468   0.4589291   9.6046376  24.3928337  -0.3236505
  10.9938121  24.7894597   0.1278674  21.5737820  47.9671478  38.3164096
  21.2229228  48.8413477  38.1463814  22.4470663  47.9791975  37.9246688
  21.8535018  57.7867460   9.5353329  21.5716529  57.2543383  10.2791953
  21.5657258  57.2950363   8.7661541   9.7199959  29.7474360  35.9618950
  10.1274467  29.5463538  35.1194096   8.8189965  29.4369221  35.8723831
  50.9565878  18.0714250  16.9509888  50.4631138  18.2817960  17.7437437
  50.5183125  17.2989726  16.5939629  33.2554817  56.4944601  21.8322015
  32.4718404  56.1027575  21.4465761  33.8578176  55.7597589  21.9489741
  61.2904453  54.2032433  56.1617327  61.5858984  55.1090622  56.2535286
  61.9875860  53.7729168  55.6667137  27.0346260  52.6913881  23.4373212
  26.4371204  52.9385614  24.1430974  26.4640927  52.5309467  22.6856661
  32.5743771  42.8876019  16.3826549  32.4405074  43.5689020  17.0415497
  32.8585172  42.1228075  16.8832374  14.5486796  23.2822585  47.2537518
  14.2698014  23.5920882  48.1154156  15.4742086  23.5207820  47.2014666
  19.1852105  63.0045557  33.2927918  20.0346804  63.0772638  33.7279296
  19.3157709  63.4218788  32.4413109  11.2512040  17.3867214  41.5011692
  11.2233233  18.2032859  41.0024977  11.8387449  17.5732243  42.2334576
   9.5353180  30.2685666  64.5136881   9.4046569  30.8341932  63.7526226
   8.6583787  30.1529050  64.8795176  22.3750901  71.9206476  34.5410562
  22.0482993  72.5882149  35.1442099  23.3078575  71.8503523  34.7441292
   5.7970935  46.5710068  31.5323448   6.1558300  46.0527754  30.8119416
   5.8175695  45.9806013  32.2854924  59.2564011   9.6542293  65.2943850
  59.2311287   8.8669980  64.7504520  58.5839176  10.2244759  64.9217987
  22.3690128  33.6610436  10.5950344  21.6506934  33.7137747  11.2254858
  22.7250648  32.7800965  10.7107472  54.5503616  37.6844001  16.3445306
  54.5616484  37.7005363  15.3875339  55.4588509  37.5120878  16.5919030
  53.6638212  40.1421499  51.7934752  53.8033104  41.0430050  52.0854282
  53.8828182  39.6066189  52.5560236  18.1514406  36.9756436  23.0085874
  17.5474072  37.4547434  22.4412799  18.9912784  37.0140719  22.5509572
  24.2000961  18.7390876  31.6696310  24.7362447  18.5533929  32.4405360
  24.6764946  19.4284475  31.2069654  24.0899754  35.3245616  19.1950870
  24.2812204  36.2278008  18.9424634  24.7369766  35.1228046  19.8710418
  43.6723948  33.9007401  21.9277477  42.8535223  34.3880272  22.0184708
  43.5458517  33.3631563  21.1459422  36.0091519  57.4907780  21.9219351
  35.7176018  57.7882290  21.0601020  35.6047678  58.1034565  22.5362086
  36.3343906  42.6148081  21.7523122  35.4245543  42.6200581  22.0496416
  36.8487096  42.7154255  22.5533009  33.5378122  41.0003471  18.2378304
  34.4920158  41.0520887  18.1825995  33.3643818  40.7304859  19.1396773
  21.5645051  31.1654472  31.4623690  21.7648029  31.5182543  30.5953956
  21.6015768  30.2157211  31.3488889  30.7167482  46.3049650  39.6767759
  31.2042236  45.4892159  39.7914362  29.8717213  46.1398220  40.0949764
  76.4302635  23.6058331   5.4015094  75.5111790  23.4318399   5.6045997
  76.8827486  23.5117364   6.2397432  36.6492534  32.7415729  32.3720789
  36.4626265  33.1770039  33.2038260  37.6044035  32.7439499  32.3095131
  76.1505318  39.7298169  24.7961307  76.1299372  39.3949938  25.6926227
  75.8297777  40.6287479  24.8687625  74.1780090  75.3947639  61.0894203
  74.8243999  74.6891832  61.1131048  73.6715412  75.2290154  60.2942753
  36.1995459  64.4480085  29.6409702  36.5173054  65.0747490  30.2909350
  36.2743068  63.5968447  30.0724435  48.5144281  70.4622269  30.8007240
  49.1087389  71.1506748  30.5022883  47.6581860  70.8877611  30.8454490
  19.4175935  37.5231338  26.4374638  19.3448555  36.6716838  26.8687105
  19.6966004  37.3167372  25.5453944  20.4505944   9.9125677  55.5113697
  19.6709907   9.4323838  55.7904291  21.0385394   9.8738462  56.2657213
  14.3519390  31.7900467  22.3013163  14.1972542  30.9652376  22.7617478
  14.1161907  31.6047716  21.3922906  56.6424084  61.5737486  41.6448641
  56.2714863  62.2412872  41.0677719  57.5894928  61.6707039  41.5455532
  35.4170346  26.9113374  10.5816329  34.8261166  26.7434907   9.8475516
  35.5035233  26.0638428  11.0180998  42.6897287  18.0962300  13.2097018
  42.3183823  17.2475827  13.4508073  41.9287205  18.6482894  13.0298913
  34.9347997  51.0160160  21.2466216  35.5813646  51.4477015  20.6882024
  35.4416037  50.3817415  21.7536521  33.5005736  60.9548950  36.4985228
  33.5204697  61.3692999  35.6359100  34.3810987  60.5973434  36.6128349
  56.2840796  58.8714743   4.3436331  55.4771328  58.5063744   4.7066391
  56.9710875  58.2732916   4.6376279  36.0847497  39.1544437  17.9015720
  36.9277883  39.5706892  17.7219653  35.9009194  38.6375284  17.1172011
  75.0578117  72.5965261  62.6211977  74.1806364  72.4226332  62.2797823
  74.9229097  73.2523298  63.3052683   4.1663292  54.9364901  43.7621212
   3.5294697  55.6406927  43.6406946   3.7752244  54.1814375  43.3226204
  81.4558601   7.9145801   3.9608726  80.8819675   7.8083992   3.2021856
  82.0802307   8.5901237   3.6962217  63.8850260  56.2053490  39.8046923
  63.7786055  57.0723629  40.1960945  63.1515551  56.1262321  39.1947770
  24.7677922  47.2518587  23.3617234  24.0828872  47.0424795  22.7266645
  24.7113633  46.5534544  24.0138555  28.3072948  16.8906558  31.7827153
  28.3722353  15.9382415  31.7125559  27.3845172  17.0540905  31.9776583
  80.2642155  22.1160364  33.7797618  80.5613518  22.5919366  34.5553017
  80.8772945  21.3855553  33.6975098  48.1805277  28.4791684   8.0031592
  48.6302423  27.7136874   8.3609754  48.5409355  29.2189503   8.4920979
  67.6386213  26.3075519   1.0813760  66.9806337  25.6142020   1.0308879
  68.3210611  25.9492469   1.6489375  47.2913122  56.6089344  20.2078795
  46.6097689  56.4620209  20.8637333  47.4736881  57.5472593  20.2580285
  35.1098800  50.7073116  26.9528270  34.4811034  50.9135389  26.2612057
  35.8719468  50.3613091  26.4883184  17.1105647  29.3749166  21.7976141
  17.3060131  30.3018689  21.9346905  17.0123637  29.2885184  20.8493924
  41.2807703  18.3775520  25.1976490  41.8267107  19.1244590  25.4432321
  40.5990362  18.3481932  25.8689237  29.8230219  42.8223038   1.6437384
  30.0593710  43.6660433   1.2584187  29.3344069  43.0488300   2.4350493
  80.6347847  22.6257491  18.2365596  79.7200871  22.8288198  18.0407798
  80.6534863  22.4950528  19.1846097  68.6714458  55.1110458  20.6920338
  68.3152199  54.2313528  20.5676579  68.9640951  55.3764248  19.8201597
  31.6909599  33.3456540   5.9763873  31.1728477  32.5408006   5.9749109
  31.8190527  33.5463428   6.9035047  40.3744459  44.1675186  20.1914954
  41.2826109  44.0180826  20.4544306  40.1311255  43.3765650  19.7104383
  13.5538697  43.4845734  23.2632756  14.0194976  42.6983404  22.9782176
  13.9288378  43.6875200  24.1202712  33.7271047  32.4312520  26.5479445
  34.3552065  33.0373597  26.1550641  33.5270405  32.8140306  27.4021602
  24.3615603  16.3151312  13.6798370  24.7790456  17.0029438  13.1613278
  24.2562008  16.7012453  14.5493472  44.7907639  11.3863969  17.5298131
  44.9577188  11.6701889  18.4286010  43.8593578  11.5596259  17.3930526
  23.5278034  53.2047462  17.4248457  23.7530613  53.5932255  16.5795195
  24.3681335  53.0964327  17.8702044  51.6022587  48.5741806  12.0287287
  51.6957903  48.7434578  12.9661870  51.9533539  47.6918554  11.9084656
  23.2389665  74.2965126  54.8039389  22.8931022  73.5358620  54.3370199
  23.2090116  74.0449190  55.7269955   8.3764583  64.5457649  36.5958667
   8.7904662  64.4599915  35.7371044   8.4771550  63.6827946  36.9975734
  52.7014399  64.3463659   2.7006921  53.4279871  64.0820932   2.1363182
  53.1047869  64.4971371   3.5555661  53.9279604  61.9870615  20.7826114
  53.7193632  62.8358221  21.1729002  54.7754860  62.1204138  20.3581715
   9.1471124   7.0009100  42.0051718   8.3021718   7.3976344  42.2171116
   9.4958234   7.5435299  41.2979269  47.7314377   1.4705883   9.1901863
  47.9583502   2.0660205   8.4759009  48.5644150   1.0737835   9.4449890
  72.0109034  42.7349997  41.2907600  72.0800209  43.1993294  40.4565859
  72.8417253  42.2669649  41.3739109  43.9461279  27.6757717   6.1345041
  44.1464758  26.7551708   6.3035768  44.7852087  28.0610490   5.8820546
  32.4873137  17.9821026  30.5419087  33.1429887  18.6545098  30.3570032
  32.9598689  17.3185718  31.0445499  23.2765102  33.7080574  36.4492846
  22.7024698  32.9460621  36.3713622  24.0032601  33.5222435  35.8546925
  63.9872599  14.1767609   5.7894206  63.4379768  14.0701246   5.0127941
  64.7388554  14.6843553   5.4833454  66.9048262  56.2101650  26.1390495
  66.3897991  56.9960737  25.9565067  67.7087069  56.5387487  26.5415907
  16.1122561  39.7136307  10.7805872  16.4174378  39.2640781   9.9925518
  16.8976414  39.8138261  11.3185108  10.6903446  63.2445288   5.5613804
  11.2940300  63.3717966   4.8295349  10.8755517  63.9729643   6.1540926
  22.0603561  33.5836554  25.7332420  21.6596651  32.7973866  26.1039948
  23.0002952  33.4033227  25.7482791   6.6121781   3.6391184  66.2839127
   7.3823458   4.0842703  66.6373444   6.7802560   3.5799986  65.3434420
  43.3870411  46.1725283  16.1648023  43.9293289  46.4055490  15.4112399
  43.9221382  45.5547762  16.6630852  35.2260971  47.7209520  38.8184428
  34.2809963  47.6525402  38.6830354  35.6091094  47.3839140  38.0085421
  19.5617819  45.0132036  12.1240592  19.2536545  45.9191513  12.1005166
  19.6336973  44.8088312  13.0564165  27.4868155  31.9850349  38.5266542
  28.2221627  32.3787856  38.9961863  27.8935838  31.3655996  37.9207897
  81.0356617  54.1179276  27.6265669  81.4928913  54.2385864  26.7943358
  81.7292023  53.9115000  28.2531571  47.2440815  43.9670753  35.2044916
  47.8702402  43.6861467  34.5372295  46.4611483  44.2108822  34.7107220
  42.0930672  53.4974670  24.6736264  42.9146528  53.3376169  24.2092204
  41.4121151  53.2565928  24.0455222  25.5623603   0.4318451  62.3267794
  25.6783628   0.7311971  63.2285357  26.0964513  -0.3602276  62.2667789
  57.4951839  32.9897475  55.1143169  56.6132736  32.7810454  55.4223824
  57.3700094  33.2868147  54.2130280  54.6665239  57.0275402  51.7127514
  54.0538692  57.4716759  52.2989511  55.4794502  57.5264406  51.7932749
  30.5129242  28.0169606  22.5760269  31.3575649  27.6063013  22.3911738
  29.9514437  27.2941971  22.8563643  23.2893538  65.2035284  45.6526184
  23.2156086  64.4147539  45.1153803  23.4779310  65.9028149  45.0267839
  34.1710591  65.4545116  15.6178784  33.5027170  65.1978064  14.9825418
  34.2250943  64.7134399  16.2213099  74.2196178  29.2038727  30.5211139
  73.5580969  28.6108398  30.1648307  73.8094568  29.5801473  31.2998414
  22.4868584  63.5843801  38.2325602  22.8947973  64.3179607  38.6926413
  22.6213002  62.8340244  38.8114595  44.4267130  73.1336689   6.6623485
  44.6454000  74.0333271   6.4194143  44.6977234  72.6094532   5.9087026
   7.7310163   2.1708401  31.6600680   7.7777064   2.2345312  32.6140046
   7.7180624   1.2302168  31.4831734  77.6660633  69.5285845  32.6120806
  77.2312021  70.2190304  32.1116686  78.1704140  69.9965191  33.2775831
  42.3393679  75.1595736  40.5874062  43.0047750  74.5455647  40.2768278
  41.9570065  75.5226755  39.7885394  48.7257910  46.1838198  36.5333390
  48.9504433  46.0097933  37.4473834  48.2108927  45.4230976  36.2642384
  44.2379999  38.6925268  38.6904478  43.3332777  38.9372659  38.4959936
  44.4919825  39.2679572  39.4119763  42.4107075  42.5345802  26.4580226
  42.6793051  42.9202843  25.6241655  43.1985283  42.5650692  27.0008326
  20.7443166  52.8243208  18.0412960  20.6104159  53.7500191  18.2447410
  21.5770125  52.8007269  17.5698161  53.0663633  66.3706207  42.7660322
  53.0079603  65.4202175  42.6682806  53.3596373  66.5010786  43.6678076
  17.3452795  56.7764616  28.9255905  17.3485148  57.6746368  28.5946798
  17.5530374  56.8632221  29.8559332  55.5176067  78.0254364  41.4072514
  56.3092518  77.9263830  40.8783722  55.7430887  78.6952639  42.0527935
  75.0890112   8.3832890  14.8916984  75.2227449   7.6156330  15.4476213
  74.1399717   8.5073483  14.8789108  10.4846978  67.8162861  18.2189059
  11.3481653  68.1007433  17.9193389  10.6055355  67.6224470  19.1484523
  64.0317392  62.0370483  51.8032789  63.9271593  61.1485338  52.1436214
  63.1368303  62.3484898  51.6677332  44.6801901  70.6034660  24.7740841
  44.8965645  71.2739325  25.4220748  43.8568592  70.2269030  25.0848317
  77.3508787  61.5573311  49.8327732  77.2438765  61.7419672  50.7658815
  76.6212034  62.0131540  49.4132090  56.6753864  44.6536207   5.1200175
  57.4345970  44.7107744   5.7001585  56.1932516  43.8875246   5.4312670
   4.7016022  41.6678238  44.3462515   5.4705626  41.1022282  44.2752934
   4.8028529  42.3000860  43.6347580  31.9400501  45.0447989  17.9714417
  31.6788101  45.9294558  17.7157700  32.7575994  45.1665783  18.4541571
  50.4310989  44.3821478  19.3014145  50.5770159  45.0365829  19.9845350
  50.0197554  43.6477852  19.7571993  63.7388849  13.7343001  21.4299655
  64.1528606  14.0295482  22.2409439  64.2822361  14.1054296  20.7347918
  33.5385251  68.1821108  15.4726982  32.9022813  68.3431053  14.7759151
  33.6803889  67.2356749  15.4535079   2.2545503  58.5117435  38.7675214
   2.9678309  59.1082621  38.5403013   2.1833774  57.9255533  38.0141640
  71.3301182  43.6827374   3.3736104  72.2551394  43.5606384   3.5873014
  71.0353041  42.8194618   3.0836672  30.6918550  11.0313547  52.4460745
  31.1502337  10.7590222  53.2410336  29.9632049  10.4156959  52.3669147
  10.9944665  46.4165926  47.1768856  10.5852556  46.8464470  47.9278898
  11.9345284  46.4919949  47.3406839  29.0434933  50.8014202  24.9017191
  28.7606454  50.3713036  25.7087064  28.2359481  51.1397886  24.5149255
  21.7317486   5.2957106  59.5575857  20.8454204   5.4702127  59.8741388
  22.1633196   4.8507875  60.2869844   8.0820620  47.8172874  12.0391846
   7.6882637  48.4998751  12.5825381   8.1172144  48.1996584  11.1623776
  50.7928181  27.0289826  42.9577112  50.1262760  27.5348210  43.4225559
  50.3141403  26.2899113  42.5823832  36.2764788  70.9975433  14.9975038
  37.1916294  70.7259321  14.9271023  36.0918760  70.9762478  15.9364927
  62.5918484  53.7237835  23.3009791  62.8864431  53.0457830  22.6928973
  61.6807604  53.8856506  23.0561280  58.7139511  51.5137196  15.1521647
  59.0268946  52.2498989  15.6778455  59.4477892  51.3024616  14.5750320
  27.1240473  63.1315327  22.9630423  26.2818718  63.1701803  23.4163380
  27.7315855  63.5850906  23.5473490  69.1711712  65.6165218  35.7301354
  70.0301886  65.7002783  36.1440229  69.1772175  64.7421837  35.3406096
  46.0871172  43.0814648  39.9512243  46.7772770  43.7440348  39.9812722
  45.6677866  43.1332874  40.8101225  46.9426441  44.4679594  32.4552751
  46.0582542  44.8072338  32.3175144  46.9504213  43.6269379  31.9982648
  25.6907654  60.0389004  42.1346855  24.7597480  59.8295975  42.2097206
  25.7193494  60.7986212  41.5531015  73.6473894  61.0763454  61.0578918
  73.2767200  60.9988546  61.9369984  73.5769320  62.0079279  60.8495140
  51.5557957  54.0259409  26.0857010  50.9827757  54.6701956  26.5014124
  52.3875046  54.1088295  26.5521979  58.8477659  18.1363142   7.3455477
  59.7125959  18.4902966   7.5528961  58.9234447  17.1990132   7.5243509
  17.6966083  45.3161097  18.7570822  16.7714930  45.0704098  18.7520874
  18.1593585  44.5027542  18.9584303  57.2013283  60.6970930  22.8798032
  58.0083036  60.2375555  22.6477623  56.8345118  60.1871490  23.6020422
  14.7202384  55.7575274  44.0906668  13.7801278  55.7346535  43.9120531
  14.8895311  54.9560308  44.5858145  48.4619093  40.3841639  17.2160184
  48.4092855  39.7134376  16.5351439  48.0182409  39.9954963  17.9698944
  40.3795576   1.2565663  52.1362257  40.7945538   2.1141940  52.0440960
  39.7661018   1.2073345  51.4030933  65.7986975   0.6126508  38.7081361
  65.0819921   0.8775140  38.1315804  65.5358744   0.9225042  39.5748234
   2.2742413   5.9741378  39.0208364   1.9523042   5.6191880  38.1922245
   1.7284507   6.7442787  39.1796684  47.9989290  47.0662642  32.4218774
  47.8020430  46.1311102  32.3675084  47.5126076  47.3692322  33.1886458
  20.4598832  56.1185837  21.9145584  19.9309027  55.6015730  21.3070130
  21.3548899  56.0319138  21.5864038  19.0210569  17.4699044  27.2675896
  18.7174785  18.1923735  27.8172350  19.9230993  17.3173857  27.5491714
  41.4537573  42.9076385  10.6843317  42.4056149  42.8358936  10.7553601
  41.3122511  43.4768200   9.9278641  66.6654825  22.9473829   8.0164361
  66.6885424  23.4649587   8.8213062  66.9690132  22.0790720   8.2812679
  56.3978148  58.7968683  39.2092800  57.1084213  58.1557274  39.1946721
  56.6468811  59.4455051  38.5508966  29.6293283  58.7098789  32.6194286
  30.0756121  57.8630829  32.6203775  29.5472574  58.9363289  31.6930294
  14.2894793  77.5192833  27.6582265  14.7155511  77.0783520  28.3932590
  14.5847607  78.4276962  27.7200961  52.8948116  70.4424524  29.7900510
  52.5210524  69.9154282  29.0838051  52.5698233  70.0332451  30.5920243
  47.5780964  24.7704029  12.0231795  46.9719791  24.4852638  11.3394034
  48.4288454  24.4301844  11.7462122  40.2555370  40.9741306  40.7341146
  39.9143314  41.8183565  41.0292387  39.6289921  40.3324127  41.0685873
  16.8849981  60.2271557  49.5614290  17.7488112  60.1109409  49.9570990
  16.7070854  61.1639071  49.6455574  40.3902292  48.8786745  34.8613644
  40.3900290  48.0457640  35.3330517  39.4879913  49.1914940  34.9273109
  46.8103456  51.1908293  42.1442652  46.3969088  50.3478479  42.3305082
  46.6610622  51.3293695  41.2089825  66.7612028  53.7079000  49.0231276
  65.9472895  53.3767414  48.6435127  67.3597431  53.7812662  48.2797623
  33.1720185  42.6326847  21.5162516  33.1397820  41.7009163  21.7330384
  32.4554062  43.0204105  22.0186138   6.0460562  11.7337787  22.6811624
   6.2777066  10.8150959  22.8175116   5.9934044  11.8289077  21.7301559
  67.3334789  38.1646204   8.0726492  67.3780394  37.6095700   7.2940826
  66.5664673  37.8473687   8.5493857  45.6925106  63.9077425  10.7374680
  45.3469992  63.7359333   9.8614901  45.5671120  63.0848360  11.2100470
  62.9748011  60.6615543  39.8525739  62.6533031  60.8120823  38.9636350
  62.9469299  61.5241241  40.2666187  70.0705910  55.5605698  59.4660568
  69.5673609  55.7016182  58.6641264  69.8755693  56.3245964  60.0087023
  26.9864464  65.3466988   5.3479016  26.2853193  65.4927874   5.9829688
  26.5311384  65.1366854   4.5325372  63.3477068  46.1027908  55.0083923
  63.2982635  45.3230715  54.4553804  63.7930155  45.8057690  55.8019352
   3.5910475   1.3950604  55.3538847   4.2390096   1.0100992  54.7638130
   2.9571912   0.6936781  55.5039501  37.7365208  59.4899511  29.6133828
  37.0791817  59.7493696  30.2590132  38.3707500  60.2068710  29.6159554
  41.7985964   2.6099083   0.4208526  42.1183491   1.8359976   0.8845900
  42.1843004   3.3481392   0.8925292  22.3890400  72.0908117  41.2435579
  21.7260551  71.5743971  40.7852983  23.1921840  71.5765715  41.1613989
  70.7459164  63.9977980  22.5044417  71.1645746  64.6422768  21.9338274
  71.3942337  63.8254642  23.1872439  68.3692312  50.5479813  13.2420838
  68.4739685  49.8914385  13.9307177  68.6449432  50.1014900  12.4415457
  69.9879456  46.7597294  33.2313800  69.9354935  46.1913300  32.4630022
  70.7357788  47.3309278  33.0561590  35.8481407  26.2144613  20.0679517
  35.1035619  26.0575843  20.6486630  36.0107589  25.3674245  19.6528435
  62.4790001  58.7941694  18.0947733  62.6983643  58.2081032  17.3704529
  63.3230686  59.0139914  18.4890580  47.7410030  23.4067583  40.7940102
  47.3067188  22.8922176  40.1136589  47.0485163  23.9610648  41.1537933
  41.7176008  39.5933151  38.4421611  41.5714073  40.2421236  37.7537537
  41.0932350  39.8277807  39.1287637  57.0740128  58.2376528  51.6088963
  57.7803278  57.6949406  51.2584496  57.3492527  59.1360950  51.4264870
  66.3573551  69.2064762  37.6750779  66.5422010  68.8925886  38.5602570
  67.1139002  69.7480202  37.4501276  66.5398264  71.3198614  20.5115700
  65.7190704  70.9765291  20.1584125  67.0924902  70.5469990  20.6276846
  76.6168261  30.3254390  44.9227953  77.0369196  29.9824405  44.1340542
  75.6823063  30.3255439  44.7156763  37.6622725  69.3687916  38.6879992
  36.9887471  68.7287092  38.9179897  37.1921301  70.0478172  38.2041359
  56.3096142  65.0289440  43.4518242  56.7780924  64.6292496  44.1846275
  55.4083347  65.1155090  43.7623644  17.2945178  38.0750585   5.2468216
  17.9343450  38.7859511   5.2082860  17.7494633  37.3225927   4.8685968
  65.4273367   5.3064507  37.9337907  66.1763906   5.6957495  37.4825788
  65.1321697   4.6081585  37.3494124  53.3257198  72.6054621  40.6295109
  52.5510979  72.2778654  41.0865355  52.9918766  73.2963419  40.0572634
  15.0049412  76.5491819  12.6602483  14.4854474  77.1881056  13.1482434
  14.3567848  75.9756374  12.2513831   7.4194980  50.0720263  30.0899887
   7.8544074  50.6616306  30.7059836   6.9168192  50.6517887  29.5177841
  15.7268429  64.5615482  44.2556810  16.5329063  64.2448139  43.8480377
  15.1735330  63.7838507  44.3282461  19.0909684  25.7830644  54.5634985
  19.1735137  24.8389173  54.6976805  18.6231935  25.8669090  53.7326050
  10.4526186   6.5246820  49.3330288  10.6899190   7.4398589  49.1834545
   9.4977593   6.5326178  49.3994474  65.7808352  68.1296778   5.0875151
  65.8917761  69.0741873   5.1962835  65.9235811  67.7693892   5.9627569
  59.3258905  46.2368155   9.4821841  59.6376705  47.1414948   9.4580954
  59.3969393  45.9834194  10.4024959   3.4720272  56.5792656  26.8319488
   4.3910724  56.4302063  26.6097593   3.3579263  57.5266218  26.7562652
  35.9687471  70.4428911  12.3764646  36.0938764  70.5806541  13.3153975
  35.4063153  69.6703768  12.3205936  43.2054138  64.9637222  22.2194195
  42.4577618  64.3673563  22.1794128  42.8321981  65.8277416  22.0450258
  58.1719255  36.4152431  12.2022140  59.0412712  36.7584157  11.9955564
  58.0038738  35.7632136  11.5218854  48.4823084  67.4958658  43.6966228
  48.9509010  67.7508974  42.9018831  48.5513306  66.5414333  43.7195158
  50.4902554  61.5858221  26.4478707  50.3105307  62.4022722  25.9816718
  51.3410139  61.3015270  26.1137795  10.0937188  54.0028095  64.4059992
   9.7677970  53.1350613  64.6447849   9.6700573  54.1960049  63.5696888
   5.1504087  59.9029589  38.3508253   5.5290622  59.0636158  38.0893731
   5.8947194  60.5043268  38.3750796  59.4197702  73.2770681  25.8425641
  58.5437775  73.5166883  26.1449718  59.8889971  73.0299997  26.6394424
   9.6073079  52.2595072  56.2678003  10.2197576  52.7181149  55.6926346
   8.9143723  52.8977108  56.4374161  63.2441473  22.2744036  45.6284618
  62.7904892  22.7157784  46.3465214  64.1152573  22.0840502  45.9765434
  70.3857946  50.4961443  21.7177510  70.6330538  50.7209682  20.8207846
  70.3690243  49.5391560  21.7288566  16.8780684  72.3873854  37.1469498
  16.8536472  71.9513702  36.2951708  15.9577334  72.5094557  37.3800063
  59.2080450  65.9553337  48.0264568  59.2067385  66.8311691  47.6402712
  59.6616077  66.0628796  48.8624859  77.9025745  14.3392646  33.6771059
  77.8499651  14.7951245  34.5171380  78.8038635  14.4772315  33.3857608
  61.5912056  62.8011274  42.8917074  61.5033674  61.8750381  42.6661587
  61.3194227  62.8512669  43.8081408  65.4105806  73.3403397  41.8194342
  66.3314486  73.1572247  42.0057201  65.3838587  74.2812681  41.6457272
  30.1589465  35.8653831  60.4917812  30.7309437  35.7814455  59.7288895
  29.6015334  36.6173553  60.2916241  49.8704290  35.3362751  48.5411453
  49.7753382  36.2885976  48.5577059  50.7117367  35.1721334  48.9671612
  16.4395928  66.4865541  34.3513775  17.1539545  66.9585609  33.9234424
  16.8674564  65.7516193  34.7907352  18.3281672   6.2721771  56.0627413
  19.2336488   6.2006921  56.3647747  18.1376231   7.2096020  56.0967922
  74.4733715  13.2677674  43.7368441  74.8280621  13.2723904  44.6258926
  74.6178532  14.1581988  43.4167051  62.6444912   9.5061374   1.3488233
  63.1767416   8.9327109   0.7973503  62.2412395   8.9177722   1.9871402
   7.0737225  33.2014418   7.0798826   7.9455769  32.8068328   7.0995319
   6.4738786  32.4559045   7.0555228  58.4153223  62.8071260  10.6701195
  58.2377481  62.0653439  11.2484479  59.2257547  63.1868505  11.0095870
  19.3772995  26.3845658  33.1738067  19.9414933  26.7763782  33.8404393
  19.9632585  26.2078881  32.4378228  83.4574534  65.3573847  26.9606662
  83.9903542  64.7265053  26.4766860  83.3597748  64.9707317  27.8308320
  66.5933752  30.8057451  35.0450993  66.0122347  31.5476418  35.2127314
  66.0867882  30.0392461  35.3135753  72.0310545  64.7916031  27.0978403
  71.9429398  64.4373894  26.2129664  72.0806789  65.7392788  26.9726372
  51.6485453   3.8523677  29.5088124  51.3635015   4.0803668  30.3936839
  51.1625195   4.4488937  28.9394546  80.4321480  75.7306147  40.2448082
  79.9923849  75.4476404  39.4430852  81.1411190  76.2978172  39.9416852
  58.5508013  56.3824224  33.7385941  58.0644703  55.9859037  33.0157614
  58.3665562  57.3189163  33.6660004   1.5543829   2.3754457  42.2589397
   1.4331377   3.3056593  42.0685863   0.7019836   2.0841207  42.5826311
  79.6751547  71.3439608  13.1845868  79.7869778  71.9873667  12.4847591
  79.5892048  71.8684673  13.9806640  38.9674520  58.6850691  33.5333347
  38.5409379  58.3392382  32.7492952  38.5149145  58.2576084  34.2604685
  64.0254784   8.7042183  49.9392653  63.2225132   8.6060208  50.4509687
  64.3944597   9.5381254  50.2302694  64.4411325  67.6496553  25.0512099
  64.1621542  66.9688511  25.6635094  64.7568083  67.1688938  24.2860651
  47.6873159  51.2886715  39.1999817  48.1254578  52.1084547  38.9714789
  46.7570114  51.5127563  39.2234206  62.5283384  76.1192703   6.7629468
  61.8075466  75.7265759   6.2705219  62.7610636  75.4582834   7.4149925
  68.5182905  76.2083149   3.6243522  67.9753447  76.0267687   4.3914777
  69.0245962  76.9834757   3.8672888   6.0116196  34.3194461  40.5427694
   6.0289162  33.9661169  39.6533346   5.8210617  35.2503204  40.4270315
  54.6634245  29.3410540  16.7578602  54.0733480  29.8127222  16.1700106
  54.3705082  28.4309459  16.7116475  68.6889982   3.7951168  18.4200013
  69.3476439   3.1668007  18.7160420  68.3437109   3.4169996  17.6112771
  53.9822865  46.2198591  16.2969422  54.1761541  46.5290689  17.1818364
  53.1417179  45.7694483  16.3794029   4.8322314  68.5223198   5.7553411
   5.2624798  69.1386127   6.3480490   3.9130622  68.7894392   5.7580179
  31.7516208  71.8188095  48.7909842  31.7029786  72.5812483  48.2143116
  32.5282669  71.3439083  48.4951448  71.8148804  46.3348293  51.4099836
  71.9581461  47.2554636  51.6293859  70.9659719  46.1251163  51.7993546
  10.1325011  72.0928192  41.0176611   9.8839688  73.0164385  41.0549164
   9.3662876  71.6250277  41.3498020   1.2405565  27.6720953  28.3682775
   1.4033327  28.6098909  28.4696484   2.1063931  27.2698736  28.4373808
  49.4814873  51.4234543  32.7055836  48.9836979  50.7092190  32.3077011
  50.1760101  50.9860373  33.1980658  16.4640129   7.3683846  53.5360622
  15.9583795   7.3366022  52.7239323  15.8681834   7.0265961  54.2026997
  53.9354515  54.9459839  26.7545676  54.4573212  54.3088531  26.2667727
  54.5160246  55.2458572  27.4540234  14.3240047   4.6296814  16.3933313
  14.2027700   4.7188628  17.3386252  14.1593254   5.5066812  16.0469437
  58.8345289  63.2234192  28.6751938  59.7250319  63.0953693  28.3483243
  58.6638880  64.1564131  28.5461903  36.7431355  43.6849356  32.9617524
  36.8941092  44.4772530  33.4771800  37.3326993  43.7706184  32.2125506
   8.3889556  23.6013961  26.7791724   8.1497014  22.6795793  26.8753004
   9.0094000  23.6130667  26.0503745  62.5933647   0.9815881  25.3187299
  62.3485041   0.5024123  26.1103511  61.9873190   0.6639241  24.6493793
  53.0050468  64.5100880  21.7573166  53.6115026  64.7068310  22.4712729
  52.8372049  65.3575802  21.3452291  23.7285280  62.7099514  64.7094202
  23.1140518  62.3508549  64.0693426  23.2123470  63.3436728  65.2076006
  66.9473457  62.9220772  27.4096298  66.6087198  62.9618692  28.3040452
  67.5532722  63.6606646  27.3498511  53.4708452  74.7471523  33.6052704
  52.7988386  74.5320511  32.9584551  53.7140417  73.9039373  33.9874697
  82.7569294  71.4886618  47.4399996  82.5080299  71.8041372  46.5712309
  83.4346199  72.0986938  47.7312565  29.9439168  41.7295361  15.2415848
  30.7842946  42.0135403  14.8819458  29.3493867  41.7315722  14.4914103
  81.9977570   2.4392764  60.0025988  81.9705677   1.5765826  59.5887709
  82.8913689   2.7483094  59.8536587   7.1252644   9.2093176  39.5442104
   7.5889921   9.9481779  39.9382591   6.2826735   9.5729673  39.2721248
  37.2063565  30.4759955  24.0698934  36.5008783  29.8550391  24.2514038
  37.3101997  30.9657049  24.8857570  36.2094522  74.6465683  38.1574845
  36.1616516  74.1574526  38.9788938  36.5767407  74.0246010  37.5293970
  75.4767466  78.9399290  38.2831931  74.7702932  78.9396000  38.9290667
  76.0533905  78.2272816  38.5585952  51.0568285  76.2094116   5.5980861
  51.4743614  77.0072174   5.9227520  51.7378092  75.5397511   5.6617540
  67.2659969  65.8288145  14.4572651  67.3279333  66.7832899  14.4943130
  67.9688692  65.5208015  15.0293934  60.3156996  76.3738155  17.1907914
  59.9490738  77.1147442  16.7082524  61.2235928  76.6246462  17.3612428
  52.7135181  67.1664429  20.7965612  51.7636681  67.1930838  20.9119034
  52.9764175  68.0861616  20.7614326  20.8750057  15.2260864  52.1103764
  20.2729297  15.6137335  51.4751863  20.6019449  15.5903029  52.9524040
  24.9742818  57.2847939   7.0060021  24.3467999  57.9766750   7.2152746
  24.6693754  56.5262985   7.5039452  47.8664970   1.7995615  17.7809370
  48.7692022   2.0953381  17.6631403  47.7905512   1.6302258  18.7199736
  77.9412413  40.2340603  34.8272443  78.4618330  39.5538688  35.2545118
  77.2511387  40.4391813  35.4580474  67.8762579  61.8531704  22.9290247
  67.2304535  62.1870708  23.5516620  68.1399918  61.0061741  23.2885742
  67.9899740  43.8053656  41.7990923  67.8511858  44.4356632  42.5059843
  67.1189117  43.4516859  41.6191101  60.8254051  76.2256575   2.2918594
  61.7634296  76.2548208   2.4802545  60.7736635  75.9601688   1.3736710
  82.0468998  54.4821548  34.3444896  82.1816444  55.2986097  34.8256111
  82.1537304  53.7956953  35.0029635  51.7421961  66.1047554  40.4889011
  52.3194027  66.3992739  41.1934042  52.3362589  65.7758522  39.8142576
  64.1574478  69.2191505  11.3620782  63.5296011  69.0624332  12.0674026
  63.6507273  69.6688843  10.6859064  63.5540628  22.1719575  54.5016050
  64.1017818  22.9509687  54.5984459  64.0009928  21.6458583  53.8385010
  27.2772026   9.0255141  43.3703995  27.6316404   9.9060559  43.2469034
  27.9439783   8.4452415  43.0030775  37.6216459  45.1056004   5.0606436
  37.6332903  44.8871374   4.1287798  38.5331368  45.3091908   5.2703273
   5.3818667  62.6605129  36.6833353   5.5895621  63.0267763  37.5429559
   4.4259709  62.6130247  36.6678262  60.6060266  42.5039291  54.5558596
  60.5195570  41.6861057  55.0456762  59.9739456  43.0955839  54.9640846
  65.2713585  65.2417755  19.9128246  64.7745752  65.5540133  20.6690931
  66.1287928  65.0090313  20.2690077  28.2016754  19.7845221  37.2710824
  27.7314067  20.6090856  37.1478963  28.6046171  19.8654401  38.1355596
  20.7610869  74.8422480  27.8617740  21.4532423  74.4808292  28.4154248
  20.2074099  75.3390360  28.4641695   0.9448975  73.2942343  47.2625208
   1.2374987  74.1141558  46.8645954   1.0942677  73.4163284  48.2000780
  32.1008015  23.2900119  66.3068438  32.1230030  23.3678937  67.2606087
  31.4686823  22.5912786  66.1382389  66.7986488  41.4309692  60.5681133
  66.7341852  40.7304287  59.9190187  66.0110617  41.3346195  61.1035156
  44.4534779  14.0409267  59.2030525  45.3524017  14.3594801  59.2848396
  44.4933558  13.1321812  59.5010805  83.3863449  77.7782869  40.2052736
  83.8754082  77.1276379  40.7089567  82.8262520  78.2093668  40.8507967
  55.5082464  66.5847015   6.1953562  54.9696255  67.0196867   5.5343670
  54.8824835  66.0981178   6.7319059  43.0894995   1.1666681  27.3135209
  42.4043989   1.4710459  26.7183518  43.8373899   1.7346276  27.1282864
  54.6947384  59.6990585  57.9297447  55.3729820  59.6984863  57.2543049
  54.7179222  58.8138485  58.2931995  60.7893896  75.0620317  40.9251261
  60.1473045  75.6840086  41.2673283  60.3184223  74.2297173  40.8842659
  78.6061716  71.2714100  48.8447618  79.3919373  70.8648348  48.4793949
  77.9027843  71.0098791  48.2505560  28.8370228   1.1987290  14.2771447
  29.0287280   1.1742109  13.3396590  28.6701179   0.2857775  14.5114398
  78.0262756  26.5320468  27.0486450  78.2051802  25.9054708  26.3474846
  78.5964108  26.2571812  27.7667189  45.5369520  64.4635105  23.2582068
  46.1876917  64.2611074  22.5860429  44.7917652  64.8159981  22.7717090
  16.1510324   2.7257884  28.6762524  15.6488025   1.9284347  28.5082507
  15.5218220   3.4361035  28.5506344  37.3369026  16.4309227  18.4758461
  37.3688698  15.5421257  18.1219387  37.1793485  16.3103342  19.4122577
  60.5324697  25.3090286  56.2417316  61.0918617  25.2300000  55.4690313
  59.8306036  25.9003758  55.9698391  64.2274475  53.2868099  28.8102531
  63.9889383  52.7651119  28.0439758  64.6600103  54.0601730  28.4482813
  32.9600549  71.6436577  14.1449785  33.8567638  71.3093090  14.1637909
  32.4161506  70.8642244  14.0314555  44.9611998  54.8079014  26.7393780
  44.4639254  55.5908537  26.9758844  44.3018723  54.1175508  26.6691208
  66.4891672  55.9105778  32.2036052  65.8971024  56.1135530  31.4793873
  66.3826180  54.9696827  32.3435760  36.1523247  56.4785004  41.2642288
  36.4535785  55.7069302  41.7439842  36.4577723  56.3376713  40.3680706
  32.8330255   0.7943197  40.8846283  33.4724331   0.1235311  41.1242819
  32.0154858   0.5003625  41.2864351  10.2738893  60.7910204   3.5732952
  10.1240444  61.5145683   4.1817814  11.0057199  61.0828638   3.0297121
  38.2126355  12.6402164   6.1611634  37.7155948  11.8660486   6.4254469
  37.7798319  12.9415274   5.3623360  24.9544406  78.3168983  18.0999517
  25.4183912  79.1254997  18.3170772  25.6335711  77.6423740  18.1049168
   9.7111481  68.8603687  47.0955467  10.2392161  68.9792681  46.3060904
  10.2016926  68.2263088  47.6185799  18.9073431   8.7209487  28.1539440
  18.1016684   9.0925556  28.5131502  19.2690670   8.1972086  28.8688445
  39.4155073  47.1683550   3.2394770  39.0179729  48.0014181   2.9860911
  39.0639281  46.5350533   2.6137346  73.7773895   4.8294315  13.1925821
  72.8666782   5.1038390  13.2999957  73.8819218   4.1011906  13.8049293
  47.3185682  65.9900236  10.6001377  46.9690847  65.1784754  10.9682155
  46.7825460  66.1511803   9.8236477  38.7795782  65.6877279  18.6891675
  38.5433650  65.3652906  17.8194165  39.7306347  65.7908869  18.6562228
  79.4239616   4.6951807  48.2474947  78.9054537   4.0767995  48.7622643
  80.0203514   5.0935572  48.8814116  47.3319721  50.4651308   3.6686727
  46.3965464  50.4981327   3.8689926  47.4517775  49.6272087   3.2217169
  39.2385149  54.5873547  26.4675522  39.7576499  53.8343048  26.7497778
  39.0684175  55.0762796  27.2726893  74.3653631  38.4583783  36.3075113
  74.4971323  38.4076023  35.3607845  73.8576984  37.6754808  36.5210032
  -0.3261576  69.2124987  11.2488043   0.3332660  68.7606716  11.7753434
   0.1147814  70.0041866  10.9405291  71.1491442  69.0534163  61.1293459
  71.6833210  69.5751715  60.5304623  71.7804527  68.6565542  61.7294979
  29.6671247  56.2304020  22.9713583  30.2594590  55.5384588  23.2656169
  29.3442416  56.6290045  23.7794995  30.5349779  65.3880787  51.9352436
  29.6905446  65.3541327  51.4857864  30.9535170  66.1805964  51.5991306
   7.6435488  29.3628764  11.8813372   7.7215296  28.5148573  12.3183906
   8.3107078  29.3409991  11.1952960  16.1069977  46.5211105   2.2520237
  16.0525584  46.4018488   3.2002029  15.7985425  47.4152422   2.1049903
  69.0231800  73.1362677   2.8759485  69.2130709  74.0671682   2.7593356
  68.5180664  73.0947495   3.6879629  81.6270351  55.6483984  31.5848255
  82.3193932  56.2986946  31.4665389  81.4500046  55.6554270  32.5254869
  69.1949272  58.5164881  27.2543550  68.4121561  59.0570307  27.1479821
  69.9232531  59.1130304  27.0814133  66.1380243  66.0156631  23.4383631
  66.3769293  66.7934036  22.9341102  66.9756651  65.6281948  23.6922526
   3.0285665  21.6801286  39.4047666   3.0889803  22.6159477  39.5966625
   2.1473256  21.4343190  39.6862340  47.5519657  62.4923992  13.6393285
  48.4292078  62.2838831  13.9605784  47.1845675  63.0729961  14.3057799
  28.1088328  54.3364763  58.4542370  28.9743638  53.9522696  58.5937834
  27.6487112  53.6985254  57.9087687  10.9210002  32.9043031  58.5885763
  10.3645062  32.5401425  57.9001474  11.5825498  32.2300720  58.7434816
  73.4292078  78.1074429   0.2394172  73.4684229  78.4524918   1.1314003
  74.3400669  77.9151201   0.0167454  39.1307473  61.6445303  37.1336412
  39.4543004  62.4470663  37.5428843  39.7088027  60.9570742  37.4645352
   0.7410485  73.8316488  59.6701956   1.1394490  73.8604355  58.8003206
  -0.0207257  73.2614946  59.5659924  83.6385800  33.2008433  67.0818710
  82.8847258  33.7424731  67.3154831  84.2782223  33.8197470  66.7296696
  38.5804319  64.6656179  44.2553139  37.6721787  64.7725630  44.5379305
  39.0957546  65.0967407  44.9370813   8.3801532   0.8529013  54.4763994
   8.7702215   0.2451890  53.8480949   8.7940282   1.6943620  54.2843485
  73.9296532  76.9358444  48.5970259  74.5533895  77.6566935  48.5101223
  73.5618877  76.8302393  47.7196264   2.1692735  70.6275129  29.0214205
   2.0485255  71.5644932  28.8674188   1.3908380  70.3630972  29.5116782
  57.4696064  66.5077400  11.2296546  56.7286491  66.9994926  11.5837669
  57.1559334  66.1742163  10.3890586  27.6666808   0.4557535  44.9976873
  28.1809211   0.7305317  44.2385530  27.0902824  -0.2302422  44.6609306
  23.7427592  42.7305603   2.7089402  22.8435469  42.7804470   2.3846544
  23.8351178  41.8305016   3.0213445  68.5463619  69.5088148  20.8413982
  68.4511328  69.0427637  20.0107598  69.4866323  69.4908285  21.0197020
  83.2541561  43.5606527  33.6075759  82.9861927  44.4564152  33.8126016
  84.1870785  43.6301756  33.4049606  64.3664265  57.4731684  56.8375874
  64.4734526  57.4193478  55.8879137  64.7879124  58.2977486  57.0797682
  67.4223518  52.8455973  34.5480418  67.6104975  52.8926039  35.4853916
  68.2836819  52.8024435  34.1327357  25.3176689  68.9893055  65.3086090
  25.6844497  69.8704433  65.3813839  26.0714340  68.4311438  65.1174831
  36.0138226  56.2567902  68.0616474  35.3455925  56.7421675  68.5454893
  35.8185077  55.3370047  68.2407713  -0.0146880  75.3934813  38.7074828
   0.8854033  75.5489445  38.9936614  -0.4768880  76.2044287  38.9195466
   1.9438878  65.9223366  65.9826756   2.1073231  66.7069674  65.4593468
   2.7893594  65.7218361  66.3841820  40.1624346  55.1195288   4.4086030
  40.5944729  54.8609304   5.2226686  39.6462178  54.3535280   4.1576144
  66.2363386  14.1354954   9.8325908  66.1944485  15.0418377   9.5275992
  65.5098248  13.6992061   9.3875432  25.9726524   4.9258453  16.5441096
  25.5353642   5.6098253  17.0512414  25.2595043   4.3786854  16.2150705
  81.1576748   9.2142910  26.3242316  80.2424717   9.3553138  26.0818672
  81.3974571   9.9970818  26.8201900   6.0674655  25.7632756  35.0914097
   6.3738263  25.6337857  34.1938543   6.8422508  26.0606456  35.5683923
  73.3704662  52.4244642  32.6108575  72.6543379  52.2581244  33.2238197
  74.1343880  52.0165920  33.0186462  70.2893925  66.6270018  39.7634673
  69.6827030  65.9024620  39.6111250  70.2622461  67.1364498  38.9535570
  74.5385872   0.6153885  54.5106602  74.1748033  -0.2280029  54.2412472
  75.4324661   0.6110159  54.1683292  77.0656013  72.7107811  38.2864475
  77.6376963  71.9506121  38.3917212  76.4368153  72.6386070  39.0045357
  73.0822659  54.2555571  53.6078262  73.0020523  54.4329309  52.6706314
  73.1610870  53.3033514  53.6654902  33.0875754  14.3064582  63.8017702
  32.1626997  14.0823495  63.6987400  33.3888316  13.7544346  64.5233965
  77.9323101  70.8548212  44.5703220  77.5794172  70.3566408  43.8330889
  77.3926401  70.5932617  45.3163624  80.8548832  31.4017105  53.8970423
  81.6842079  31.5384674  54.3550205  80.1881218  31.7046928  54.5133734
  34.3141007  58.8349485   0.5301383  33.7782168  58.1559896   0.9401014
  33.8561368  59.0422201  -0.2844415   0.7032410   9.3238491  34.3394589
   1.6506502   9.4599068  34.3511176   0.5250146   8.8122559  35.1285982
  31.2315655   5.3384876   0.2935656  30.8097291   4.4896424   0.1603475
  31.2811804   5.4346561   1.2446290  39.3578601  49.2572451  21.3121986
  39.2372584  49.0730381  22.2437310  39.3958879  48.3940315  20.9003139
  51.2951136  72.5234318  37.2123861  50.8837605  73.3678246  37.0279479
  50.9924555  72.2965384  38.0916739  48.9803791  57.8468180  26.3000202
  49.5956564  57.8844070  25.5677247  48.4157610  57.1001053  26.1003685
  71.1447525  77.4041271  54.0428162  71.9824886  77.7649689  54.3330288
  70.9166336  77.9202318  53.2696247  74.7186232  75.9992886  39.8774767
  73.8957453  76.2436676  39.4539404  74.5780659  76.1938047  40.8041048
  69.8653126  41.4483738  62.2321272  69.8597002  40.5376959  61.9373989
  69.0538263  41.5437508  62.7307510  61.4120436  73.6474037  56.1345625
  61.1304569  72.7374125  56.2286663  62.3480034  73.6303806  56.3343573
  59.2300844  66.7870855  20.5776048  58.3987141  67.0878410  20.2107167
  59.0483570  65.8996058  20.8867741  65.7437849  69.2682362   1.9721027
  65.0207615  68.6470842   1.8847223  66.4728308  68.7424326   2.3011249
  61.5452194  66.8828917  24.1549253  60.5900621  66.8206882  24.1491461
  61.7989635  66.5908861  25.0304699  64.6873369  36.3915785   0.5113394
  64.7630068  35.4733045   0.2519543  63.7465545  36.5675743   0.4976971
   4.6359310  69.3782997  39.6986437   5.3117144  69.7942305  39.1633391
   5.1116407  68.7432718  40.2340555   2.0270482  51.7445087  15.9840274
   1.3274181  52.3857737  15.8594131   2.3103042  51.8719721  16.8894279
  72.7898169  36.5494347   9.7462946  72.4416828  35.6587648   9.7045505
  72.7200603  36.7908144  10.6699300  50.7612371  71.2907887   8.6647564
  50.6631327  70.7950497   9.4776833  50.8510876  70.6220865   7.9857922
  24.5836353  63.0029583   1.0657346  23.9083433  63.4760284   0.5795033
  24.4506836  62.0851040   0.8288802  54.4286728  59.4300508  32.5657821
  53.4745312  59.3967295  32.4969363  54.5958042  60.0398016  33.2844639
  42.6975727  78.4141588   7.6760417  43.0037165  77.6898623   8.2218504
  41.7817354  78.2050991   7.4922699  65.4355049  31.9088626  65.4078197
  65.0344276  31.7411804  64.5550299  65.7387638  31.0502505  65.7028580
   3.6484471  74.2404747  54.0866089   2.7831534  74.3061781  53.6826563
   4.2495319  74.5749903  53.4210110  10.0756657  14.2902195  55.8301878
   9.4653577  14.7727370  55.2725744  10.1789463  13.4435940  55.3956842
   0.4749987  58.4625244  19.4600153   0.9949705  59.2659616  19.4413078
  -0.3336790  58.6898565  19.0011036  31.7707014  74.3993759  43.6803102
  32.2616768  74.0166807  42.9531765  30.8716345  74.0994024  43.5464096
  16.7619147  78.7942060  41.0335541  17.5738682  78.7140430  41.5340900
  16.0909571  78.9726329  41.6925001   1.1606847  45.5233860  40.8703804
   1.3753203  45.5772591  41.8016481   1.6189441  44.7409105  40.5638456
  31.5750694  30.9067607  12.6514328  31.3452935  30.0148654  12.3907447
  32.0540261  30.8001947  13.4733069  41.4376307  15.6103444  14.0203595
  40.5180693  15.8522701  14.1303897  41.4451456  15.0412941  13.2507122
  83.7631416   7.6829493  27.2290730  82.8994942   7.6910388  26.8164110
  84.2372417   6.9839251  26.7787123  53.4114981  67.9889345  38.4173250
  53.9074373  68.7792444  38.6310697  53.7089777  67.3397732  39.0547633
   1.8997322  67.9755545  28.0132914   2.1078269  68.8784599  28.2534790
   1.4127998  68.0521393  27.1927643  10.5250549  16.9023955  15.9163725
  10.6167173  17.3737454  16.7444181  10.9937871  16.0795772  16.0559893
  30.8796120  29.5013618  41.1311769  30.5366349  29.7485638  41.9899511
  31.3420105  30.2812910  40.8243799  10.5731356  69.5410681  22.6428962
  11.4627373  69.4312191  22.9787135  10.0165248  69.4973421  23.4203935
  20.2857065  22.2343516  15.3279364  20.5540276  21.8095326  14.5132196
  21.0415459  22.7637696  15.5822122  55.7755613  74.4002819  18.0787122
  56.0159922  75.3263569  18.1072438  56.5764093  73.9532423  17.8048015
  68.8376570  38.8735509  65.8086157  69.7647572  39.0785909  65.9297800
  68.4126377  39.2113233  66.5969706   7.6620728  10.1768124  35.3748226
   8.5116881  10.3290009  35.7886147   7.5581867   9.2253113  35.3840303
  77.9545689  32.5788307  10.1171434  78.8526344  32.3916340  10.3903866
  78.0248785  32.7781558   9.1835701  10.3116906  75.1856899  43.6626720
  10.9580195  75.3178835  44.3562269   9.8416156  74.3929815  43.9212704
  39.4979596  15.2587557  41.3347101  39.0598440  14.9698460  42.1352243
  39.7589660  14.4477141  40.8984566  26.9112515  54.8127794   6.7511636
  26.4491653  54.9848986   5.9307462  26.8525887  55.6358290   7.2363216
   8.9153123  71.0911179  20.5639362   9.7079307  71.3966846  20.1227832
   9.2311674  70.4727936  21.2228298   9.5043629  15.6163001  43.2105541
  10.2785492  15.9204626  42.7368975   8.8341939  16.2728882  43.0208254
  31.9953656  78.4483957  12.9023623  32.0095420  77.7597570  12.2376776
  31.3375092  78.1579876  13.5341215  27.2076964  14.8291266  52.0796871
  26.8993855  13.9659262  51.8038940  27.9666972  15.0016320  51.5225601
  51.9810152  39.7241950   2.0846711  52.6015425  40.3661203   1.7395416
  52.4514866  39.2971706   2.8005889  12.9886687  28.8643289  39.7853804
  12.6061738  28.0156302  39.5625830  12.6691961  29.4570422  39.1050434
  27.5008440  34.7253871  59.4457245  28.3106947  34.4112539  59.0436077
  26.9054914  33.9771795  59.4013357  49.6711397  51.9919205   2.2145903
  49.4178820  52.4579668   3.0113918  48.8927460  51.4899206   1.9730735
   1.8442455  28.6460972  44.4078588   2.5941089  29.2050195  44.2040396
   1.8465282  28.5810995  45.3628492  64.7525024  69.9380255  15.5647182
  64.0513086  69.9913692  14.9153256  64.4173288  69.3373060  16.2303221
  79.1856527  59.7910404  22.7747250  79.9399233  59.3363380  22.3998117
  78.8048029  59.1599607  23.3853984  21.6130352  14.5809734  48.1178904
  21.4830136  13.6392629  48.2297325  22.5241160  14.7287524  48.3715200
   3.2028320  72.7093124  49.3747091   3.3141094  72.2187710  48.5603237
   2.6798877  72.1329117  49.9319553  36.2565088   5.4891795  36.4111662
  35.7794547   4.8607734  36.9531608  37.1773767   5.3396803  36.6253686
  32.1548200  21.1768150  22.8140140  32.4006653  21.9451094  23.3292961
  31.7414284  20.5875325  23.4449530  83.6364555   1.5556721  46.3885641
  82.9980469   1.3150556  47.0599556  84.2908859   0.8578120  46.4192724
  30.1932049  35.5163741  20.0223565  30.5376101  34.7232938  20.4330158
  30.3576040  35.3927803  19.0875149  24.2612123  76.0792255  22.3819470
  24.9099779  75.4150295  22.1491742  24.4052291  76.7857075  21.7523670
   6.9548321  67.5710058  51.4449024   7.4993521  66.9358063  50.9798717
   7.5694203  68.2431126  51.7394924   2.9246706  47.7166653   6.3486981
   3.5842150  47.0692492   6.0995257   3.4175515  48.5293913   6.4617425
   3.5724646  49.2548275  20.7390237   4.1984516  49.7322798  21.2834620
   2.7688840  49.2355776  21.2587547  21.7281055   1.7283303  35.6708980
  22.2974539   1.6254553  36.4334536  20.9889650   1.1451218  35.8434367
  32.2615075   6.7788154   9.3171501  32.5000668   5.9161776   9.6565276
  32.0940876   7.3057020  10.0985539  51.9317341  72.1656942   2.4281816
  51.5457869  73.0384159   2.5032347  52.4838781  72.0803308   3.2054076
  80.3180695  58.3033657  30.6680274  80.9826088  58.6909771  30.0984836
  79.8052645  57.7397871  30.0886798  74.2729759  72.3887682  14.2652488
  74.5263386  72.1826553  13.3654964  74.0553331  73.3206844  14.2452836
  31.6080499  13.5734344  29.8456311  30.7362938  13.1799662  29.8837900
  31.4824677  14.3869567  29.3571186  17.7533138  73.7676001  26.6853595
  17.5774825  73.9167309  27.6143765  18.6306953  73.3854246  26.6659880
   1.3596407  33.4864092  22.1333313   0.5162565  33.7814450  21.7899823
   1.7213574  32.9354906  21.4391541   9.8614389  14.0405560  28.5840535
  10.5910993  14.4049144  29.0851212  10.2381921  13.2912230  28.1227636
  58.7269545  17.9766428  49.5419645  59.3818712  18.5903287  49.8746872
  59.0106153  17.7849853  48.6480761  83.7608814  22.5406814  21.8983674
  83.6256981  23.4876800  21.8644643  83.6084366  22.3096323  22.8146696
  50.1616526   8.4680229  28.0987430  50.1889420   9.2061687  28.7075353
  49.2310333   8.3476448  27.9098320  70.0412846  40.5457258  20.2955508
  69.4052982  40.1613140  19.6922386  70.6895256  39.8548675  20.4324031
  69.8839092  57.0541620  33.8330746  69.0369749  57.4113703  34.1001606
  70.0876379  57.5071812  33.0148458   2.6215553  70.4028034   6.3453972
   2.8596127  70.5392122   7.2624326   1.6656688  70.3529835   6.3509482
  39.0606594   4.7507709  34.9758196  39.1101098   4.5030934  35.8990979
  39.9724150   4.8740402  34.7117424   5.7493234   5.9251970  16.2041414
   6.6280204   5.9290022  15.8245230   5.4511017   6.8314660  16.1268592
  54.9350119   8.2940179   5.7448149  55.8661604   8.1985158   5.5446309
  54.9167442   8.7155837   6.6039896  33.6513638  55.0284147  66.2833166
  33.8486409  55.9613276  66.1997509  34.2979217  54.7020006  66.9091368
  62.5357914  73.1203413   3.9526239  63.3300877  72.9042292   3.4641328
  61.8519831  72.5886154   3.5453039  42.6982069  42.2765398  40.6210136
  41.9661474  41.7204952  40.8877230  42.4004173  42.6929617  39.8122215
  19.5519841  68.4069967   9.6066195  20.2820492  69.0187597   9.5118290
  19.2690301  68.2308769   8.7093168   1.2304262  62.3994350   8.8103724
   2.0084271  62.7446413   8.3724481   0.9205497  63.1236076   9.3542290
  52.2490835   7.1287513  47.5863171  51.8653440   7.2499645  46.7178202
  51.7142868   7.6745749  48.1627703   5.2906781  60.7983303  55.3150702
   5.5096525  61.4168072  56.0120392   5.4811490  61.2723923  54.5056152
  65.1873493  58.4618902  27.8133488  65.8405876  58.9785814  28.2850909
  65.1773500  58.8354111  26.9320917  69.1500998  72.6982975  22.1401668
  69.1817665  72.0289230  21.4566708  69.4948673  73.4861946  21.7199445
  16.8852007   8.0173975  42.2467422  17.2943795   8.8637710  42.0665884
  17.0691693   7.8544998  43.1718636  58.9665842  77.8778076  27.2111344
  59.3018818  77.1164083  27.6845050  58.6198092  78.4511757  27.8946781
  73.8595581  47.5559950   4.8415542  73.2505512  47.1564198   4.2205217
  74.6692085  47.0559120   4.7384992  36.3426685  17.8315258  21.9961739
  36.4432859  17.3190999  22.7983761  36.4751935  17.1992278  21.2898660
   5.0822085  12.2750306   3.0552649   4.8596117  11.4077294   2.7169296
   5.7927275  12.1147394   3.6763138  12.4166059  71.8165302  42.9287910
  12.6467407  72.7399683  43.0314493  11.7129946  71.8157578  42.2798204
  18.0046892  16.7223918  43.3997679  17.9116178  17.0889831  44.2790747
  17.3486841  16.0264850  43.3597374  34.4918466  59.0055943   5.5666053
  35.0448203  59.7502613   5.3301203  33.7798214  59.3890762   6.0786581
  32.8980732  22.2637105  36.6738987  32.0555043  22.5136018  36.2946010
  33.5485959  22.6639628  36.0969663  77.8168964  67.8699636  22.6043010
  77.1198177  67.6110315  23.2070160  77.4994373  67.6024246  21.7418194
  48.7691069  72.9925823  38.6603904  48.5220337  72.6915169  37.7860069
  48.2606506  72.4420023  39.2558384   4.2764473  54.1332960  37.8574109
   4.5590204  54.3653345  38.7420273   4.6400529  53.2600069  37.7111650
  70.2599096  65.8048201   1.7463729  69.9033928  64.9706745   2.0518704
  70.3043318  66.3487005   2.5327915  73.8454580  33.4044886  47.2167873
  74.4453287  33.6169577  46.5017748  74.0946531  32.5196314  47.4835491
  27.0182610  12.3483121  50.9732723  26.0626245  12.3123395  51.0144472
  27.2193313  12.3096824  50.0382280  25.8278728  33.1000614  53.1065178
  24.9976349  33.5498953  53.2633162  26.1313367  33.4434271  52.2661352
   4.7721434  35.0305867   2.6881093   3.8827163  34.7999740   2.9563797
   5.2113825  35.2774262   3.5019711   0.5894081  67.9339886  25.4568624
   0.7377264  67.0040655  25.2851653   0.8382875  68.3706331  24.6422243
  11.2335932  31.2310481  33.0124974  10.6219721  31.9323349  33.2368827
  10.7183027  30.4285431  33.0943274  77.3840284  20.3836155  32.3997569
  77.2576952  19.4823384  32.1031570  77.8767395  20.8013773  31.6933966
  13.2402349  58.8518381   2.0527045  13.6982322  58.0141115   2.1211147
  13.0536318  58.9472198   1.1187273  17.9916203  67.8411245  50.6450081
  17.8184903  68.6300802  51.1586332  18.2813346  67.1948862  51.2889576
  77.1881390  42.6775122  29.2411351  77.6282310  43.1708574  28.5489202
  77.8722143  42.1175432  29.6081591  68.8219833  65.0589561  27.4314189
  68.8532495  65.6601524  26.6872263  69.5834303  65.2942705  27.9615712
  69.5096064  52.6937008  56.9232035  68.9511776  52.5170279  56.1661196
  70.2197218  52.0559216  56.8510675  14.8536849   9.7535920  50.3020668
  15.7198608  10.1034820  50.5107546  14.8056269   9.7871596  49.3466663
  44.0762615  67.7426815  28.6250830  44.2653370  67.7276325  27.6868629
  44.9111891  67.9704475  29.0340471   1.8121614  52.4836445  33.8778424
   1.7887363  53.1364012  34.5775533   0.9182099  52.4666786  33.5360909
  13.8242030  67.3332262  35.9339952  14.5259547  66.9646597  35.3974009
  13.0233371  66.9477892  35.5786276  25.4746985  29.5116472  32.7814722
  25.6465101  30.1338792  32.0746899  25.8770943  28.6953139  32.4849844
  74.6405125  69.7368813   1.6349937  75.4758167  69.2700911   1.6595888
  73.9963436  69.0905285   1.9239707  24.3463373  17.1707952  63.1310987
  24.8866725  16.5796161  62.6069069  23.5337472  17.2577822  62.6327419
  13.9592266  38.0923772  30.6698465  14.2052090  38.1424069  31.5935469
  14.2140794  37.2095847  30.4015946  46.4464474  65.1987362  41.3361454
  46.1166859  64.6923685  42.0784903  47.3979378  65.1082516  41.3882542
  56.5204811  58.5975027  14.4104791  56.6857767  57.6881123  14.6593082
  57.2694016  59.0811062  14.7590125  20.2776980   6.3658106  62.6039362
  20.1249695   7.0712286  61.9752121  19.4990563   5.8130521  62.5375414
   2.3611714  26.8138838  51.1364365   1.8104406  26.7291808  50.3581333
   2.0738694  26.1046505  51.7114830  41.5456104  12.0417368  11.4020205
  41.0463905  11.4862669  10.8033025  40.8803606  12.4836159  11.9296741
  70.3255653  66.9379330  55.7682085  69.5389700  66.4892530  56.0783386
  70.8243227  67.1243334  56.5636492   3.1247625  12.3112416  14.6935844
   3.9759588  12.5926638  15.0289917   2.8793356  11.5734911  15.2519047
  70.8529329  74.0955305  33.7770987  71.5831089  73.9257669  34.3722939
  70.6329203  75.0154161  33.9241958  65.2151775  20.3293061  61.9076157
  65.1316977  20.1853156  60.9649944  65.6410503  19.5367062  62.2341871
  53.3786726  70.6760073  59.9119091  53.0286121  71.2662172  60.5792427
  53.1518745  69.8000383  60.2241230  57.5340223  75.1468849  40.3182411
  57.7370548  75.1209021  41.2532997  56.9215250  74.4232988  40.1859426
   0.2756140  75.1338434  49.7437572  -0.4476812  75.3244352  49.1464663
   0.2314589  74.1872787  49.8790216  42.7582836  65.3884077  26.5197968
  41.9862700  64.8357153  26.6413188  42.5152349  65.9875107  25.8139443
  60.8265305  75.0989389   4.8357788  60.8106947  75.6689978   4.0670052
  61.4283133  74.3934155   4.5984432  19.9607873  62.7534866  43.5979414
  19.6606815  62.7746248  44.5066309  20.6923056  63.3703232  43.5728836
  62.8471851  56.5576506  23.0775881  63.3940601  56.1271524  23.7347269
  61.9500017  56.3550520  23.3426309  79.2847204   0.7394722  31.4455104
  79.0671635   1.3693073  32.1326852  79.8915100   0.1286851  31.8638086
  59.7678518  76.6758966  45.5221987  60.6857824  76.9444990  45.4835892
  59.5666313  76.3823128  44.6336317  73.8512802  78.4942389  26.4910126
  73.2950783  78.3426285  25.7268906  73.3159494  78.2191133  27.2352982
  12.3678625  24.8659182  25.1119900  13.1151187  25.3650403  24.7822642
  12.4290538  24.9439120  26.0640430  82.1181774  70.3412247  63.8226891
  82.5051689  69.5353460  64.1647911  82.8180695  70.7434416  63.3082962
  69.7962618  58.0287361  46.2610531  70.7280874  58.1309843  46.0674715
  69.5547867  57.2008419  45.8457088  33.4472394   7.2859353  28.4205437
  33.3012891   6.3873488  28.1247854  33.7162519   7.1964628  29.3347955
   4.0818259  20.2510881   9.8767608   3.1430137  20.4370761   9.8932463
   4.2679569  19.8814547  10.7398713  40.0525331  23.7030911  57.7521896
  40.6958055  24.1670322  58.2880878  39.2180467  24.1215062  57.9638386
  81.1081791  15.7737398  18.7638319  81.8406677  15.2426887  19.0763760
  81.5007973  16.6193366  18.5469246  36.8699002   1.4871092  40.7077169
  35.9405255   1.4529265  40.9342718  37.0378613   2.4114245  40.5242491
  28.6258626   8.6173874  48.9334631  28.5738826   9.3279260  48.2941961
  29.5128989   8.6785507  49.2879486  38.2475495  21.0277867  37.6974845
  37.3398566  20.7249522  37.6726460  38.1893706  21.9714689  37.5481176
   5.9752172  29.2521358  58.2164526   6.2609208  28.3396435  58.2607412
   6.7637599  29.7386098  57.9760838  31.3621521  60.9279442  62.0212412
  32.3190475  60.9401083  62.0004272  31.1358166  61.3247585  62.8623962
  31.3103938  50.8754349  67.9071665  30.7420301  50.3550005  67.3394108
  30.8443594  51.7041636  68.0178499  18.8455617  65.6359053  51.9822645
  18.8564634  65.2749252  51.0958099  18.1844532  65.1193762  52.4430990
  83.0330181  35.4792285  64.6258354  83.4686375  35.6831121  65.4534197
  83.7414455  35.4516435  63.9827108  20.3421330   7.4451214  30.2414417
  20.8703160   7.2142953  31.0056233  19.6286559   6.8070114  30.2418256
  46.9700527  42.2851133  68.6750603  47.6103401  42.0587540  68.0005074
  46.1210918  42.1269655  68.2621670  35.6064820  59.5930815  31.5763640
  34.6910357  59.5258045  31.3049579  35.7569742  58.8110018  32.1073413
  21.7310905  11.7073047   9.6541417  21.3228917  12.1534824   8.9121640
  22.6397920  11.5753102   9.3838310   1.9870001  67.3534822  37.0744824
   2.9013956  67.0998764  37.2001648   1.7710005  67.8650618  37.8541374
   7.2168452  51.9928026  28.1104279   7.0463681  51.3214111  27.4498177
   6.6139615  52.7031851  27.8910780  33.1504202  26.1706400  44.5935249
  32.9826236  27.1018839  44.7379541  33.9576602  25.9949279  45.0769711
  50.8703184  14.3674576  44.4986582  51.5863228  13.7323153  44.5115614
  51.2681198  15.1700032  44.1611528  13.9061344  59.8081732  40.4258919
  13.5777175  58.9090824  40.4288864  14.8033309  59.7343540  40.1005888
  68.4738064  46.1013174   0.1765568  69.2917442  46.4983273  -0.1227675
  68.7454033  45.4575920   0.8308403  31.1513591  12.4623215  34.3308496
  30.7752252  13.0939877  33.7178636  31.1401057  11.6315007  33.8556242
  76.6715860  71.7473602  31.5323782  76.8702888  72.1609402  32.3724365
  76.8282604  72.4341393  30.8842897  25.0294590  25.3301334  10.5508256
  25.9862781  25.3150582  10.5283499  24.7640061  24.9074006   9.7340858
  28.1255054  22.2302103   1.6822129  28.9976525  22.0492458   2.0327014
  27.5683856  22.3113823   2.4563316  40.1501274  26.3214064   3.8694799
  40.2345467  27.1119809   4.4024855  40.1981926  26.6351199   2.9664263
  17.5167036  24.1761136  23.7012815  17.7433348  24.7897267  24.4001007
  18.1433463  23.4592366  23.7994576  50.2383375  52.4364662  15.1145554
  49.6043301  53.1509256  15.1763523  51.0466433  52.8580952  14.8228383
  63.0897999  25.7589531  57.8767967  62.8465509  25.0908041  58.5176086
  62.2545195  26.1089182  57.5668573  55.4332352  33.6733985  12.4681365
  56.2758541  33.3337069  12.7695131  54.8736334  33.6488366  13.2443297
  28.3464718   7.3064321  21.9166875  29.2457342   6.9785440  21.9097495
  27.8077316   6.5314656  21.7572570  62.3725796  66.8581295  66.6405344
  61.5028715  67.1882200  66.8660975  62.8492022  66.8521404  67.4706125
  79.9151945  20.6845355  25.0337934  80.6879902  21.0413599  25.4716325
  79.7178268  19.8803318  25.5139351  67.0531845  72.3057747  31.4746737
  66.2907934  72.8451681  31.2648058  67.5121021  72.7950525  32.1574903
  63.6584854   7.6592726  38.4524965  63.9933538   6.7625624  38.4547234
  63.9341784   8.0158007  37.6080370  64.4654655  39.9611139  67.2898436
  65.3872395  40.1316881  67.4834061  64.1807699  39.3672800  67.9844999
  21.2703323  59.4398069  27.7322006  21.1246514  59.2252398  26.8108058
  20.5386949  59.0285921  28.1924605  26.1345744  19.3206692  33.7587881
  26.0677695  19.2541289  34.7113323  26.9877052  19.7270596  33.6063266
  68.2097673  56.5475130  23.0567741  68.4201479  55.8580637  22.4269867
  67.8126144  57.2406006  22.5293899  37.0178032  77.2556400  13.5012460
  37.4000549  77.4174452  12.6387286  36.8836308  76.3083220  13.5298741
   2.9001918  56.4030552   2.8740746   3.7018791  56.8999338   2.7108511
   2.7522889  55.9143257   2.0644455  75.2753925  22.5106430  22.1808314
  76.0314798  22.7373767  22.7222681  75.0255871  23.3340144  21.7614436
  14.6642673  32.5231409  15.2049863  15.3768349  32.0670700  15.6527340
  14.9711370  33.4262347  15.1244724  17.5524080   5.9034979  36.9359279
  16.6742861   6.1672646  36.6610432  17.9452729   6.7042565  37.2833109
  10.9895575  72.8887320  12.9757988  11.3149214  73.2608747  12.1561158
  11.7782497  72.7144861  13.4894454  53.4823895  10.5934048  47.6832533
  52.5715780  10.6938255  47.9599619  53.9278650  10.2352297  48.4510422
  27.0170522  26.5142512  15.6241190  27.1685553  26.6607833  16.5578258
  26.0688710  26.5938330  15.5199456  26.7551970  34.5756197   2.3447223
  25.8059216  34.6426892   2.2417082  26.9448805  35.0683594   3.1431335
  59.7099876  13.0376768  24.4304085  58.7828970  13.0526876  24.1926861
  59.8698378  12.1377230  24.7145963  39.5822120  39.2060471   3.4278086
  39.8183203  39.8954606   2.8071687  40.2618551  38.5411572   3.3171904
  37.9668570   5.6464261  28.0653930  37.2132039   5.6855690  27.4765754
  38.4173012   6.4806795  27.9336643  60.2429485  30.3070807  67.9873991
  61.0605621  30.1187468  67.5266743  59.6010971  29.7218561  67.5851917
   5.9154463  50.9502697   1.4439143   6.6911334  50.9781075   2.0040628
   5.7089365  50.0187922   1.3668886  77.2206354   3.3222729   0.2168603
  77.7682686   3.3594441   1.0010450  76.5730476   2.6440507   0.4088957
   2.2676954  43.7105608  33.0468321   2.8198311  43.8752842  33.8111901
   2.7376291  43.0392647  32.5521016  80.2192211   7.8708988   6.6105676
  79.8428202   8.7509656   6.6163379  80.5910492   7.7751726   5.7337457
  28.1281829  30.6262994  25.8979344  28.9365864  30.5644107  25.3891301
  28.0548930  31.5546989  26.1191511   3.1011862  78.3359385  24.9226093
   3.5873410  78.7633085  24.2174578   2.6809344  79.0552759  25.3939629
  39.6063542  74.9204206  41.8251276  39.7635341  74.5375538  40.9620333
  40.4555893  74.8771095  42.2646236  26.2912440  16.6948986  21.3110924
  26.0767126  15.9482503  21.8703103  25.9560347  17.4547315  21.7870331
  14.0259695  55.8783579  37.5949597  13.3519733  56.4945984  37.8816748
  13.5897660  55.0263500  37.6011801  13.8210583   8.4632128  10.9796882
  13.8287663   9.1383129  10.3011513  13.1546915   8.7560350  11.6013336
  74.7266626   6.4269269  39.6699405  73.9678669   5.8732843  39.8541713
  75.4252958   6.0648710  40.2149677  62.7399015  28.2931590  10.9724820
  62.6834774  29.1654873  10.5824935  63.2219028  28.4264088  11.7886627
  69.5894337   5.3649282  65.0756216  69.1798925   5.6142330  65.9040880
  70.1622820   4.6323961  65.3025103  45.6932354  17.8670561  33.4570026
  46.4832544  17.6062429  33.9303660  45.1773739  18.3522701  34.1009641
  47.3235035  37.3713231  64.4148540  47.9556894  36.7166805  64.1181755
  46.6827345  36.8729019  64.9220228  15.5925930   0.7088792  31.6221929
  15.8494687   1.6309670  31.6227031  14.6436572   0.7246712  31.4976788
  11.6163087  30.0035191   7.7902919  12.5444090  29.8774600   7.9877049
  11.5510798  30.9196258   7.5206137   9.8735315  51.0329533  31.7418551
  10.3452229  50.7909775  30.9448695  10.5544221  51.3455772  32.3375797
   1.5406139  55.3836298  61.3048172   2.4200869  55.7602882  61.3346291
   1.1574739  55.7332420  60.5003262   0.8748752  23.9596009  48.6979103
   0.9961113  24.3063235  47.8139877   1.7373171  24.0369058  49.1058922
   2.8384849  63.7002516   6.8856549   3.0560023  62.9957533   6.2752450
   1.9936007  64.0299940   6.5795976  20.4394102  46.6009331   4.5980930
  20.0499606  46.1664343   3.8392958  19.6910226  46.9304514   5.0956506
  16.4067125  24.0992022  12.3382413  16.0017407  24.5317173  11.5864694
  15.7005274  24.0232778  12.9799354   4.6995801  15.0350642  44.2337704
   3.7461790  14.9982095  44.3105841   5.0058651  15.1934493  45.1267099
  68.9870167  75.2293444  38.8315797  69.7244930  74.8977232  38.3193493
  68.8892269  74.5997810  39.5459485  67.7825594  30.4859829  43.4342813
  68.4016228  31.2158632  43.4179211  66.9352293  30.8861804  43.2390690
  29.0844536  41.3319635   9.1993451  29.8740506  40.8179474   9.0303600
  29.1448164  42.0700788   8.5929018  11.4952493  43.2673740  58.5511780
  12.2648573  43.8039541  58.7409592  11.2262046  42.9245663  59.4034290
  42.4920321  27.7178073  13.9567041  42.3721695  27.8024292  14.9025929
  42.6596117  26.7855096  13.8189685  44.1550064   7.9812652  28.8758206
  44.7314310   8.0501539  28.1147552  43.4136677   7.4596220  28.5683537
  22.3812604  65.1831627   4.5315129  21.4944077  65.3495979   4.8509184
  22.7692819  64.6079016   5.1908666   4.0431064  31.3010120  23.5669923
   4.1046381  32.2559452  23.5436535   4.1580924  31.0312533  22.6558185
  29.9255013   7.0877427  24.9080992  29.7048450   7.9859328  25.1546693
  29.2023349   6.5612930  25.2488542  46.7684317   3.7252107  15.5233419
  47.0421171   2.9824686  14.9851382  45.8150339   3.7429741  15.4399848
  30.9370160  51.9859123   1.0644155  30.8272576  52.3194408   0.1739425
  30.5304050  51.1195326   1.0474857  20.6763959  63.1645346  36.2134147
  21.2814498  63.2825708  36.9456768  21.2422991  62.9981518  35.4595566
  11.7557251  48.5453701   3.3785650  11.6069317  49.0275049   2.5651538
  12.3020160  49.1281891   3.9059392  18.3990026  20.3444099  53.1973982
  18.8707197  20.8586287  52.5421906  17.6580310  19.9706030  52.7204704
  60.1284170  47.1769667  67.7618980  59.5965242  46.4736319  68.1342411
  61.0042143  47.0296669  68.1190014  12.7735329  53.5364723  37.2574520
  13.0645239  52.7771521  36.7524862  12.1650481  53.9920759  36.6757274
   5.4621518  16.7661142   0.6689665   5.2029926  15.8642089   0.8577372
   4.9890721  16.9884133  -0.1329131  63.0817318  43.6335087  54.0495825
  62.3083687  43.0878878  54.1925430  63.3474684  43.4414053  53.1502962
  19.5038164   0.5365329  44.9346447  19.6024859   0.7740264  44.0126371
  19.9988222  -0.2775620  45.0265741  16.1117077   0.7847460   8.6117524
  16.8991220   0.7100644   9.1508561  15.9989989   1.7263274   8.4815490
  27.4824810  31.4356065  33.8390827  28.3752084  31.6508508  33.5690093
  27.2265363  30.7129216  33.2659745  26.3489652  23.9142132  28.1278706
  26.9934654  24.6181035  28.2012844  26.8520975  23.1597900  27.8213859
  11.1075449  31.5663266  23.4759498  11.1442244  31.6242838  22.5212097
  10.8198643  30.6702495  23.6506295   8.1132521  36.2970265  68.2955116
   8.0802621  36.8610199  67.5228192   9.0446104  36.1135157  68.4185046
  58.7570238   4.4652399  13.5344732  59.5498943   4.5104036  14.0688419
  58.0419445   4.6093237  14.1542614  21.2590528  20.5152011  13.5625541
  21.6146874  20.0602603  14.3259573  21.9310498  20.4134345  12.8885412
  20.0121522  55.7195139  18.0203712  19.8458576  56.6585875  18.1023467
  19.6235752  55.3378534  18.8075030  56.9069004   8.3417201  38.7526584
  56.8590689   8.6971372  37.8651786  56.2508011   7.6449060  38.7672877
  10.1815379   2.8016427   8.9716321   9.7340500   1.9980726   8.7065631
  10.0631499   3.3970070   8.2315260  43.3850956  14.1400278  52.2937775
  43.0351973  15.0262606  52.3853922  44.3047047  14.2181718  52.5476313
  42.9281759  22.0355463  24.3533158  43.1290245  21.5577388  25.1580477
  43.5116243  22.7941132  24.3732023  53.2651329  24.6729422  21.3822556
  52.9235840  25.4515886  21.8218946  52.4979687  24.2735267  20.9721851
  55.1906061  35.3138804  10.3189695  55.1299953  34.7182870   9.5720929
  55.2504253  34.7374177  11.0807729  30.6566978   5.6352258  20.9716892
  30.7819963   4.7034502  21.1514831  30.5056691   5.6787699  20.0274825
  23.9202213  12.1848857  15.1642537  23.9855313  11.4881504  14.5111656
  24.2027998  12.9738927  14.7018158  45.9014940  38.0860400  17.0257652
  46.3511372  37.4783134  16.4386380  45.5828857  37.5360847  17.7414942
  55.4353905  52.1350241  28.8749218  54.9745178  52.8088713  29.3746758
  55.5051804  52.4975157  27.9917669  28.4311843  23.2575083  23.1590939
  28.5543442  22.4483347  22.6628041  28.6395311  23.0185962  24.0622783
  10.3752398  73.0661106   8.4447783  11.1269712  72.6237774   8.8390791
  10.7430553  73.8556480   8.0478191  18.6990428  75.2738380  24.1373158
  19.4193482  74.9192524  24.6585250  19.0986550  75.4960918  23.2963967
  36.7216706  38.6150718  13.0230200  36.9670177  39.5244431  13.1935489
  37.3898506  38.0982637  13.4732163  66.2092495  70.9441519   0.0411518
  66.0242033  70.4582024   0.8447943  66.3888550  70.2676868  -0.6118169
  13.9791989  71.9139671  29.5521498  14.0790832  72.8645277  29.6039701
  13.0372405  71.7670822  29.6379972  82.0231056   3.4280920  14.0934336
  81.6112709   3.6973861  13.2723951  82.6006603   2.7059481  13.8461053
  16.3108349  45.6210661  40.2646351  16.8050921  45.5669308  41.0825634
  15.5137146  46.0970831  40.4975271  81.2282658  40.2088070  29.2641783
  80.6940556  40.7933235  29.8019409  80.8111095  39.3520594  29.3546796
  34.7263074  25.1974177  28.4995127  34.3907928  26.0006547  28.1014299
  34.0800238  24.5291138  28.2716537  63.5105610  63.7121725  31.3480759
  63.6666441  63.6469269  32.2902083  62.5952053  63.4545851  31.2385392
  20.9177876  33.1266904  21.2852407  21.3589931  33.7221766  21.8910170
  20.5062032  33.7023425  20.6406808  53.3212137  63.0463123  53.6382294
  53.0560732  62.8714657  52.7352524  53.5391617  63.9783192  53.6476612
  81.4860630  70.0197411  34.6818972  82.3995781  70.0023746  34.9672532
  81.4483929  69.3913412  33.9608383  46.7088366  10.7318532   9.4196510
  46.2166643  11.5353668   9.2512262  46.0387993  10.0530815   9.5005804
  35.5223823  29.8462033  36.5884066  36.2596440  29.8935866  35.9797764
  35.8221507  29.2591834  37.2825098  30.8117414  26.2381029  33.1839752
  30.7225585  26.6302919  32.3153758  29.9286962  26.2681651  33.5521579
  11.7954254  54.8043251  66.6027164  11.8834054  55.6892347  66.9568729
  11.2768829  54.9157095  65.8058834  44.4156790  21.8084025  67.2658825
  43.7133455  21.1632085  67.3476505  44.7054195  21.9623017  68.1651020
  66.2622833  66.0969639  48.4284735  65.9823132  66.8155861  48.9954281
  67.1564102  66.3262129  48.1750631  45.0233507  15.9507072  44.4471550
  45.8298874  16.4227295  44.6543217  44.4179964  16.6299093  44.1497183
  56.1008263   4.7530824  24.5937705  55.5886602   5.1792979  23.9065576
  56.6135836   4.0888274  24.1332555  38.4561443  14.4096458   8.4728879
  37.6636100  14.9153304   8.6528975  38.1545520  13.6727059   7.9416674
  69.1289997  11.1703432  12.4747682  70.0739384  11.2758839  12.5851452
  69.0074015  10.2309608  12.3369062   5.0909513  46.9493532  13.5563970
   4.5991227  46.8718004  12.7388871   5.9752005  47.1921396  13.2818222
  21.7045212  18.6837971   0.2062274  21.4071059  17.8483641  -0.1540863
  21.3765383  18.6871445   1.1054761  30.4841995   7.8526771  37.1751976
  30.0854158   8.6051810  37.6121640  31.3412523   8.1684607  36.8888831
  71.6544676  21.2628722  59.8630238  71.5590954  20.6094241  59.1701031
  71.1359644  22.0089221  59.5617008  33.5053229  23.2386518  14.8633587
  34.3874288  23.3887625  15.2033460  33.0010748  22.9508781  15.6243777
   8.9896673   1.8919824   5.8832151   8.1732661   2.3874649   5.8182722
   9.4616061   2.1012396   5.0771648  62.2889996  58.3069086  66.2071705
  62.7310276  58.8115692  65.5244112  62.1893549  57.4320412  65.8317852
  44.4491482  28.8590121  21.7287540  44.9297190  29.4062185  21.1075854
  44.5767832  27.9656601  21.4095998  23.7157083  60.0139809   0.9134772
  24.2770553  59.9950075   0.1383898  22.8916144  59.6239471   0.6219716
  22.7967978  14.0524209  43.3266115  21.9611907  13.7036848  43.6370659
  23.4404087  13.7287271  43.9568663  13.6634707  33.6134815  30.1584148
  14.1262031  33.5947990  29.3207026  13.2241511  32.7645183  30.2083516
  68.0008459   8.8631785  11.4813113  68.3974504   9.0661794  10.6341255
  67.3611641   8.1777900  11.2882280  19.6332455  25.2256298  30.5588150
  18.8248408  25.6639910  30.8244324  20.0458741  25.8346629  29.9464011
  41.7759705  61.4576101  30.2571797  42.3389435  62.1127415  30.6696010
  42.1934748  61.2793922  29.4144702  76.0640240  67.6499605   1.2715419
  75.3020334  67.3369026   0.7841012  76.2742138  66.9351149   1.8724126
  73.9485359  26.5540838  66.7046595  74.4585514  27.3640490  66.6962481
  73.8298512  26.3361692  65.7801819  23.6739182  52.3740911  36.3926554
  24.1360140  53.2015181  36.2582636  22.7680945  52.5631094  36.1477351
  75.1340818  73.5808563  47.4322128  75.6200981  74.4015455  47.5128031
  74.6357441  73.6763287  46.6205597  53.2284451  70.6472635  51.6082287
  54.0725422  70.3687239  51.2530518  53.1857681  70.2386093  52.4727583
  77.0169210  20.3606486  45.7292271  77.1937943  19.9381173  46.5697098
  77.8295231  20.8194280  45.5160856  33.3476543   1.8395171   4.9981812
  33.9209628   1.7037547   4.2437822  33.9079547   1.6771956   5.7570934
  29.7556210   9.9379712  25.0839877  29.3912292  10.0768077  24.2098165
  30.7015300  10.0245643  24.9657059   4.1120464  63.8725853  54.1334772
   4.4416985  63.4175491  53.3585548   4.6887213  64.6305037  54.2295980
  76.2331057  62.8588009  56.2904739  76.8776798  63.1755066  56.9232893
  75.4347229  63.3441162  56.4985180   5.0634336   4.8341843  41.4042187
   5.9160066   4.3998590  41.4309120   4.4975215   4.2222384  40.9335852
   1.6948658  49.4135332  64.8193645   1.3770558  50.2704477  65.1038313
   1.9847104  49.5527792  63.9177942  13.4871602  11.7394876  19.0246272
  13.3164954  12.6430762  18.7588573  13.7220979  11.8024373  19.9504089
  35.7641077  24.4290948  11.7285705  35.8259177  24.4621205  12.6832020
  35.5724835  23.5119867  11.5325475  34.9622250   7.4649781  42.6926136
  35.5313444   8.1570876  42.3559856  35.5308509   6.9402236  43.2561111
  51.7549086  48.8077545  67.8891039  51.5890789  47.8889132  67.6782417
  52.6930189  48.8451576  68.0755997  50.9800768  63.6164093  55.8522892
  51.0286045  64.4596100  55.4018545  50.2973938  63.1344509  55.3854990
  78.2662201  10.2522838  59.5730639  79.0842819  10.6272435  59.2468548
  77.7724600  11.0037196  59.9013567  11.0811162  40.9353209  53.6926603
  10.2292180  40.7215977  54.0732145  11.2339461  41.8462229  53.9439201
  24.6847892  11.6342282  17.6772106  24.9020290  10.7021332  17.6618242
  24.5217276  11.8573153  16.7607641  81.6395473  70.8611012   5.0940162
  81.5154839  70.7777500   4.1485578  82.3152351  70.2166605   5.3046525
  36.5144920  19.0415967  54.8169184  36.4850426  18.3339179  54.1730595
  37.1763062  19.6451509  54.4793415  29.5226169  17.3149288  22.3927522
  28.6736965  17.1934175  22.8179622  29.4535899  16.8222630  21.5749812
  24.4550228  22.6937127  43.7382603  23.5273027  22.6481938  43.9695501
  24.6062565  21.9163227  43.2006502  31.6524649   2.6509526  39.0919185
  32.1984792   2.1212649  39.6728945  32.2599983   3.2757354  38.6959624
  15.2045763  76.7949915  23.0768418  16.1142218  76.7332125  23.3683228
  14.7519124  77.2351837  23.7962556  65.6571245  19.6166348  10.2694690
  65.2886343  19.4358504  11.1342025  64.9441910  19.4244194   9.6603584
  73.0855513  66.8761492   4.5959467  72.4612474  66.4280415   4.0252674
  72.8153372  67.7941179   4.5724818  53.6109686  16.0021758  14.1574204
  53.1857491  16.0612893  13.3018947  53.1422520  15.3008974  14.6099079
  82.3174095  14.0722990   3.0577278  81.9120121  14.7369587   2.5008541
  83.0292320  13.7160921   2.5260651  80.4765224  10.9728408  47.1293116
  80.2100849  11.7112815  47.6769876  80.6525517  10.2656353  47.7498817
  68.8601780  30.1588511  60.6936693  69.7091722  30.1956892  61.1342144
  68.4981251  29.3083096  60.9421206   8.0556142  69.7401047  56.9685984
   8.9093399  69.6253252  57.3859835   7.6280338  70.4253006  57.4823284
  51.1384344  55.0349474   4.4590998  50.7375145  55.6263161   3.8220930
  52.0673132  55.0281572   4.2280784  21.1991906  28.5962605  49.4072533
  21.4079118  27.8447938  48.8523102  20.9606934  29.2895532  48.7918663
  22.7819562  29.5034003  12.6580799  22.3748636  29.6154809  13.5171163
  23.0455232  28.5834646  12.6361263  57.0368862  25.3970504  54.9556971
  56.7748880  24.8536611  54.2125225  56.2534285  25.4477882  55.5032873
   4.6875948  50.7150650  14.9757051   5.3382671  50.7516146  15.6767905
   3.8452554  50.7598829  15.4281282   4.6646893  75.9338903  23.8245463
   4.8047340  76.5200329  23.0808663   4.2701426  76.4896965  24.4965911
  16.1510944  23.7764668   0.7606727  15.3018928  23.4532642   0.4596275
  16.6435146  22.9859972   0.9818318  57.7380323  72.6161623  35.2995133
  57.7496338  71.7149162  35.6217837  57.0693874  73.0511332  35.8286142
  35.3380871   8.0849624  67.4068117  35.2425361   7.9205835  66.4686823
  35.6876159   8.9744920  67.4597263  40.9973335  19.2592776   6.6465569
  41.5558386  19.9905503   6.3828403  41.2439966  19.0849388   7.5548500
  70.2626324  75.5514145  20.8504725  71.1322451  75.7935047  20.5320430
  69.7177553  76.3158894  20.6636095  69.3960238   8.6497414  20.8281755
  69.2254305   9.5388210  20.5172634  69.6023703   8.1543022  20.0355911
  18.2995701  27.8224897  66.6614342  17.8247893  27.8942919  67.4894810
  17.7916682  27.1944308  66.1478090  18.6721992  19.3040597  47.5417995
  18.2474172  18.5532033  47.1270657  18.6078942  19.1273618  48.4803486
  25.3266335  34.8858166   8.2525629  25.2388644  34.4028187   9.0742946
  25.1358461  34.2391634   7.5730985  14.0217865  32.9069996  24.7467685
  13.6392295  33.7844205  24.7429132  14.2553699  32.7435398  23.8330126
  52.2743607  75.3791285  30.3360081  52.9665089  75.9184551  29.9535251
  52.6544380  74.5020723  30.3864884  62.0831013  48.7042046   9.8518896
  62.7182293  49.4013214  10.0158060  61.6726923  48.5492134  10.7026386
   0.5949870  38.2318115  22.6953292   0.3497457  38.8973880  23.3380532
   1.3889056  37.8344059  23.0530930  33.1886315  36.5803075  16.6107988
  33.9081025  36.4321661  15.9970844  33.4037900  36.0357690  17.3680413
  33.4773922  12.9433429  66.2296152  33.1229138  12.1243107  66.5756798
  33.7789536  13.4196150  67.0032167  58.0061150   1.4273748  38.2385731
  58.1420708   2.3318061  38.5209775  57.1088028   1.4127316  37.9056358
  34.4830656  44.8412991   9.4070703  35.3142548  45.0653124   9.8256099
  34.4737554  43.8842964   9.3900108  38.6003184  27.0015454  19.9241114
  38.4702396  26.3498855  20.6130600  38.0551648  26.6957545  19.1991758
  20.4828167  33.6560607  17.8839314  20.6978130  32.7963233  17.5221825
  20.0322890  34.1097784  17.1716142  31.5361190  16.1802280  12.3209953
  31.7523432  17.0070612  12.7520692  31.0119295  16.4357662  11.5619469
  62.8143406  47.0267153  45.2993107  63.7362099  46.9619942  45.5487204
  62.7373266  47.8876734  44.8881531  42.0052862  44.4027472  24.1729140
  41.7782640  45.3161001  24.3474936  41.1947727  44.0128899  23.8453245
   4.3306774  67.7100182  60.2308702   5.1080263  67.2797108  60.5869532
   4.3155968  68.5674429  60.6561041  66.5801287  10.0680375   7.0115012
  66.9988298  10.1549768   6.1551350  67.2884369   9.8040265   7.5987232
  39.3889856  32.3452449  32.2728205  39.2396879  31.6567540  31.6248083
  40.0327110  31.9719577  32.8749084  29.6746016  74.4505405  11.1156464
  30.3632450  75.0803900  11.3284647  29.1090512  74.9136877  10.4976857
  23.0651331  69.9187374  16.7275858  23.2517219  69.0497637  17.0829773
  22.1850777  69.8427916  16.3588524  71.6526699  19.7703302  45.9122849
  71.0006285  19.4391978  46.5298796  72.4546289  19.2971373  46.1340523
  55.5605793  22.2145939   5.6394124  56.3255453  22.2320056   6.2145245
  55.7852221  21.5775084   4.9612606   7.6241815  32.4082947  21.7429733
   7.0275986  33.0673504  22.0978904   7.0750636  31.6359329  21.6082239
  25.5251813  77.1576118   7.5298804  25.3281593  77.9270506   8.0640870
  24.6687508  76.8355083   7.2487915  54.5090008  11.3443708  13.4189248
  53.6280537  11.7159605  13.3732939  54.8170328  11.3463712  12.5126445
  78.9853668  69.7433281  67.5534534  79.0258551  70.5069542  68.1291914
  79.8546076  69.3478584  67.6186514  21.1258459  39.3797421  11.5073717
  21.7673564  39.7918820  10.9287214  20.3875780  39.1696668  10.9354794
  49.4074583  61.9347811  54.3485212  48.4761286  61.7504978  54.2264891
  49.7956085  61.0834503  54.5505238  54.5296049  25.7462311  19.0413284
  54.2681170  25.4161930  19.9009407  55.1051474  25.0673485  18.6890519
  47.3362494  18.1392395  40.3067684  47.2833204  19.0627325  40.0606155
  47.8540659  17.7350843  39.6105242  47.9549646  53.3504963  37.5202227
  48.7047815  52.9535627  37.0769978  48.2008696  54.2689180  37.6309705
  37.2034168  27.6346755   7.8257090  37.6687050  26.8339658   7.5836307
  36.4273047  27.3282123   8.2947081  51.7764282  12.0751333   9.6351874
  52.3615646  12.7949893   9.3992800  50.9731388  12.5055480   9.9279404
  57.7052402  74.5923758  52.3617744  57.3436356  74.9843311  53.1566620
  58.6273098  74.4394159  52.5682449  59.3281603  57.3937464  50.7235193
  59.8745394  56.6422892  50.9537697  59.9443817  58.1215191  50.6407404
  33.2502866  32.9069805  17.1455157  34.0594316  33.3535004  17.3947930
  32.7016926  32.9504251  17.9287076  13.4186733   2.0828448  52.2528982
  13.1350994   1.9432759  53.1564140  13.3055425   3.0223459  52.1087790
  10.5205071  34.5049834  23.2365775  10.5417943  33.5706973  23.4436703
  10.3400123  34.5380211  22.2971296  20.8491492  46.2641335   7.8821534
  20.6944370  47.0105171   8.4611297  20.5553079  46.5634823   7.0217580
   6.0511947  74.2185593  20.3033400   6.4998996  74.5618582  19.5306575
   5.2942449  73.7496138  19.9521291  30.9254599  70.1414204  44.0843725
  30.8482075  69.6142101  44.8795557  30.1009321  69.9969101  43.6201525
  44.0109921  18.1107831  37.3490691  44.2721558  18.1175017  38.2699275
  44.8299217  17.9888654  36.8687367  67.6494884  67.0191002  67.3505545
  68.0961180  67.8225422  67.0836592  68.3405399  66.3571644  67.3733187
  60.0807571  61.8147230  49.4053793  59.3070030  61.7169094  48.8504314
  60.8125210  61.5608788  48.8429546  82.6794624  48.5386896  58.8238907
  81.9735432  48.9042616  59.3570614  82.5892830  48.9738703  57.9761171
  60.7643414  11.3347876  30.2333593  59.8346329  11.3081229  30.4595566
  60.9517765  10.4622209  29.8873448  17.5149107  75.4925156  57.6272440
  17.2298014  75.3899527  56.7192650  17.8414261  74.6274900  57.8749275
  64.2800522  36.3483715  13.5351896  64.1326094  35.4573512  13.8523281
  64.7871351  36.2356019  12.7312100  24.2084599  44.2569542  67.0742512
  24.2597389  45.1990700  67.2355556  23.3085084  44.1126537  66.7818499
  72.8141832  69.1574335  36.0955930  73.3920383  69.3886471  35.3683710
  72.1743965  68.5577536  35.7118034  47.4162388  29.7092843  13.3772576
  47.0409632  28.8383245  13.2475173  47.1364260  29.9620175  14.2570651
  24.1424561  17.1285713  16.3619483  24.1103411  16.4937973  17.0776737
  24.9341917  17.6394987  16.5302944  40.6477642  44.3552160  32.8054380
  41.3207436  45.0356054  32.7855611  40.6912184  44.0012360  33.6937189
  75.4527807  68.5295200  56.9915581  75.2327538  68.0115986  56.2172318
  76.1504936  68.0342436  57.4206543  60.8541155  13.2444954   5.7171291
  61.0001707  13.2059467   6.6623348  61.6555738  13.6331034   5.3665841
  52.3195362  50.9163666   2.0190167  51.3978195  51.0672379   1.8094625
  52.3038197  50.4929066   2.8773087  74.7493505   8.2789117  31.6297817
  74.7950220   7.9370850  32.5226974  74.2533445   7.6187313  31.1456656
  82.1074677   7.4354994  36.7426872  81.4595032   7.9176044  37.2564507
  81.5935040   6.9790024  36.0765958  12.8477371  74.7063160   7.7218044
  12.6157236  75.5146265   8.1790125  13.4626043  74.9833918   7.0425403
  44.0570736   4.1339213  15.1460445  43.7609720   3.3760011  14.6419477
  43.2748318   4.6767938  15.2441013  24.8951221  75.6412506   3.9761904
  24.2586136  75.0936699   4.4358015  24.4188786  76.4477301   3.7786740
  34.5634627  26.3574886  57.9083443  34.2367125  25.6587911  57.3415232
  33.9383197  27.0728540  57.7913857   2.8376174  61.1424065  66.0865545
   2.7989155  60.2158594  65.8493900   2.9494214  61.5986538  65.2525473
  25.1817489  50.3738165  24.8945808  25.5913639  49.5542097  25.1715088
  25.3314614  50.9749174  25.6243038  53.4727430   5.8871174  30.8408499
  54.0422821   5.2998245  31.3377905  53.6318922   5.6572109  29.9254012
  26.2428832  14.0930772   0.0515147  27.1477962  13.9767790  -0.2380333
  26.2736511  13.9490414   0.9973153  77.4351454  14.0386355  23.6620927
  77.0155478  14.6844399  23.0936670  76.7876863  13.3389354  23.7484050
  26.6173363  49.1786814  64.8751831  26.6481566  48.3252716  65.3075790
  25.6847715  49.3424940  64.7347498  21.1561584  70.6254864   7.0740747
  21.7183495  69.9837446   6.6400951  20.3328896  70.5909204   6.5869719
  26.7889333  59.4527435   9.3781108  25.9010506  59.6821356   9.6524739
  26.8597698  59.7938347   8.4865546  69.8268700  43.1680059  56.9561577
  70.2322388  43.9855528  57.2451639  70.0826359  43.0855322  56.0374546
  47.3765135  47.9282141  34.9376488  47.3097801  48.7780952  35.3729439
  47.9405499  47.4091244  35.5109262  54.2826748  53.3860779   7.9574740
  54.1664886  54.2412090   8.3715761  54.8458481  52.9020262   8.5614270
   5.1721197  28.9538312  62.0141363   4.6788242  28.7710428  61.2144613
   4.6232185  28.6087489  62.7183104  77.9197931  21.5798759  38.8734937
  77.7174759  20.7861805  39.3688178  78.7099075  21.3594580  38.3801699
  58.8365173  75.1751518  60.6964064  58.7056065  74.9716139  59.7703028
  58.2079172  75.8734512  60.8793449  54.6396494  38.2486629  11.0645556
  54.9999905  39.0948606  10.7993507  54.8858547  37.6514959  10.3581536
  35.0584745  36.7937636  14.5540345  35.6918883  37.3749113  14.1329825
  34.8053646  36.1773038  13.8669062  41.5785933  51.0754299  10.5677891
  41.9911623  50.2304506  10.3888190  42.2715282  51.6001654  10.9686911
  35.7732677  34.2612171  25.9094763  36.6770697  34.1465187  25.6158447
  35.7799101  35.0910306  26.3865519  83.5912482  78.4763455  20.6797743
  84.0736501  79.2623622  20.9360909  83.1810419  78.1723962  21.4894509
   4.5965964  74.2662716  51.2219572   4.7351447  75.1046705  50.7813692
   4.4887754  73.6362171  50.5094671  34.7714019   3.4314600  21.2395835
  34.8313928   2.6194268  21.7428088  35.5366015   3.9384800  21.5109372
  15.7981074  42.6637506   4.4518423  16.3833809  42.9565096   3.7532866
  15.3608143  41.8927383   4.0905327  29.3982005  76.2658024  33.8422108
  28.9114690  76.4658785  33.0426526  28.7524605  76.3517284  34.5435429
  26.7606592  38.6435771  29.9538231  26.3407278  38.5352111  29.1005087
  26.2983632  38.0325866  30.5275869  37.7904391  36.9803429   1.6423315
  38.2879233  36.8210673   2.4444360  38.1640816  36.3726592   1.0040963
  28.3181524  75.9074545  15.3095138  28.3999324  76.0720491  16.2489033
  29.1093469  76.2894821  14.9296463  31.3736773  60.4415894  30.4067755
  31.3454103  60.9268045  31.2313962  30.4651880  60.1849413  30.2486300
  19.0665948  64.5080853  25.5819845  19.6759737  64.9789333  26.1504817
  19.5272005  63.7006283  25.3537440  41.4080715  71.4349079  67.7530670
  40.9915066  70.7713985  67.2031021  42.1777058  70.9964752  68.1159306
  57.4192095  69.8107958  67.4533844  58.0060625  70.4469299  67.8622532
  56.7957163  70.3431416  66.9593239  28.3608484  43.7346220  23.5242248
  28.2690144  44.6644163  23.3161807  28.3313799  43.2950020  22.6744604
   7.9088271  77.6123762  49.7576332   8.0360258  77.6089811  50.7063389
   7.1190369  78.1363392  49.6237469   9.3411130   8.1285936  13.2726169
   9.1711223   9.0635663  13.1578970   8.5094738   7.7058887  13.0583072
  58.4031773  34.0501642  49.8276472  59.3432188  34.1310501  49.9889231
  58.0243349  33.8938355  50.6926727  79.0775204  71.2628269   6.2320662
  78.8805485  70.6628323   5.5127317  79.9459505  71.6080618   6.0250187
  23.1228209   1.3942744  61.2246323  23.8771892   1.2470037  61.7951345
  22.3827529   1.4852577  61.8248415  62.9460478  75.6208229  59.8593426
  62.5367165  74.7596931  59.9437952  63.0531549  75.7436323  58.9161158
  56.3420725  40.2181482   9.9121439  56.5693331  41.0901785  10.2348697
  57.1848488  39.8055959   9.7230387  62.1389341  53.0688667   8.3491319
  62.1893406  53.5676003   9.1645807  63.0514240  52.9407692   8.0899251
  71.9955301  77.5091887  50.6157684  72.2055197  77.2487831  49.7189283
  72.8446341  77.6973963  51.0155630  51.6470528  50.5851555  62.8334379
  52.5427675  50.6627560  62.5049400  51.1648941  51.2766266  62.3799849
  23.8244891  25.7111764   4.5456749  24.6215367  25.4456139   4.0869546
  23.8608265  26.6676402   4.5548847  20.8227992  27.3340321  10.1464415
  20.8663607  26.6626334  10.8272922  20.0072527  27.1499467   9.6803641
  43.7080908  21.3740683  52.4459267  44.0930700  21.5091228  53.3118296
  43.8769722  22.1921206  51.9784832  16.6184819  16.1532664  62.8946733
  16.7235959  16.5237677  62.0183659  16.4698553  16.9118547  63.4591961
  19.8368919   1.2171646  18.4099340  19.0970206   0.7546857  18.0163145
  19.6731055   2.1400680  18.2158840  35.9144807  47.3570538  29.5051789
  36.2689805  46.9627619  30.3021073  35.6891346  48.2516670  29.7603631
   6.3107073  57.3503590  37.7437854   7.1385992  57.1117210  37.3267984
   5.7102698  56.6439247  37.5057578  73.9500761  43.1608391  61.2935400
  73.7582731  43.7448788  60.5598259  74.3542194  43.7270308  61.9510555
  13.9071572  19.3981993  22.9788351  14.3682325  19.5374691  23.8060260
  13.1782484  20.0181270  23.0035973  26.4698815  25.0784731   3.7006199
  26.8335843  24.1955423   3.7668559  26.5133333  25.2860069   2.7671996
  82.5811100  63.7099457  57.4514866  83.4510136  63.6515713  57.8465700
  81.9778538  63.6703157  58.1936121  31.0616136  33.6614490  26.9642138
  31.6122007  34.3905807  26.6788173  31.6225266  32.8904200  26.8798065
  32.0756459  13.7769568  10.8865607  32.5791168  12.9901600  11.0956061
  32.5279450  14.4811749  11.3510323  58.2073450  11.5425992  10.9732521
  58.3126831  10.5947685  10.8910763  57.8945160  11.6720879  11.8685746
  54.4653702  61.7469358  61.6301727  54.3262053  60.9097338  62.0728493
  53.6303139  62.2063732  61.7186499   4.7454494  27.3376942  50.1778889
   3.9859059  27.1197939  50.7181168   4.3841794  27.4800253  49.3029881
  65.5436182  10.5174541  16.2699771  64.6698189  10.1291871  16.2257123
  66.1074686   9.8047191  16.5704966  14.3928003  16.4382005   6.1693966
  13.6531317  15.8319342   6.1298484  15.1644933  15.8727765   6.2012953
   5.4806483  20.2022529  16.1133111   5.5569446  20.1591897  17.0664930
   4.8308444  20.8872056  15.9557474  28.3042431  16.7343378   6.7720157
  28.7280250  15.9215045   7.0475918  28.9843440  17.2089183   6.2940323
  73.2786465  35.8345151  53.0947924  73.3244038  36.7558479  53.3502960
  73.3706999  35.3530955  53.9169788  47.6667452   8.1664103  61.7327690
  48.3576918   8.6568695  61.2874889  47.9047918   8.2046211  62.6591063
  61.9018555  36.0976195   0.7244962  61.6077805  35.6427836   1.5137213
  62.3176718  35.4162312   0.1962560   7.3910266   6.8417478   5.7771343
   8.0466616   6.7519480   6.4687341   6.6002029   6.4464939   6.1440194
  51.2808943  60.0734711  67.8431845  50.7003975  59.3652153  68.1217957
  50.7085514  60.8371305  67.7691126  47.7437449  51.8172550  25.7099509
  48.5672045  51.7177963  25.2321959  47.2627878  52.4854994  25.2217317
  83.7769413  72.4678230  50.0430822  83.9844131  71.5626192  50.2750206
  83.3461189  72.8217125  50.8211422  72.9358816  54.7416449  59.8562860
  72.0016146  54.7117138  60.0624037  73.2300425  55.5852461  60.1998520
  75.6903791  46.2138319  47.2651339  75.4403925  46.5743256  48.1158876
  76.6153193  45.9877825  47.3632240   2.3912583  64.5228672  50.3200674
   2.1625690  64.5535803  49.3910980   1.7366761  65.0761175  50.7462931
  61.3578987  14.4420040  61.1760235  60.6128263  14.4057012  60.5762053
  61.5405083  13.5263371  61.3868284  15.9958255   9.1600507  15.6414032
  15.4477429   9.9405479  15.7230246  16.1968994   8.9131141  16.5440786
   3.1023887  36.4208221   5.4373527   3.0697572  36.8760896   4.5959842
   2.8408986  35.5227590   5.2340364  41.2641096  49.1419363  14.0631366
  40.7370472  48.3932257  14.3421948  40.7026482  49.9013948  14.2187619
  70.6616497  23.3526206  18.3065724  70.0870562  22.6235271  18.5400176
  71.5115786  23.1161618  18.6779749  34.6098495  71.1989546  21.8471026
  35.4521155  71.4777231  21.4877892  34.0213776  71.9343042  21.6762352
  54.2831802  21.3335752   2.8110683  55.0414515  21.0199070   3.3038858
  53.7349415  20.5574965   2.6954484  54.4797230  30.1196599   8.6832732
  54.8025608  30.7351565   9.3414307  55.2225590  29.5408320   8.5118699
  35.5030107   9.7639185  12.2450078  36.0249591   9.1622835  12.7758908
  36.0377049   9.9223804  11.4670455  25.8968592   5.5745208  10.8025563
  25.3868604   4.9925998  10.2390838  26.0135913   5.0804406  11.6140306
  61.7287683  34.6697783  56.2368822  61.9122410  33.8160753  55.8447599
  61.1773062  34.4721079  56.9938755   8.2305199  39.2905092  18.9325142
   8.0078208  38.9564562  18.0635798   8.8455003  38.6477184  19.2858565
  48.8144064  13.5110080  48.8953686  47.8647709  13.5702467  48.9998293
  49.1568518  14.2538452  49.3925190   9.1990489  62.5725746  48.3037472
  10.0498223  62.9673529  48.4949732   9.4068140  61.7952299  47.7852917
  16.5992713  61.7520142  39.5749307  17.4151742  62.2375631  39.6964812
  16.7916811  60.8740854  39.9042487   0.1786253  53.9469528  45.9470224
   0.1961729  53.5546780  45.0740719  -0.0700834  54.8586798  45.7949543
  38.0249929   5.4913843   9.9273002  38.5317326   5.8471566  10.6572819
  37.8861976   4.5726636  10.1573443  78.0477905  55.6990814  58.9952803
  78.8348341  56.1994171  59.2108107  78.1432104  55.4911470  58.0658245
  23.2459426  16.4529312  26.7660475  22.5090551  16.2474060  27.3413634
  23.9442015  15.8636618  27.0514011   7.7191436   8.0452627   9.4116253
   8.4204495   7.4695450   9.1067463   6.9646335   7.8104460   8.8714325
  41.6826439   4.3435058  66.7754745  41.2783909   3.5836625  67.1943426
  42.5010633   4.4738549  67.2544670  37.7426720  65.3672171  37.9157472
  37.4281168  64.4800043  37.7421379  37.1290731  65.7167244  38.5619450
  17.5557315  75.6772470  14.4017828  17.3220706  75.1437950  13.6421382
  17.3324990  75.1312828  15.1556516  20.1407242  62.8705788  10.0100780
  19.8723662  63.7871552   9.9460685  20.2599430  62.7208519  10.9479475
  31.6564059  51.6360664  16.2526858  31.9287443  50.9066153  16.8094289
  31.2631631  51.2186193  15.4863107  82.5456238  39.6144080  54.0127230
  82.0787525  39.7100949  53.1826019  82.5500107  40.4949903  54.3879366
  48.7200356  36.1459208  19.8245323  48.9497042  36.1991620  18.8968205
  48.2197285  35.3334856  19.9011731   1.4603284  32.9584432  57.8336000
   0.6553191  32.9820657  58.3509350   1.4580446  33.7840176  57.3491907
  79.9388981  60.0690746  62.7806234  80.6402206  60.0965786  63.4314919
  79.7767353  59.1358709  62.6425552  29.7465682  63.3433199  17.5724375
  29.6914554  63.0911303  16.6507030  28.8873577  63.1236744  17.9326367
  49.3677616   5.5354786  38.6141133  50.3058195   5.6437075  38.7708449
  49.2157888   4.5953089  38.7101269  28.2986546  15.6531405  58.8731194
  28.0066681  16.5489984  59.0416908  27.6533580  15.3024161  58.2592630
  78.3197546  31.1553693  55.5308723  78.4067726  30.2250648  55.3230429
  77.4084711  31.3627720  55.3240538   8.5736465  44.9597263  12.6022398
   8.4350783  45.8707571  12.3432899   9.5177317  44.8922539  12.7450073
  63.7434292  42.9138184   4.9158645  64.6859026  42.8261662   5.0583309
  63.6641598  43.1960011   4.0046453  72.6620340  73.8146639  54.3810892
  72.9395819  74.5737934  54.8938417  72.9296207  74.0199041  53.4852648
   4.8173362  78.7043428  14.3205345   4.2420763  79.4227457  14.0574574
   5.4344004  78.6134386  13.5944498  23.5142469  69.5553017  36.2447262
  22.6327729  69.6617937  35.8871031  24.0293360  70.2415895  35.8205485
  18.8908410  11.0708952  65.0268650  19.4088316  10.6073332  65.6849146
  18.2114470  10.4461598  64.7731686  62.7263498  65.3735924  19.4464672
  63.6050224  65.0015783  19.3704987  62.8062963  66.0391569  20.1297402
  29.7793365  48.4592390  28.3201313  29.8704290  47.7694798  27.6627398
  29.2721915  49.1424847  27.8817129   6.3152701  14.9498188   6.7561185
   7.2484231  14.9343348   6.5434748   6.2237281  15.6698775   7.3801130
  47.0005751  75.9777832  39.1906738  47.0928574  75.9340763  40.1424122
  47.8996325  75.9697199  38.8622451  11.9096041   1.7794593  54.8077536
  11.8499649   0.9312323  55.2472830  12.0404232   2.4082953  55.5174589
  40.7864475  15.6712866  60.2490330  40.7845736  15.3284490  61.1427259
  39.8660159  15.6606865  59.9865055  53.7600279  11.1772919   1.4784539
  54.6405077  11.1120415   1.1086866  53.7957096  11.9459271   2.0478025
  14.8317456  77.4368048  55.2384758  14.8789477  76.8939352  54.4515228
  15.7335305  77.7208328  55.3879595  65.1172590  15.7337677  35.4481506
  65.5823994  15.2763665  34.7476792  64.4772100  15.0970483  35.7661986
  66.9938564  18.3200347  33.0874038  67.6922894  17.6730883  33.1868386
  67.4314690  19.0915334  32.7275181  73.2890368  50.4931736  19.6573091
  72.6116705  49.8213530  19.7351694  73.9769888  50.2106333  20.2599049
   5.2480936   7.0526177  67.9117918   5.2476180   7.9558098  68.2287693
   5.7443720   6.5676445  68.5711384  23.8613200  59.8759699  28.7752986
  24.3277264  59.1283846  29.1492152  23.0540180  59.5022535  28.4219790
  16.2126923  66.1196089  61.7387009  16.5869474  65.8695269  60.8939362
  16.9696498  66.3509941  62.2769451  54.5044565  43.8847494   1.1327232
  54.0601826  44.2548370   1.8955401  55.2473927  44.4690323   0.9814095
  35.1178956  52.9240465   1.1750104  34.5011663  53.2146454   0.5031241
  34.8259830  53.3629417   1.9740036  72.1786976  23.3819079   8.6505383
  71.4228678  23.8559175   8.3037406  71.8017721  22.7276087   9.2387998
  75.8393764  53.9211845  13.8819909  75.9025669  54.2298317  12.9781234
  76.6680527  53.4685564  14.0390062  15.4687285  70.2416754  32.6503301
  14.5372331  70.4569340  32.6973772  15.5222332  69.5529795  31.9877100
  66.6679192  52.5398207  14.0907633  67.2445011  51.8454266  13.7720048
  65.9175253  52.0762300  14.4625485   1.8925399   3.3031544  65.6795216
   1.9459230   2.5112236  66.2145233   2.8024602   3.5783899  65.5676222
  47.7039242  50.4573250  12.3837900  48.0544710  49.9902201  13.1421828
  48.4212780  50.4575396  11.7500460  43.4055614  60.2938795  13.6957455
  43.5094833  60.9437943  14.3907595  43.3895350  59.4536495  14.1539848
  75.0692987  69.7731972  17.4149024  75.4330397  69.9077892  18.2900083
  74.2088223  70.1913261  17.4462700  58.6141253  45.9464788   2.9354712
  57.9298353  45.6078339   3.5127911  58.1428528  46.4677095   2.2855073
  27.8057194  58.7328053  12.9052413  27.2280812  59.4916344  12.9873395
  28.3298612  58.9140749  12.1250820  46.7880535  68.5798597  33.5752106
  47.6821041  68.4704876  33.2512593  46.8933678  68.9791250  34.4387650
  74.3957853  16.5009975  19.0502000  73.8098764  16.1116743  19.6993303
  75.1039934  15.8642197  18.9543366  26.2654853  48.1459475  34.1673326
  27.0166206  48.3491707  34.7247624  25.5197525  48.5451508  34.6153855
  82.9545021   6.8288833  60.7448006  83.8538265   7.1170682  60.5886173
  82.4243927   7.3710054  60.1605701   2.3543791  47.4203873   9.0511841
   2.3347619  47.6193857   8.1151044   1.8316044  46.6232204   9.1375858
  49.3277740  16.4918649   7.7457792  48.8761282  16.1333859   6.9817477
  50.2438068  16.5541101   7.4751455  30.8750391  13.9516234  13.8714850
  31.2458014  14.4402611  13.1366384  29.9542809  13.8315523  13.6390638
  48.9251518  16.5813792  58.4115362  49.7496080  16.7317641  58.8740158
  48.3490419  17.2831285  58.7146521  37.6685047  61.9667387   3.1363496
  38.2783556  62.4381876   2.5688541  37.7634311  61.0493422   2.8802180
  68.0083370   1.2333898  12.4599004  68.0170965   2.1081346  12.8484571
  67.1318245   1.1465187  12.0851898  46.9921970  26.8116236  13.4920549
  47.8432655  27.2061634  13.6824548  47.1985722  26.0397363  12.9649591
  51.4591694  71.7136860  17.2578061  51.2026501  72.5257587  16.8208075
  52.0662975  71.2948513  16.6477215  52.1991825  37.9030275  12.0516992
  53.0882263  38.0408835  11.7248535  52.2717762  37.1441054  12.6304936
  34.7786427  72.6440239   8.6208820  35.2474904  73.2505226   8.0476689
  35.4568553  72.0561743   8.9535844  28.1699896  37.7989650   8.1314415
  28.6767793  38.5064626   7.7328908  27.2714257  37.9547930   7.8406948
  28.7225437  14.5343935   4.2276806  28.3484340  15.2882361   3.7716189
  29.6671605  14.6880078   4.2094171  79.6874905  48.7980890   4.2295334
  80.1863956  48.5763168   3.4433132  80.0345993  49.6475744   4.5017821
  81.4214420  24.3971133  38.7198567  80.5337429  24.4829202  39.0675068
  81.9362736  24.0673804  39.4563723  37.1326065  49.9167728   9.0881962
  37.7474928  49.9360371   9.8215294  37.0701122  48.9912081   8.8522816
  66.8616772  18.1345510  62.6039839  66.5584803  17.2425890  62.7734137
  67.7998495  18.0412555  62.4385786  31.1666584   1.3814662  57.2946167
  31.8647766   0.7497567  57.4672651  31.6200018   2.2189263  57.1977997
  72.0199633  55.4410172   7.3206455  71.5008307  55.8024216   8.0390644
  72.0255089  56.1317873   6.6580439  70.8849382  34.9956536  66.3248301
  70.2805042  34.7266817  65.6330585  71.6187429  34.3853140  66.2523937
  68.5552788  52.9302692   3.5885116  68.6444569  53.7688398   3.1356537
  68.5590219  53.1584883   4.5181000  37.8449655  51.3847971  20.8098817
  38.2651877  51.9704914  21.4396453  38.3304143  50.5633354  20.8858895
  41.7623281   6.1023766   4.1084704  41.3416386   5.6348902   4.8300701
  42.6966190   5.9283733   4.2227226  20.1811671  30.0557828   5.9891647
  19.7002470  30.7985735   5.6241822  20.6012607  29.6472287   5.2323055
  49.1660166  49.8619938  14.7986794  49.7524548  50.6114292  14.9019611
  49.7314024  49.0980101  14.9122298  69.8719072  45.1960945  63.9020109
  69.0712214  45.6048107  64.2307806  69.6435452  44.8953247  63.0224514
   6.0274333  38.8360143  21.0254741   6.6286069  38.7914062  20.2819467
   6.1544418  38.0066919  21.4862633  60.7034063  26.4889932  10.4978883
  61.3574553  27.1754932  10.3668725  61.0645247  25.9444952  11.1974239
   6.2641644  39.1074514  58.5214567   6.4696079  40.0023079  58.7921143
   6.7856574  38.5553145  59.1040516  34.7727036  61.7164707   0.6862074
  34.3149686  61.5154171   1.5024713  34.8641181  60.8702993   0.2481807
  15.1336229   2.2649066  42.2727776  15.7353985   1.9816004  41.5844202
  15.6096721   2.9519457  42.7392387  15.9860039  24.3895435  60.3213692
  15.4799497  25.0833201  60.7442331  16.7968500  24.3418550  60.8278131
  20.8310723  38.7452292  59.8539162  21.1851454  38.3240938  60.6371832
  21.5988231  38.9271855  59.3119907  83.2764816  72.7242565  67.7538061
  83.4772491  73.4697819  67.1880150  82.3810387  72.4801683  67.5196409
  40.4279661  35.8311844  16.3966370  41.3180161  35.8513069  16.0450137
  40.3250360  34.9425793  16.7372525  37.7056217  26.6567469   2.2093381
  37.5379992  26.0197377   2.9038537  38.3077407  26.2096834   1.6145106
  68.1930494  53.6823559  11.9497001  68.0772829  53.1076002  11.1930704
  67.5470734  53.3744574  12.5854254  34.0598917  59.1348553  14.7527599
  34.4771910  58.8154602  15.5528104  34.6013784  59.8753166  14.4793737
  55.2149820  34.2239571   1.9578148  55.5306768  33.7820506   1.1695968
  55.7868910  33.9055753   2.6562306  64.9625874  50.0907326   8.5396343
  64.6790123  49.5570040   7.7973741  64.1519976  50.3161192   8.9961195
  42.2417259  48.1908417   9.9140126  41.4836788  47.8520632   9.4377536
  42.9920101  47.7513838   9.5137864  15.3769195  10.5793715  64.2755222
  15.5593920  11.4617908  63.9526129  15.5555463  10.6263196  65.2147388
  79.8576689  29.8967600   5.3047818  80.3658867  29.7509480   4.5068544
  79.1999578  29.2013288   5.3002727   0.4177845   8.3414125  67.2384262
  -0.5167954   8.5015595  67.3693657   0.8127433   8.5163230  68.0926180
  71.9475555  18.4422290   7.4736506  72.2616053  19.2951286   7.1733737
  71.9591188  17.8931582   6.6896743  59.4355488  33.4896612   3.1531960
  59.8930836  32.6994252   3.4402886  60.0587082  34.1985130   3.3126616
   8.2043302  60.3159523   9.7513396   9.0984613  60.4875135  10.0468516
   8.1822360  59.3727064   9.5899969  45.1911926  55.0667858  21.0649467
  44.4960403  54.4091272  21.0869050  44.7811508  55.8602953  21.4091086
  44.6416378  67.9284859  25.7461882  43.8567591  67.5704527  25.3314519
  45.0414562  68.4755278  25.0700808  51.5965414  10.5258739  18.0289662
  51.4095592  10.5437624  17.0903766  52.2431040  11.2198687  18.1576490
  36.0165238  33.2929635  16.7910171  36.8394780  32.8165770  16.9007313
  35.6147885  32.9015803  16.0153508  72.3119164  70.3149796  67.8689528
  71.8484974  69.6833467  67.3189402  73.2189178  70.0090933  67.8728533
  33.9524913  23.8331246   3.1660447  34.3256927  23.8925886   2.2866030
  33.0981970  24.2586493   3.0929759  14.3700492  42.8170729  25.9651136
  13.8674891  42.0254421  25.7728004  13.9272749  43.2043266  26.7202401
  19.5155334  58.5969353  53.2376432  19.1769028  59.1494036  53.9421558
  20.0742626  57.9587507  53.6812353  55.4680586  28.6272717  13.6071658
  55.4075909  28.4568071  14.5471215  54.6498203  29.0748596  13.3917964
  77.1333313  44.8891211  16.3634109  76.4128733  45.3171587  15.9008586
  77.7760696  45.5848169  16.5017235  55.0399017  26.1436367   5.5359882
  55.2877426  25.9285235   6.4351726  54.4532251  26.8950105   5.6224799
   9.7068447  48.6427546  24.8805261   9.4399136  47.7243042  24.9183488
   9.3850595  48.9510059  24.0333748  79.4289827  68.5943127  54.8475552
  79.0527630  68.2488489  54.0380239  78.6730623  68.7634706  55.4098749
  60.5616713  37.1243596  10.9850943  61.1005688  37.1284533  10.1940179
  61.1577654  37.3976398  11.6823900  45.9697199  19.5881903  68.4255075
  46.6732264  19.9648058  67.8968573  45.4663515  19.0554833  67.8098154
  75.4215384  42.0192623   1.4618745  76.0573149  42.4495268   2.0336214
  75.8120918  42.0687294   0.5893754  65.3277779  25.9819007  12.2145033
  65.9981585  26.6604185  12.2947109  64.9693060  26.1021399  11.3351452
  53.8933182   0.1285414  65.7585621  54.0739632  -0.1990843  66.6396189
  52.9773903   0.4049139  65.7889175  52.4253178  41.0666132  66.9892931
  52.4858141  41.8020535  66.3796186  51.7549658  41.3319874  67.6189280
  31.1247754  67.7083683  39.0898895  31.8733621  67.9445219  38.5420942
  30.5426073  68.4665203  39.0396810   9.3257314  16.7893481  11.0833383
   9.2282498  15.8515906  11.2486875   8.6871713  16.9790018  10.3959489
  75.2867794  13.8576400  33.6082029  74.9714422  14.6554875  34.0327430
  76.2313509  13.9881182  33.5245776  38.8333392  28.3365870  24.1805363
  39.5338511  28.3063269  23.5289216  38.4896207  29.2279887  24.1214633
   8.6528164  62.0409012  25.6583309   9.3950528  62.6374292  25.5609941
   8.4441102  61.7703629  24.7641921   5.7440490  59.3763971  51.6142893
   4.8478341  59.7023582  51.5319490   5.6432593  58.4426355  51.7991257
  40.1059008  41.4369392   1.9547227  40.8964777  41.0660839   1.5626918
  40.2487326  42.3831606   1.9324543  54.7174311  58.4056091  19.6618581
  55.5330706  58.7320423  19.2818630  54.6623468  58.8348103  20.5156612
  65.8089733  73.9528704  60.0941992  65.9239244  74.6535444  59.4522667
  64.8771524  73.9778328  60.3117275  31.1318064  50.5481482   6.7187595
  31.2125468  51.4972782   6.8128818  31.7362404  50.1906776   7.3692244
   7.9579753  76.8627787  25.9785891   7.3004037  76.6399288  26.6375017
   7.9461843  76.1246729  25.3692508  33.5423779  49.8645210  17.4376512
  33.5689735  49.4356966  16.5822947  34.3425655  50.3889561  17.4676394
  47.4855375  21.9583368  67.7776480  47.6911306  22.8871799  67.8835535
  48.3388090  21.5251088  67.7560520   1.4415622  63.6938572  58.4380817
   2.3159231  63.7675762  58.0556059   1.2812907  64.5495319  58.8360310
  54.5437813   7.8168416  11.7735779  55.3441381   7.5505906  11.3210642
  54.4391394   8.7418717  11.5508664  41.2536907  29.2404628  60.6719542
  41.9466782  28.8605833  60.1318645  41.1672020  28.6370039  61.4099169
  16.9811571  72.9953861  65.5365324  16.1161137  72.6001167  65.4283953
  17.5640535  72.2544193  65.7021570  75.4336071  50.8075905  42.0569611
  75.4373980  51.1687422  41.1705160  75.3536081  51.5724611  42.6268721
  44.3034029  52.2954369  23.3523107  44.1020060  52.5233507  22.4447155
  44.4187927  51.3452864  23.3407092  53.7809706  40.7456446   7.9242772
  54.5539522  40.2163124   8.1205940  53.9462185  41.0953379   7.0486975
  81.5914154  55.0765848  41.0995960  82.3144722  54.5452929  40.7662106
  81.4243889  54.7306442  41.9763279  19.0749264  68.5299921  44.5276165
  19.2517221  67.5903845  44.4816637  18.2339752  68.5936117  44.9803686
   7.1200353  75.4891253  54.8119497   7.6144695  75.2088928  55.5821657
   7.0489496  76.4390802  54.9055481  41.1964655  67.6054621   6.6947538
  41.5064716  67.4140930   5.8095944  40.6589413  68.3912563   6.5956199
  23.0240226  71.8833780  21.5168548  22.7252960  71.6695404  20.6329608
  22.6305270  72.7358770  21.7029762  36.3159084  30.6620312   8.1258100
  36.9127846  29.9613833   8.3886063  35.6934428  30.2375269   7.5354141
  31.0492325  47.5395823  23.8718605  31.1732531  47.0288420  23.0718637
  30.7142687  48.3831787  23.5679364  26.7045403  26.9535470  59.6543789
  26.8999529  27.3871827  60.4850483  27.5381708  26.9502854  59.1839790
  67.6754522  33.9449835   1.2113848  68.0384970  33.0689573   1.3418123
  68.4256458  34.5317912   1.3067991  27.1819782  72.4756479  56.1507893
  27.5431228  72.8819275  56.9386578  27.0241141  71.5654564  56.4015198
  53.9223480  26.9361639  15.6630409  53.9338541  26.2748098  14.9711514
  53.1313276  26.7427278  16.1661386  41.1699581  59.3915081  16.9312489
  41.7115831  58.6629581  16.6277802  40.6799126  59.0335369  17.6714849
  60.6912613  50.2994347  13.2492959  60.5021429  50.9304857  12.5548565
  60.2603769  49.4935560  12.9644644  30.4303193  28.2783890  13.2691026
  29.5417595  28.0110741  13.0340779  30.3328776  28.7166810  14.1144633
  29.2495465   4.1204014  38.3389449  30.0339198   3.6312604  38.5874033
  28.5363841   3.6805689  38.8017368   0.3662842  24.2938137   2.7471745
   1.1806654  24.2265105   2.2486915   0.6118023  24.7623467   3.5449401
  38.4749889  17.1051979  46.7498016  38.3319306  18.0195749  46.5055084
  37.6275516  16.8111408  47.0838881  70.9527540  74.2205620  60.6969500
  70.8540106  74.9795771  60.1221657  70.4056168  74.4221735  61.4560461
  76.1480665  15.0753129  21.2807298  76.3231897  16.0059392  21.1410975
  76.2816191  14.6749258  20.4216123  81.3434124  32.9402590  26.3666558
  80.6322575  33.3961511  26.8168259  81.8222046  32.4943471  27.0653319
  13.7280822   7.0202208  15.3203404  14.3791568   7.7218741  15.3162813
  12.8879225   7.4734795  15.3904784  65.0811672  59.9031782  32.9128361
  64.4370127  59.7153711  32.2301745  64.7059917  59.5231485  33.7072253
  38.5295391   7.7991068   8.3428371  38.4543824   7.1311587   9.0243268
  38.8645124   7.3269188   7.5805622  78.2907772  55.5434036  24.3569803
  77.9262304  56.3247681  23.9412832  79.2130136  55.7562542  24.4998217
   5.8869952  21.6940784  40.7589722   5.9767544  22.5350809  40.3107643
   5.3511202  21.1641598  40.1688433  60.1074934  56.2949705  23.4063649
  60.0966454  55.3378439  23.4020209  59.3084574  56.5414476  23.8722229
  77.1138144  40.0401020  20.1218629  76.4991570  40.5981684  20.5982971
  77.7918673  39.8283577  20.7634521  16.8448305   3.1074330  31.2694287
  16.6244006   3.2211104  30.3449178  16.3378537   3.7820271  31.7212343
  63.0692434  62.3617315  14.4215333  62.5480032  62.4639368  15.2178347
  63.9769602  62.3992920  14.7229731  15.0356305  48.3936739  18.2791460
  15.5785751  49.1444540  18.0387783  15.3742695  48.1159067  19.1302633
   6.9965601  10.7876670  43.3408165   6.7553759  11.6829610  43.1030989
   7.8422093  10.6463933  42.9151964   0.3184775  66.0393429  19.9763656
  -0.4693820  66.2680817  19.4832242   1.0056829  66.5875721  19.5976508
  68.4421635  27.8178024  42.6820612  68.0565262  28.5233545  43.2013988
  67.7136898  27.4765348  42.1633148  26.1931491   7.8676212  31.5593195
  25.5531144   7.3653209  32.0635819  26.9075394   7.2514039  31.3975930
   5.3592533   7.2795695  29.2313385   4.6526992   7.8941101  29.0329623
   5.0799179   6.4561510  28.8311076  78.3933163  42.1340275  24.9233866
  78.0386114  41.7415142  25.7211018  79.2801905  42.4030924  25.1627326
  40.6661510  70.5311251  25.9730887  41.4323187  70.6795073  26.5273452
  40.2404737  71.3867474  25.9188175  41.7400455  16.0379064  63.7901735
  41.3556480  15.2458370  64.1658020  42.3795080  15.7157576  63.1549263
  75.2856827  65.4305410  25.8994079  74.8198605  66.2567139  25.7702708
  75.3093910  65.3148842  26.8492985  66.7939472  71.6900921  50.2676153
  66.0002565  71.7460060  49.7354841  67.1385384  72.5830507  50.2783108
  17.9612041  12.6404285  37.1943140  18.2515979  12.7527368  36.2891674
  18.5270727  11.9519985  37.5437260  11.2215817  12.6700234  46.9429731
  10.8381784  12.3174298  47.7460384  10.4684663  12.8939950  46.3962698
  54.8081970  22.5634122  65.2394199  54.4742393  22.5090551  66.1348248
  54.7053528  23.4847069  65.0009489  51.8165302  33.1293368  56.5345383
  51.6496801  32.9735923  55.6049490  51.2249374  33.8448739  56.7674685
  75.6624222  41.3920355   6.4823741  76.2420321  40.6752110   6.7401427
  75.8197975  42.0739460   7.1354157   9.2627537  26.5633631  52.4836779
   9.9388969  26.6774535  51.8158102   8.5251749  26.1742735  52.0137644
  60.6207609  48.7579346  42.3536777  60.6982756  49.4675779  42.9913568
  61.5241766  48.4973145  42.1743727  83.4004211  29.1667914  52.7101183
  83.1552601  29.5152712  51.8529749  83.4711456  29.9389935  53.2713032
  15.9217465  10.1560020   7.0970362  15.7476902   9.2534095   7.3639864
  16.8605256  10.1739526   6.9110137  66.7808819  15.8224905  16.0315454
  67.6578856  15.7243228  15.6607902  66.4305830  14.9320555  16.0570645
  38.8059187   9.7210801  66.9649839  38.1312823   9.3575686  66.3914347
  39.4228959   9.0009654  67.0953894  13.4199440  15.1838982  60.2753305
  14.0622532  15.1055145  60.9806871  13.6561692  15.9950256  59.8253298
  39.4971752  21.6561723  49.8840809  39.1350198  20.9172416  49.3951464
  40.1200342  21.2585735  50.4925203   5.4029769  52.5145912   5.5139047
   6.2781477  52.4365473   5.8936638   4.8801562  52.9291010   6.2002534
  62.6544428   2.5160968  66.3369131  63.0493736   2.2506140  65.5063820
  63.1111717   1.9944808  66.9968700   1.3399692   3.4455377  18.4565735
   1.3550027   3.1769660  17.5379467   1.3186876   2.6233083  18.9461827
  78.6785173   2.5209796  20.6038165  78.8199711   2.5111547  19.6571779
  79.3938589   3.0562428  20.9473395  37.5551796  53.6881256  14.6287310
  36.8807578  53.0182171  14.7410166  37.5738502  53.8535595  13.6861205
  56.2939835  41.2816906  58.7144661  56.0951138  40.4886770  59.2122746
  55.5850124  41.8862534  58.9337730  10.4572606   6.0708958   3.4915149
   9.7121441   6.6343200   3.2827428  10.9413755   5.9993953   2.6688653
   0.9034826  69.7260189  58.6127090  -0.0191632  69.5253038  58.7697744
   1.3005537  69.7245359  59.4836617  39.5466733  16.0216856  67.1766138
  40.4149485  15.7454467  67.4699068  38.9574790  15.7446349  67.8782701
  38.0813742  17.0260084  60.9176779  37.4892211  17.7778900  60.9016323
  37.8626704  16.5661466  61.7281914  44.5475006  12.0894957  55.0182152
  44.4917202  11.5910745  55.8335066  43.6604786  12.4212873  54.8791647
  65.7339096  48.7856388  12.2832406  65.9205580  49.1570330  13.1454825
  66.2431335  49.3223858  11.6759288  43.2212639  29.4966054  63.1143522
  43.2810307  29.5930243  64.0648031  42.9512739  28.5878134  62.9823112
  64.9577999  36.3375664  63.9751339  65.1201010  37.1263146  64.4925976
  65.3855705  36.5092468  63.1362247  40.3383827  62.1816826  18.5214365
  40.2791405  61.9986677  17.5837648  39.4370413  62.3636150  18.7873709
  12.2072923   7.8915083  46.1572027  12.2356892   8.3116889  45.2976227
  11.2796974   7.8918099  46.3934183  43.2169724  55.2605534   2.2638011
  42.3467493  55.5397224   1.9791867  43.6327314  56.0612726   2.5835240
  31.9520473   8.5085595  11.3553739  32.8462458   8.2346290  11.5593469
  31.9542623   9.4557101  11.4936948  78.7056637  62.5529766   9.4759125
  79.3998861  61.9190407   9.6559459  77.9744625  62.2697878  10.0248921
  25.0013065  71.6347551  28.9302874  25.2887225  70.9513521  28.3248234
  25.7115054  72.2764540  28.9217758  82.4748516  16.3513958  11.7927551
  83.0796051  16.0558546  11.1121964  82.3843479  15.5980861  12.3763347
  43.0158567  18.8151288  18.2849228  43.2568264  19.3808603  17.5513613
  42.2920418  18.2852054  17.9510021  67.0649815  57.8738832  20.6191325
  67.8473425  57.5408411  20.1795578  66.4441347  57.1460438  20.5871415
  70.8532238  60.0980568   7.3003197  70.6628942  61.0252333   7.4429756
  71.3679314  60.0805902   6.4934701  66.3675451  42.4417210   5.5438387
  67.0564413  43.0491686   5.8133894  66.1014938  42.0065928   6.3538462
  67.4900866  66.6727400   3.2490447  66.7902851  66.9686604   3.8312310
  67.8409004  65.8903980   3.6746034  17.6348281   0.5341455  33.4695029
  16.9502878   0.3706377  32.8207326  17.3576212   1.3356198  33.9133787
  35.9851456  15.5218613  34.9038267  35.9608841  16.2726855  35.4970431
  36.0281539  15.9087980  34.0293765  19.7697759  64.5434284  18.2087183
  19.9384809  64.9502993  19.0585589  18.8524854  64.7454453  18.0243278
  66.4718771  64.0040684  36.2532258  66.5486526  64.9206209  35.9881473
  66.4600372  63.5166883  35.4294801   3.7845370  43.1025982  16.6413558
   3.5943368  42.5492001  15.8838558   4.3989971  43.7579632  16.3109469
  16.2571132   2.7768099   3.9225778  16.9433057   3.3656594   4.2366293
  15.7967031   3.2815579   3.2521421  49.6526623  20.5204248  67.6492357
  50.4635572  20.8720207  67.2817326  49.9360847  20.0014830  68.4019661
  24.6883249  62.3881960  10.9203207  24.2950583  62.1354532  10.0850403
  24.4324756  63.3029747  11.0384524   4.3147177  66.9131613  16.7204869
   3.3586487  66.9313669  16.7632949   4.5761627  67.8291655  16.8143713
  77.9526377  61.1542463  61.0626793  77.8985071  60.7068300  60.2182150
  78.7375641  60.7935095  61.4749765  20.6822801  66.1007881  31.9441724
  20.8736658  65.3677702  32.5292253  21.0656238  66.8617487  32.3803163
  25.5445957   8.6250412  49.1107512  25.2509594   8.6510903  50.0214243
  26.4934349   8.5126024  49.1681623  50.3477049  75.6791115  61.2650061
  50.6822062  75.6909323  60.3682327  50.1946974  74.7527790  61.4513731
  43.2859087   4.2598161  64.4607925  42.6571321   4.3404436  65.1779890
  42.7628279   3.9638197  63.7158108  32.3998404  33.0601931  20.8213663
  33.2589984  33.4390569  21.0072112  32.2868323  32.3837757  21.4891410
  82.0770454  58.0788231  10.3824556  82.5195312  57.6320648  11.1041486
  82.6829910  58.7728691  10.1229107  43.9496899  49.9721003  27.2410536
  43.0886078  49.5596600  27.3093367  43.7611008  50.9052849  27.1419144
  75.4284096  40.8867741  18.1645370  76.0606194  40.7547998  18.8710237
  75.1768923  40.0019550  17.8998208  22.8059936   3.9884651  56.6666794
  22.3216248   4.4168788  55.9609318  23.6399221   3.7395921  56.2681103
  41.7636061  10.2472460  53.3917141  41.8160772  10.3766024  54.3386793
  42.3815060   9.5385861  53.2121801  42.5542736  21.5738773   5.6845409
  43.0625010  22.2362900   5.2164102  41.8454409  22.0651126   6.0998398
  75.3829432  16.5967667  27.7018595  76.0317469  16.5395761  27.0004249
  74.7175121  17.1963513  27.3643184  40.6942177  49.5859194   4.2290637
  40.5013323  48.8007259   3.7167180  40.3605223  49.3887854   5.1042867
  53.7671185  54.3474054   3.8467282  53.5961103  53.4614038   4.1660878
  54.3788242  54.2263317   3.1205106  56.8788862  30.9953547  50.1638746
  56.9360924  30.0626707  49.9563646  57.5628233  31.4015627  49.6314716
  76.3350105  27.2420979  11.8635249  76.8315506  28.0385423  12.0515609
  76.7135286  26.9104981  11.0492766  81.0028839  65.5886936   2.2648734
  80.7482147  65.9343863   3.1203669  80.7876968  64.6570539   2.3092885
  33.1363606   8.7672651  36.4662576  33.6242056   9.4851160  36.0626125
  33.4550428   7.9815453  36.0220528   8.3413762   6.5154922  18.1213856
   8.5043943   6.2156034  17.2271121   7.9768342   5.7511497  18.5676157
  73.5078859  57.2952890  42.7294922  74.1544151  57.8413630  42.2822380
  73.1185341  56.7662144  42.0332766   0.4668302   3.9547196  11.4370835
   1.0575601   3.6476964  12.1248388   0.9049249   4.7226742  11.0702729
  75.0134611  47.1160650  11.7539203  74.6398735  46.3616657  12.2094941
  74.3873167  47.8233767  11.9084799   3.5593525  76.2319326  14.9164808
   3.6870992  77.1591997  15.1167059   4.4422111  75.8621025  14.9209082
  56.5043879  63.5733557  19.4293988  57.4550343  63.6647081  19.3649459
  56.1874294  64.4647646  19.5748806  51.2620163  36.0082316  61.7845297
  51.4294672  35.1275015  61.4491081  52.1324396  36.3743901  61.9411278
  78.5356569  52.6051044  13.3108544  79.0733433  51.8162584  13.3804131
  78.9543009  53.1202793  12.6212430   7.5671810  -0.0746501  27.2722864
   7.5544029   0.2193373  26.3614392   6.7099190   0.1756394  27.6167965
  13.0969262  19.5634985  50.6819487  13.8642800  20.1260710  50.5774832
  13.4406710  18.7593687  51.0711098  74.4543839  43.4836817  15.3527212
  73.9535332  42.6864767  15.5254924  75.2108002  43.4224653  15.9360909
  69.2271185  61.1101294  17.7221227  69.9775982  60.5224943  17.6343763
  69.4386292  61.6574669  18.4783733  76.2029219  78.5570526   8.0922395
  76.4272070  78.2941246   7.1996045  75.7076979  77.8166866   8.4427238
  80.3186703  32.8615308  13.8876724  81.0211277  32.4031448  13.4265161
  79.9029541  33.4011555  13.2151985  46.0926390  75.7596159  14.4665992
  45.4731321  76.1186981  13.8313794  45.5751324  75.1416779  14.9829018
  51.3835955  46.8047047  65.1170778  51.2823009  46.1079979  65.7655907
  52.1615696  46.5560293  64.6179247  69.3392181  65.0440884  19.3431270
  69.9290752  64.7168970  18.6639750  69.8469877  65.7160378  19.7979784
  18.3097291  35.6359529  49.4194555  18.6596620  35.0970030  50.1288986
  18.4145832  35.0971627  48.6352730  42.8475761  24.0722108   2.2320500
  43.1075430  24.0929556   1.3110624  43.4513569  23.4498143   2.6373911
  21.6077566   7.9182786  68.4687138  21.5513444   7.4000400  67.6659203
  22.4679208   7.7058661  68.8309717  74.9416780  64.6222448  39.9967718
  74.0153551  64.4772720  40.1894951  75.3739452  63.8159752  40.2783966
  19.8550713  29.2769146  56.3112640  20.3802490  30.0287104  56.5855312
  19.6617651  29.4435644  55.3887177  69.5160294  22.9264188  25.1916146
  70.2585220  23.5040092  25.3685904  69.9010277  22.0518804  25.1351166
   5.4165316  64.5712757  23.8219929   5.1898754  63.7543678  24.2664266
   4.6445295  65.1262712  23.9325595  42.7502155  32.1107793  10.3719497
  43.2650089  31.4715695   9.8793751  42.3722410  32.6809669   9.7024322
  69.9791622  18.4066367  66.1670113  70.4932165  18.5250795  65.3682947
  70.3532457  17.6279998  66.5793419  18.8983393  61.0526276  65.1250124
  18.2509220  61.3357210  64.4793034  18.9601243  60.1052761  65.0027752
   4.0973708  13.8027728  23.4020734   5.0480837  13.9026558  23.3530831
   3.8243827  14.4329131  24.0688825  52.6806355  61.7608738  24.6341038
  52.7587795  60.8080244  24.6810317  52.7750349  61.9633770  23.7033439
  50.2912903  65.8892059  25.0895643  49.9509859  66.7793941  25.0001860
  50.5072689  65.8074999  26.0184932  40.2271080  63.8197708  26.2100887
  40.4751205  62.9441166  25.9135294  39.5332384  64.0889215  25.6081462
  34.4282961   6.4410186  22.1311212  33.9985299   6.3407177  21.2817240
  33.7345243   6.2811589  22.7709317  50.1774979  78.3744478  14.0081012
  50.7221079  78.2574558  14.7865248  49.7189999  77.5400686  13.9089632
  51.9567537  60.2295732  20.5172706  52.7210617  60.8041811  20.5607128
  51.2301159  60.7742310  20.8198881  80.9746456  39.3669081  13.3101177
  80.8009624  40.0069427  14.0003502  81.2537003  39.8927736  12.5605667
  27.2577572  42.0498323   5.6950301  27.3002028  42.6690769   6.4237016
  26.5565681  41.4443588   5.9357947  76.1991835  36.1097789  12.5440991
  76.0099506  35.5083776  11.8238616  75.8396721  36.9488883  12.2562075
  26.7435694   1.7456484  65.1945448  26.2421989   2.1905926  65.8778334
  27.5498533   2.2558817  65.1183844   2.2065191  46.8751955  15.6892967
   1.7868915  46.3056135  15.0445342   3.1344202  46.6444254  15.6448305
  25.4510236  31.6752172  48.7599516  26.1680222  31.2050056  49.1854429
  24.7124028  31.5807557  49.3614101  33.4952712  21.9703102  64.4923449
  33.0080843  22.3702455  65.2127123  33.7723756  22.7095509  63.9510822
   1.4216866  36.7059517  12.0004654   1.1095755  37.4985576  11.5638947
   1.9500598  36.2601161  11.3384366  21.3892508  15.7698023  39.0156484
  20.5590224  15.8160448  39.4897962  21.6349602  16.6838992  38.8732123
  56.9514608  72.1885252  14.6532249  57.8565025  71.9823742  14.8869669
  56.4297915  71.5291309  15.1107109   0.2666205  19.4325502   0.0458032
   0.2452749  19.6231945   0.9835846  -0.5104000  18.8948591  -0.1070469
  70.0279379  52.0525265  19.3794167  69.1637278  52.1181345  19.7857022
  70.0633764  52.7908802  18.7712920  41.1216164   7.4038851  47.3984528
  42.0307207   7.6632065  47.2484016  40.6042671   8.0828559  46.9653463
   7.1946055  74.6676493  17.9837012   7.0602143  73.9383745  17.3784459
   7.8452706  75.2208471  17.5514579  15.5983090  12.0998263  28.4278297
  15.8630419  12.5150537  27.6070166  15.8362460  11.1791801  28.3181500
  62.9448748  54.4138622  16.1877811  62.3425770  53.6699438  16.1806941
  62.5081921  55.0704193  16.7304349   6.9243997  27.6978779  28.6773133
   7.4025148  28.1412816  27.9765773   7.4379337  26.9102073  28.8564587
  74.4895840  10.5700612  45.5040216  74.1480923  11.0706365  46.2449932
  73.9511395   9.7790021  45.4808760  48.6305380  73.4845781  35.7555246
  48.7981367  73.4204245  34.8152971  48.3229780  74.3819714  35.8833027
  74.1346884  57.3326778   9.0196788  73.1935835  57.2003365   9.1338652
  74.3231583  56.9758606   8.1516969  74.6369743  41.2061024  21.2602496
  74.2652225  40.8057165  20.4742956  74.2086506  42.0600700  21.3195109
  64.4406652  46.3480616   7.2732401  64.6251297  46.2067747   6.3446689
  63.6677980  46.9127274   7.2806901  63.5588121  44.0330458  39.5982480
  62.9178905  44.7396946  39.6763539  64.3167210  44.3411016  40.0951433
   3.2768020  28.5503864  10.8511972   2.4765040  28.6933160  11.3564944
   3.7734821  27.9130793  11.3644040  54.6719313  66.6946602  40.3723574
  54.2526054  66.6268682  41.2301445  55.0646448  67.5675678  40.3660536
  74.4074726  48.8996410   7.4373722  73.6648750  48.7643003   8.0259866
  74.1260862  48.5190630   6.6053784  29.7905493  59.6569681  44.6163654
  28.8422108  59.7343445  44.5119572  29.9881697  60.1718283  45.3987312
  63.8040447  67.4248362   1.8831186  62.9085875  67.1836567   1.6460226
  63.9906073  66.9105816   2.6685911   6.8748164  77.9267311  41.5405941
   6.9294894  77.2203016  40.8970118   7.6774698  77.8442478  42.0555449
   8.3992267   5.1791406  51.4172840   8.1560552   5.6119263  50.5988741
   7.6493323   5.3206956  51.9950819  76.8632078  19.4466245  68.3804178
  76.7085838  19.0514469  67.5224209  76.6280651  18.7611175  69.0057325
  78.6997700  38.9975715  18.2280493  78.1127167  39.4004202  18.8678265
  78.1605577  38.8862014  17.4450564   3.1131965  51.9403982   2.2459234
   3.9896420  52.2808409   2.4252912   2.5213325  52.6083517   2.5919905
   4.3988991  57.8340149  11.1099684   3.6544022  57.2708273  10.8983648
   4.6430099  58.2323027  10.2744985   0.6969722  77.8307962  18.0194509
   1.4196509  77.2054815  18.0737519   0.3766422  77.9052830  18.9183795
   6.7349441  75.5255596   0.0658829   5.7903011  75.6349675   0.1750118
   6.8451841  74.6002690  -0.1530188   6.5433311  59.0088606  44.4395494
   6.6104990  58.0624008  44.3133259   5.8976173  59.1120434  45.1385784
  60.4446173  56.8893099  15.4481483  60.0472021  56.3295794  16.1152256
  60.6730080  56.2899542  14.7376251  50.8348370  57.4238062  46.8598986
  51.2095690  56.9643116  46.1084557  50.9633398  58.3514357  46.6618490
  55.7213640  31.9706225  62.3751545  54.8374176  32.2557092  62.6066589
  56.1015940  32.7189708  61.9151163  64.1170311  59.0258455  36.1196232
  63.1931448  59.0924501  35.8783174  64.3241405  58.0966187  36.0202503
  76.9414043  71.2985516  15.7103848  76.8181276  70.9574890  14.8245442
  76.5626240  70.6288004  16.2797642  74.5131397  62.7935696  29.7515583
  74.8433781  62.6603651  28.8630581  75.1237726  62.3111248  30.3088784
  65.6923342  53.1711483  32.5570107  65.0506020  53.7240171  33.0028176
  66.3790798  53.0283928  33.2083440  29.7685146  40.6821442  33.4847760
  30.0390816  39.8159313  33.7892485  28.9742470  40.5198240  32.9758310
  62.5329208  34.5045424  46.6557407  62.5209904  34.5390892  45.6992388
  63.0845499  33.7497663  46.8612862  63.9682102  46.2722015   4.1558957
  64.7330618  45.8373451   3.7788871  63.2310820  45.9556103   3.6337376
  20.0563455  54.1294336  49.5916224  19.6879351  53.3984089  50.0877142
  20.5639601  54.6239042  50.2350903  14.8297942  64.2706394  57.0592594
  15.0044239  64.7734213  57.8548431  14.4935846  64.9157810  56.4371824
  73.4257698  62.9380512  46.8271971  73.4884262  61.9959545  46.6698599
  73.6263895  63.3362055  45.9801674   7.9620093  69.5714617  14.9409807
   8.3500850  70.2150345  14.3481553   8.2642448  69.8339081  15.8104682
  36.4642954  24.3546009  60.6591940  35.5079246  24.3827200  60.6309462
  36.6662836  23.5485172  61.1342287  32.7043295  15.0865924  34.7335696
  33.3473897  14.3916476  34.8741269  32.8447509  15.6934309  35.4603839
  57.2496414  27.7713823  16.3137913  57.0356846  28.4779692  16.9230437
  56.6305828  27.0737934  16.5291262  74.3777132  68.0639648  25.3026271
  74.2199516  67.9219580  26.2359953  74.1012335  68.9671755  25.1476884
  14.0074646  22.5722766  34.1313291  14.9201059  22.4591064  33.8657928
  13.5548913  22.8315711  33.3287239  10.8771217  50.0762892  34.8626876
  10.4604983  49.2174673  34.9339747  10.1888525  50.6969881  35.1019692
  77.5438070  50.0287914  44.6182394  76.9577932  49.5089817  44.0681314
  76.9698954  50.6645870  45.0455856  78.9517260  70.6303310  34.7096443
  79.0470648  71.4963770  35.1060152  79.8330402  70.4048967  34.4118237
  60.3607607  28.9865422   1.3791059  59.4255066  29.1455436   1.2516002
  60.7170486  29.8395395   1.6274799  56.5926361  75.9177923  22.0263720
  55.9576607  76.6207552  21.8889523  57.4041939  76.3698435  22.2571611
  83.4453236  53.6697435  62.5307178  83.1572634  52.9669714  61.9481659
  83.9687448  54.2444324  61.9721556  10.8685160   6.6790521  21.7250037
  10.4410434   7.5081813  21.9395804  11.4924037   6.5398163  22.4374700
   4.1266796  61.6190243  33.2877398   4.6091968  62.2620106  32.7681422
   4.7986412  61.0177231  33.6088848  32.2597766  13.2270157  26.6058493
  31.8517947  12.4094522  26.8911076  31.7956281  13.9086282  27.0918584
  73.2409048  65.7710028  47.7752399  74.0971518  65.8457279  48.1965399
  73.3086443  64.9852848  47.2327566  22.2211599  69.1010427   9.1932994
  22.8775549  68.9717865   9.8778963  22.5968504  69.7735929   8.6251789
  37.7642751  57.3990631  31.5819645  37.7385736  57.7455568  30.6900477
  38.0182695  56.4823294  31.4755535  60.5646038  67.5956488  41.1684942
  60.9018040  66.7143726  41.0076189  59.6541071  67.4595642  41.4306116
  80.7368374  53.8169622  67.6538515  80.4100800  54.2976570  66.8933344
  81.1894131  53.0597734  67.2822666  78.1044292   1.0746346   2.8838381
  78.3067226   0.9068053   3.8042414  78.3922148   1.9754583   2.7357575
  72.4464369  55.3121090  64.4210768  73.3622551  55.1102209  64.6127987
  72.3115730  54.9896812  63.5299635  10.8682668  58.7896729  61.7953348
  10.6734836  59.6846294  61.5172386  11.7552376  58.6268234  61.4744043
  27.2476363  20.8666253  15.2092159  27.9628873  20.6274867  14.6197569
  27.3450708  21.8107271  15.3333616  14.3085349  72.7296543  16.9270611
  14.1883779  73.1351089  17.7857804  14.3347478  71.7899656  17.1074355
  61.5907383  21.5829635  36.0615420  61.3349581  21.0750365  35.2915978
  61.0052681  22.3401952  36.0542631  71.8258381   5.0975949   9.3847913
  72.0512009   4.3381029   9.9220198  71.3898516   4.7272295   8.6173433
  26.9236422  26.2113285  18.7367046  27.0456243  25.9818673  19.6579540
  25.9859562  26.0955596  18.5831690  58.6219788   8.8789093  26.8762279
  57.8952694   8.4072447  26.4692211  58.5369253   8.6896747  27.8106737
  12.5060534  74.5033455  53.5972929  12.1887434  74.4792175  54.5000458
  11.7179680  74.4016600  53.0636120   6.9752872  61.4801311  53.2157135
   7.6556599  61.6176081  52.5566053   6.4299577  60.7811260  52.8548288
  41.3543606  35.2679658  22.0620775  40.4466867  35.2889991  22.3652625
  41.2915897  35.3613067  21.1115098  55.1527405  12.3319364  31.7770553
  54.9816275  13.1996560  32.1431351  54.9399757  12.4178278  30.8477616
  18.8740051  11.2319565   3.1820545  19.8175955  11.3644028   3.2733127
  18.6618042  10.5637467   3.8337433  22.4316168  24.2947912  15.5775404
  23.2404852  24.1856146  16.0775840  22.0558667  25.1118803  15.9052706
  28.7872171  55.5651760  10.2908826  28.0374599  56.0899782  10.0103903
  28.8618827  54.8799944   9.6266639  23.9037466  67.4960852  58.1845427
  24.1634274  67.2107077  57.3085499  23.3306766  68.2473755  58.0316210
  68.1299591  36.8530941  10.4475856  68.3298540  36.6881871   9.5261300
  68.7379026  36.2917256  10.9287345  62.7708054  15.4192674  41.1484146
  62.0289564  15.6052113  41.7240143  62.8824806  14.4700420  41.2006903
   7.8819549  70.9622049  54.4569349   7.8279287  70.4563999  55.2677822
   7.0056295  71.3308954  54.3457937  48.3508825  27.6235938  19.4655395
  47.5577593  27.8339696  19.9584198  49.0656710  27.7870297  20.0808430
  43.7861824   2.1042627  55.4602289  44.3246794   2.8955933  55.4533768
  44.1108894   1.6000411  56.2062550  11.3212168  25.5137968  56.3966846
  11.6726148  24.6355700  56.2501526  12.0827651  26.0382891  56.6440392
  71.2904882  27.7483130  54.3206072  71.6048813  27.3204899  53.5241461
  72.0799685  28.1025934  54.7297955  28.4207058  49.2458105  21.1793947
  27.5276589  49.3395329  21.5109301  28.8110352  50.1122141  21.2943792
  36.3289666   9.2152256  19.3498552  36.7966151   8.3915621  19.4881105
  35.8799243   9.0980923  18.5126746  37.8592777  66.7798138  -0.0980585
  36.9096112  66.7511940  -0.2144596  37.9868841  66.7086411   0.8479236
  26.2297630  37.0166993  16.2441075  26.4990306  37.8778267  15.9244442
  25.8866239  37.1836329  17.1219575  70.1351738   6.5969908  11.2201500
  70.5652189   6.3326871  10.4068637  69.3171501   7.0053715  10.9367776
  74.0091562  49.2760992  58.7389040  73.9560509  49.6464300  59.6199608
  74.5446396  49.8999786  58.2487392  18.9912999  28.2423878  51.2528324
  19.8070991  28.0778742  50.7799292  18.3356178  28.3602762  50.5655098
  45.4037952  17.9322624   8.3191472  44.7847939  18.4913552   8.7886995
  45.8151054  17.4034202   9.0028024  52.4844885   8.5240281  23.3861375
  51.7474079   9.0746802  23.6501932  52.3692513   8.4055537  22.4433136
  38.5848880  16.5189397   6.5326846  39.2572069  16.5423894   7.2136182
  38.1522131  15.6735325   6.6523147   2.2110073  68.6414671  67.5573206
   1.2838596  68.4115839  67.4958086   2.5030658  68.7041855  66.6479254
  36.8560839  29.0450716   1.5746287  36.7615795  28.0968118   1.6646360
  37.3677492  29.3084526   2.3395228  56.1629152  48.7858629   6.2440342
  56.4230776  48.3845520   7.0731890  56.8470764  49.4309425   6.0650861
  38.0449796   1.9992389  23.9631081  38.1722307   1.0507053  23.9451313
  38.1632042   2.2393806  24.8821211  23.5394311   8.7377197  26.1596918
  24.2881823   8.2928091  25.7626295  23.2174230   8.1228441  26.8188357
   8.4519750  21.7480803  18.2269049   7.7238488  21.1295033  18.2854640
   8.8514155  21.5679598  17.3758852  35.3215623  74.6974659  24.4944906
  35.6927371  74.1232109  25.1643348  35.9774685  75.3848267  24.3780541
  16.7019606  61.7705345  63.4441566  16.7598379  61.2329626  62.6542807
  15.8938372  61.4843893  63.8699341  66.8704748   4.8408866  20.1138639
  66.5157938   5.1516008  19.2808616  67.7411890   4.5091924  19.8946273
  29.7365689  24.1768670   6.7514253  29.7728395  25.0502825   7.1413749
  30.2899528  24.2389941   5.9728760  26.5406919  76.7116880  56.4914179
  26.3745165  77.6542234  56.5070438  27.0122838  76.5651894  55.6714392
  35.7466412  31.6782880  14.6405506  35.8300757  31.0944223  15.3944540
  36.4059329  31.3653779  14.0211523  78.0185080  67.9127121  60.9354210
  77.8068447  67.6192093  61.8215847  78.9013386  68.2755041  61.0077381
  65.4264927  71.1270285   3.9728597  65.0960732  70.6639910   3.2030207
  65.7701921  71.9509697   3.6275682  82.8331757  32.2210670   0.6119986
  83.2662678  31.7984819  -0.1296778  81.9070625  32.0047712   0.5035547
  80.6846619  53.2017374  45.9508944  80.9273243  53.7104702  46.7245436
  80.6022453  52.3034573  46.2710953  32.4751782  56.8020630  48.1375360
  32.9728746  56.1403465  48.6178064  32.0189691  56.3099670  47.4549294
  52.6908875  11.8290317  27.3855209  53.5531616  12.2446132  27.3880363
  52.1649027  12.3722720  26.7986131   2.4053401  13.5176635   9.4866657
   2.6892745  12.9933059   8.7378913   3.2027864  13.9497125   9.7926790
  37.5293136  23.3426046  21.3860655  38.0045152  23.6061502  20.5980563
  37.0604849  22.5487328  21.1287761  55.1236248  50.7818460  55.3760767
  56.0393333  51.0173368  55.2269077  54.8216963  51.4024782  56.0393143
  38.0136871   9.4674635  14.6738803  38.6462975   8.9860523  14.1407001
  37.4207592   8.7944186  15.0080645  70.2959824  25.6407356  30.3202391
  69.7870731  25.8357382  31.1071420  69.8049736  26.0526371  29.6092701
  51.2351465   9.7243071  34.7014332  50.4431152   9.6369624  35.2317977
  51.3034058  10.6627488  34.5256472  45.3409529  35.2129841  16.8472815
  46.1051226  35.4155850  16.3076222  45.5844450  34.4156170  17.3175466
  55.5735350  26.1413455   8.1700665  56.0389328  26.8884611   8.5461706
  55.9927511  25.3756571   8.5627633  29.5116544  12.2692895  40.8229828
  30.3275299  11.8734729  40.5165434  29.3650699  11.8792009  41.6847134
  69.6220589  71.9926023  58.7471104  69.9389839  72.5970936  59.4182158
  70.3552055  71.9052744  58.1379318  48.5783911  10.6813884  11.4176607
  47.8375769  10.4932189  10.8414507  48.9599514   9.8237592  11.6050470
  60.0932693   8.8267457  10.4180813  60.2598667   9.6379721   9.9380922
  60.9600878   8.4408730  10.5444205  10.0197005  58.9296246  26.8666553
   9.8338902  58.1591415  26.3299417   9.1584510  59.2406464  27.1454859
  51.6094065  28.7131166  17.6330864  50.7310104  28.5093379  17.3119605
  51.8928337  27.9146385  18.0784309  66.7816353  11.8767762  43.6300850
  67.4686623  11.4201617  43.1445694  66.1225748  12.0897520  42.9693937
  65.1002741  57.8539181  10.7231748  65.5432892  58.3876801  11.3827705
  65.5899715  57.0315361  10.7121921  10.4325998  57.7505159   0.8800159
  10.3607500  58.2399416   1.6994867  11.0501170  58.2566786   0.3520902
  44.7787523   1.0062352   0.3610546  44.3581724   0.6739902  -0.4320160
  44.0640831   1.0962128   0.9914386  71.5431690  26.0863614  10.7258892
  71.0254765  25.7656145  11.4643669  71.7455053  25.3016520  10.2164543
  64.9819136   5.9254801  56.2055731  65.1583910   6.2391710  55.3186178
  65.8470249   5.7384366  56.5700293  22.3425722  19.8221600   4.4489944
  22.3241425  20.4915166   5.1329923  23.1812239  19.9544477   4.0069586
  65.6107616  15.7056642  32.4647379  64.6685028  15.6487894  32.6233196
  65.7311821  16.5544665  32.0389867  11.6095722  10.8607316  14.9089122
  11.0689461  11.1034381  15.6606090  11.6005278  11.6357267  14.3471873
  52.6317024   8.3449340  27.0894241  52.4106312   9.0342695  26.4631867
  51.8294048   8.2142192  27.5948572  61.4076376  63.0429983   1.2262071
  61.4407539  62.6064396   2.0774150  60.4743767  63.0953932   1.0200473
  33.6137056  23.8856292  48.2989120  33.6819482  24.0079355  47.3520136
  34.3711114  23.3461595  48.5259342  25.2701330   5.1277673  61.7804098
  24.3398714   5.1274800  62.0059061  25.4499316   4.2290610  61.5043116
  29.9950910   5.7486743   7.8666258  30.8676195   6.0455024   8.1251168
  30.0796771   4.7987157   7.7850401  26.0237527  72.3381138  25.1018190
  26.3240623  72.3160028  26.0104203  26.8207765  72.2276545  24.5833778
   5.2369076  68.2754850  57.8329754   4.9735829  67.9113293  58.6781263
   5.8604896  67.6396894  57.4820566  52.0593023  74.5137548  48.8999128
  51.7835093  74.2283392  49.7709513  51.4443970  74.0880346  48.3025122
  22.5795603  42.2247696  48.0015659  22.6264238  42.7970123  48.7674475
  22.9187417  42.7582788  47.2828484  61.5647125  51.0495186  63.6661625
  61.4265013  51.5105629  62.8387737  61.0265398  50.2612400  63.5938978
   1.4242359  51.9325304  66.0317802   2.3204264  52.1215153  66.3099146
   1.0099172  52.7922821  65.9583139   7.4924707  42.0956516  44.8637152
   7.2981602  41.9215965  45.7846785   7.2615129  43.0163050  44.7400475
  66.3308477  15.6283069  48.8434172  67.2110510  15.5038500  48.4884644
  65.7512379  15.5228305  48.0889940  31.6406584  60.9116840   0.8368310
  31.4996648  61.8448782   0.6771483  32.3839498  60.8813858   1.4391841
  52.1224308  34.3348932   2.7874210  53.0738163  34.4090128   2.7125630
  51.8889141  34.9454069   3.4866881  26.3140750  22.9775620  12.8343379
  26.7130566  23.1179333  13.6930251  25.4155707  23.2923865  12.9333663
  31.1806226  14.9254310  52.5769997  30.5398750  15.0070393  53.2834101
  31.0213780  14.0565228  52.2083902  67.5226879  23.1575060  56.7718172
  66.8988276  22.4530125  56.9470835  67.0249557  23.9611435  56.9223547
  58.2057905  61.6535521  33.5902309  58.2265043  61.6522741  32.6332569
  58.7358284  62.4103737  33.8402629  74.1405582  61.7798281  63.6741352
  73.2187796  61.8356800  63.9259958  74.5359135  62.5734472  64.0348244
  34.9009275   2.2330676  56.6169977  35.4395294   1.6016454  57.0939112
  35.5322719   2.8051162  56.1806536  19.1198874  12.2967613  49.7122431
  19.7267020  12.3165274  48.9722300  19.6628523  12.5039852  50.4728222
  36.8729353  63.2251072  14.5925164  36.0764289  62.9535580  15.0486612
  37.3438478  62.4085426  14.4260943   3.4219724  43.2222366  26.5642214
   3.0832571  42.3593330  26.3256693   2.6472273  43.7196207  26.8261576
  50.7088614  23.7815332  17.6641595  50.8005047  22.8999400  17.3027408
  50.1228428  24.2304659  17.0548415  39.5490789   4.1816780   3.2519537
  40.1032591   4.6202648   2.6063842  40.1324749   3.5578638   3.6840838
  80.0148106  41.2982321  48.9167690  80.8458233  41.7546940  48.7852478
  80.1270866  40.4615688  48.4655237  68.2002211  57.6679039   0.9273555
  68.4302950  57.4400139   0.0265975  67.8112364  58.5400486   0.8618709
  32.8813481  10.0140798  65.4904222  33.5883427  10.1326799  66.1247110
  33.3291936   9.8548400  64.6595716  24.1278386  10.5338120   8.2651210
  23.9573383   9.6185923   8.0425572  24.6581864  10.8620799   7.5390339
  39.2073131   6.2513375  12.0453632  39.4974065   7.1107018  12.3512566
  39.9553585   5.6755799  12.2039843  35.0395465  68.6356020   7.1740741
  35.4726768  69.4152975   7.5215006  35.3070092  68.6022472   6.2556070
  54.8577070  37.1154284   1.5079045  55.6874752  37.4774265   1.1969796
  55.0257826  36.1778307   1.6021924  32.7961826  49.3184376  33.2744670
  32.4412465  49.1761684  32.3969650  32.0729876  49.7092009  33.7648988
  14.6852946  43.6318398  62.9016781  14.8051608  44.3733883  63.4949446
  14.5705187  42.8781557  63.4804869  51.1086559   0.0280746   6.9974363
  51.8789101   0.5831506   6.8756652  50.4800701   0.5874212   7.4537730
  43.6449814  72.1672344  14.1018057  44.5014811  71.7616558  13.9670992
  43.0313301  71.4327097  14.1134977  75.9291744   3.3564660  39.2645955
  76.4342022   3.9881477  39.7766066  76.1073256   3.5896119  38.3534765
  77.9120493   7.4342918   8.1228203  78.8225508   7.4305040   7.8275287
  77.8402948   6.6649806   8.6878371  38.6496997  21.0129356   7.5889373
  38.7829280  20.7367778   6.6821742  37.7562046  20.7377601   7.7942997
  61.5999985  46.0058546  13.5329461  61.8749094  45.5103111  12.7615261
  62.1663570  46.7775154  13.5362744  35.3782296  40.0529909   5.2484590
  36.2116671  40.3908253   5.5763024  35.2571392  39.2239356   5.7113117
  51.0658264  29.3389797   3.2424143  50.4977322  29.6109724   3.9631942
  50.4622698  29.0959811   2.5403407   7.9773778  51.6978788  62.0117998
   7.0315135  51.7044735  62.1585274   8.0880040  52.0883608  61.1449003
  71.4649248  20.2155924  12.3297405  72.1379995  20.3420711  12.9984713
  70.7111692  19.8733234  12.8102982  66.8839741  22.1334171   1.6574833
  66.6117191  22.9700875   2.0344350  66.4450598  22.0995212   0.8075198
   2.2022349  17.3166728  10.4307890   1.8610609  18.2029438  10.5506051
   3.0700445  17.3375285  10.8341527  53.2109737  77.9305029  13.2577467
  53.3359528  77.9189825  12.3088109  52.2772503  77.7578259  13.3784640
  66.8073511  62.4476099  61.2057686  66.2034607  61.8895817  60.7157135
  66.3065910  62.7274323  61.9720411  34.1351771   2.8555629  59.8876143
  34.0751505   3.0595890  58.9543390  34.9382162   3.2891133  60.1763964
  76.6650248  71.4842939  65.6809998  76.8840218  72.3714781  65.3960896
  76.9609165  71.4449024  66.5904665  39.1235709  37.7562356  10.4609430
  38.3540869  37.7019835   9.8942125  39.4337630  38.6559319  10.3581834
  58.8311577  17.3651743  11.2485921  59.4691706  16.6704524  11.4114785
  58.7643003  17.8294158  12.0830035  11.5873635  71.3639450  20.6159353
  12.5364149  71.4671803  20.6857681  11.3188851  71.0318470  21.4725924
  55.0322676  76.8039227  15.1917422  54.4526720  77.0640659  14.4757664
  55.9027147  76.7700481  14.7949958  20.4674315  56.7938042  63.7969160
  20.1287150  55.9419250  63.5215807  21.4133668  56.7292976  63.6654711
  79.7842741  27.1864772  18.2572591  79.7322083  27.9663396  17.7046883
  79.8391438  27.5284362  19.1496074  48.7163816  -0.1229700  30.4229951
  48.0306683   0.5427996  30.4757428  49.2518221   0.1433722  29.6756029
  77.9118299  76.8858290  14.5148909  78.3831835  77.3253345  15.2226293
  78.4556913  76.1282539  14.2991984  15.7101476  12.4164498   9.2836642
  15.8794606  12.0244730   8.4269732  16.5684223  12.7152538   9.5841843
  51.2779999  46.1378479   6.4824736  51.3941193  46.4841223   7.3672581
  50.8698702  46.8544245   5.9964818  12.4998116  54.3345022  62.4176216
  12.0400417  53.4972382  62.4795246  12.3329806  54.7620392  63.2576275
  57.3043871  40.5832052   6.9483006  57.5043678  40.6937885   7.8778225
  57.6955509  41.3482523   6.5264845  52.5150061  43.6448860   6.2398136
  51.9767618  44.3859386   6.5179563  53.2776976  43.6726379   6.8175340
  58.6942053  23.9064264  11.8901014  58.8813782  23.0625486  11.4789212
  58.1911278  24.3868852  11.2326050   4.3430775  52.4628258  64.9958467
   3.6639288  52.8746510  64.4616270   5.1548940  52.6190519  64.5133781
  17.5947618  70.0411081  52.3591852  17.8109765  70.9631062  52.2198915
  16.6435957  70.0316525  52.4660730   9.9219686  14.9114847  48.9146805
   9.8732114  15.5720556  49.6056938  10.6532490  15.1933062  48.3650970
  26.2478447   2.5175002  60.8234596  25.9493065   1.7854726  61.3631296
  27.1856356   2.3637329  60.7088375  15.8830345  74.8272943  61.7103291
  15.5658793  74.6822023  60.8189297  16.5563083  75.5014277  61.6182470
  54.2232180  21.5685797  15.3339791  54.8241520  20.8442426  15.5084717
  53.3536148  21.1692190  15.3571355   9.9576265  65.8112431   3.3827332
  10.2160275  65.0004959   3.8210851  10.4911685  66.4887047   3.7981969
   6.5774029  64.8618364  57.4509287   6.9015110  65.4940748  56.8094778
   7.0521516  65.0717831  58.2551479  78.2084846  57.2135258  67.9129791
  78.7586069  56.4782667  67.6428175  78.7705612  57.7354813  68.4855795
  54.7139597  43.9688253  14.1355145  55.1021099  44.2801237  14.9532318
  53.8029337  43.7791681  14.3597937   6.3494062  55.9969902   4.1658831
   6.2882888  56.9478130   4.0740818   7.2003382  55.7741261   3.7884206
  45.5535173  24.8869872  41.5876770  45.1464558  25.5143237  42.1851587
  44.8166227  24.4400191  41.1712217  17.7074921  67.8490496  21.3830161
  17.7613497  67.2557306  22.1322203  17.3440027  68.6577988  21.7436147
  15.5792630  66.8966246  52.5470591  15.7478034  67.3686028  53.3625698
  15.8571112  65.9987211  52.7281761  48.6111593  52.7214479   4.6013591
  47.9314613  53.3062267   4.2662820  48.3535576  51.8529034   4.2923170
  56.0353851   9.5804012  18.9889228  55.5228424   8.7776560  18.8933671
  56.2233734   9.8528808  18.0907869  60.9798479  60.6671906  57.3225260
  60.1586342  60.1841021  57.2305107  60.7175159  61.5232325  57.6610613
  18.3162045  77.9703617  59.2000961  19.1783547  78.3795595  59.1260147
  18.2967710  77.3233747  58.4949255  46.1223173   4.1839829  64.6262693
  46.6141367   3.7364614  63.9377451  45.2060556   3.9838859  64.4348001
  59.0883207  70.9113121  10.9003699  59.3916416  70.0839233  11.2740684
  59.2329931  71.5547705  11.5941024   5.3379327  54.6843863  67.1366072
   4.7035003  54.1016293  66.7193317   5.4145163  55.4250765  66.5351582
  48.5844803  24.6614861  16.0271668  47.7244568  24.5303106  16.4263892
  48.5375214  24.1884899  15.1963222  56.3944817  76.4622498   5.7802492
  55.5335808  76.8398619   5.9604853  56.7076731  76.9367123   5.0101668
   8.7330252  44.0831089  59.3739080   9.3543929  43.7216330  60.0059414
   9.2813486  44.5174456  58.7205124  51.7851019  11.6292489  14.1797531
  51.6893673  10.9003079  13.5668004  51.2692308  11.3696253  14.9431026
  41.3126087  24.3723273  62.6575994  40.3702688  24.5298076  62.7161264
  41.4194822  23.8519692  61.8613338  32.6699281  39.2797589  15.8502746
  32.9391050  38.3925176  16.0881400  32.9453254  39.8202229  16.5907383
  62.0331621  31.3405633   7.2694308  62.5999355  31.2938452   8.0393761
  62.6376581  31.4195204   6.5314746  27.2175169  20.4877687  11.9527709
  26.8862319  21.3143826  12.3037612  28.0576158  20.3600168  12.3933887
  42.0252323  78.5942459  10.7125914  41.7771387  77.6699352  10.7306540
  41.4232254  79.0158510  11.3258362  79.2596340  40.9750271   4.4328791
  79.8727989  41.6473579   4.1358373  79.6735048  40.1477957   4.1866452
  54.8306847  68.3172941  65.6363106  54.4786882  68.6061049  66.4782810
  54.0578127  68.1737709  65.0901413  45.1275778   2.1354979  35.2003813
  45.4752684   3.0266130  35.1649141  44.4714451   2.1065149  34.5040464
  12.6786172   5.0629902  46.1822271  12.3679519   5.9463847  45.9839010
  13.0559456   4.7514668  45.3595400   5.5253422  58.4316730  60.7493401
   5.7370728  58.9439964  59.9690008   6.3614863  58.0537844  61.0219097
  19.3691719  27.0328617  21.9880009  19.8922455  27.0906186  21.1884451
  18.4662151  27.1492004  21.6924214  44.2566919  13.9725208  11.3898587
  43.9841509  13.0585122  11.4707398  43.4964371  14.4168365  11.0145855
  39.2838144  74.9045515  28.3082676  39.8183012  74.1502237  28.0601859
  38.8012576  74.6122503  29.0815282  32.9987884  20.1831532   9.7237694
  33.4210920  19.8123300  10.4986119  32.8902936  21.1112857   9.9312049
  11.7775476  52.9746723   6.4646387  12.5851524  53.4850311   6.4051247
  11.4389241  53.1633663   7.3398310  66.2412071  58.3041811  16.3298523
  65.8809662  57.6263094  15.7580566  67.1887684  58.2390308  16.2110567
  22.9006791  47.0072031  50.6388140  22.0138717  47.1778774  50.9561110
  23.4254670  46.9128418  51.4337540  42.9665041  69.1010809  58.9819908
  43.5336161  69.7054005  58.5030222  42.4261332  69.6663284  59.5340109
  12.9457748  59.3407011  47.0492125  13.3716226  60.1835299  46.8926191
  12.0154738  59.5114040  46.9021368   1.4892022  44.9578714  22.8704977
   1.8926731  44.1757584  22.4940205   1.6193768  45.6368351  22.2084570
  61.1006737  21.9066405   8.0804604  60.9077024  21.0307455   7.7460957
  61.5099096  22.3596597   7.3432148  74.5379782  78.0869722  59.9963188
  75.4814053  78.0807257  60.1579762  74.2031717  77.3474264  60.5034733
  64.1289520  45.9011173  47.7045918  64.2111492  45.1420689  47.1272564
  64.5837069  46.6046476  47.2414732  56.1510086  33.6311746   8.0322665
  56.9389296  33.6072159   8.5752600  56.3598776  33.0741334   7.2823918
  29.2767477   3.1996393  65.5705452  28.9136457   3.9837700  65.1588058
  30.2120328   3.3848378  65.6552553   8.5929221   1.1785454  61.4630651
   9.2068487   1.3928871  60.7606506   7.9524076   0.5977474  61.0523987
  50.3717136   9.8508859  61.9319201  51.1468506  10.3711641  62.1433496
  50.6600904   8.9428884  62.0247126  58.8871241  77.9929781  41.3896227
  58.6509180  78.5086203  40.6185532  59.7747612  78.2784986  41.6059732
   5.6431496  25.9908104  17.5357342   6.1043024  25.9170318  18.3712745
   4.7765803  26.3237739  17.7690279  56.0197163  72.5756931  51.6969347
  56.4727736  73.2470655  52.2070694  55.6295538  73.0535936  50.9650803
   4.2659342   4.8558435  65.5129719   4.5594704   5.6111896  65.0035429
   5.0537390   4.5487747  65.9616423  69.3368483  17.5461805  40.4345846
  68.4040165  17.3713827  40.3100729  69.4944382  18.3589613  39.9541831
  71.3224745  76.6217041  59.2741537  71.0325861  76.0573483  58.5574245
  71.9601393  77.2113848  58.8717985  51.8227386  15.6122398  11.8663430
  51.5132236  14.7383213  11.6282332  51.0509014  16.1716425  11.7793429
  12.2142994  27.1570611   6.2497908  12.6984823  27.9803085   6.3135153
  12.8180277  26.4971137   6.5906924  72.4360657  33.9727354  10.1618326
  73.1165600  34.0978861   9.5003980  72.9175425  33.8163328  10.9742045
  26.5687966  74.1396618  29.0420222  25.8821154  74.7827911  29.2183352
  26.9866538  73.9965343  29.8912239  50.9674931  50.0613737   7.6249522
  50.7414246  50.9781456   7.7819711  51.8959284  50.0800037   7.3928010
  56.5053940  48.8168955   9.4998521  57.3517752  49.0393209   9.1120368
  56.7203569  48.4938812  10.3748870  56.7562437  33.5282731   4.0107572
  57.6905203  33.7101078   3.9092818  56.7069387  32.9422903   4.7660226
  11.6868734  64.6354580  31.2892866  12.5959051  64.9183893  31.3885069
  11.7126477  63.9900732  30.5828547  61.5941525  32.4487257  11.3129222
  61.5985632  33.3443999  10.9753096  61.1068058  32.5049734  12.1348464
  23.0868196  19.1783857  54.4105816  23.5640192  19.4422030  53.6238718
  22.7910018  20.0018454  54.7987032  23.1263852  62.5811052  44.4256926
  23.8882661  62.0757103  44.7091436  22.3753834  62.0869064  44.7543192
  20.1315379  11.7318082  41.0209370  20.9782410  11.4077914  41.3280821
  20.1305723  12.6596892  41.2560272  26.1472940  46.3593578  12.2036278
  25.7636595  46.0576820  13.0270636  25.5291677  46.0716057  11.5318024
  56.3027573  73.5844898   5.3023505  56.8260050  73.5056019   4.5047185
  56.2917185  74.5231104   5.4897064  28.2936335   6.9987029   3.5194916
  28.8868928   7.1777254   4.2490298  27.4182510   7.0627260   3.9013848
  12.6817822  75.2400541  60.6543779  13.4508312  75.1976156  60.0860548
  12.8709066  74.6214151  61.3598919  57.7423763  69.9529600   5.6594402
  58.6919546  69.8512220   5.5947667  57.4826813  70.3197622   4.8143095
  35.2732682  56.8925905  64.7657108  35.0979924  55.9632444  64.6179628
  35.7240343  56.9200945  65.6096792   2.5919849   5.8452713  17.3212993
   2.9996362   6.4300656  17.9601014   1.9395790   5.3581911  17.8246391
  76.3034201  34.7692275  14.9823081  77.2182703  34.8325968  15.2566552
  76.2618637  35.2722859  14.1690195  77.5236893  73.0125523  19.2305875
  76.7922497  73.6249304  19.1517317  78.2486534  73.5460234  19.5562673
  16.3989913  64.2523909  52.9406261  16.5031993  63.8736296  53.8135004
  16.1037731  63.5223627  52.3964405  17.2070348  12.4170792  21.3312197
  17.6947975  11.6057992  21.4731455  17.8570056  13.1104267  21.4454103
  55.2649975  37.3355079  13.6704552  56.0082006  36.7477798  13.5345840
  54.8846054  37.4460125  12.7990663  63.4735012  17.5490427   3.9465225
  63.2750654  18.4576762   3.7201566  62.6484680  17.0828927   3.8114136
   4.2230549  27.0887446  65.6634378   5.1781881  27.1091747  65.6039762
   4.0214375  26.2073421  65.9776211  24.9255443  34.3116355  65.2928638
  25.3689933  33.4646893  65.2452517  25.3408051  34.8381472  64.6097994
  53.5505533  30.1065660   1.8858506  52.7936363  29.7589445   2.3575182
  54.0720129  30.5439091   2.5589332  78.0368710  34.2745662   2.4661455
  78.3645725  33.4937239   2.9123861  77.9567528  34.9303746   3.1587702
  70.9841442  74.9642563  51.0054207  70.9650326  75.8992386  50.8012724
  71.8983698  74.7858763  51.2258911  59.8471594  35.8307481   6.2227845
  58.8903856  35.8041167   6.2331772  60.0684404  36.1477947   5.3471434
  27.3974109  27.5587869   4.9660122  27.2766113  28.2419991   4.3065721
  27.2326326  26.7410207   4.4966114  42.0151949  18.7664533  62.1000910
  42.2984457  17.9611766  62.5331354  41.9438696  19.4067562  62.8080130
  74.6107292  20.1417971   4.9834606  75.2979231  19.5135105   5.2053869
  74.4892550  20.6558108   5.7817507  78.9880037  75.3632832  56.8415022
  78.9822245  76.2949467  56.6219473  79.5658207  74.9670887  56.1892843
  56.0391235  10.7262969  16.2819469  56.4573908   9.9935710  15.8298469
  55.2512789  10.9060180  15.7688820  41.0339117   6.7200255  65.4772615
  41.6838121   6.1039019  65.8152771  40.1909685   6.3290596  65.7070875
  53.7377834   7.6696086  14.4191599  54.0050793   7.6424992  13.5004365
  54.4686937   8.0936235  14.8688412  26.4236093  58.8245583   4.3252778
  27.3341036  59.0687609   4.4914043  26.0872984  58.5576725   5.1807880
  20.8400893  37.3465514  24.1196370  20.5948758  37.4695373  23.2025886
  21.6463828  36.8318486  24.0850115  56.3825083  28.8413119   5.0153178
  56.3448954  28.1088710   4.4002181  55.9690046  28.5071111   5.8112806
  77.7578831   0.3879830  65.4996538  77.9848671  -0.1573424  64.7464371
  78.2672596   1.1891362  65.3774977  44.9247789  21.5676570  64.4640541
  44.1697025  21.8823624  64.9610996  45.6700087  21.7027307  65.0493860
  44.7095442  52.1272564   6.1352938  43.9615536  52.7024508   6.2961853
  44.7855854  52.0942974   5.1816881  11.9973266  46.0974026  42.4432850
  12.2943282  45.1879740  42.4122524  12.4206066  46.4611912  43.2209206
  42.3338318  48.8267851  29.4146466  42.6154518  47.9470921  29.6657610
  41.6485167  48.6817932  28.7623000  73.1156588   7.1324021  66.8393040
  73.8130951   7.7874923  66.8134022  73.5584116   6.3038093  66.6559029
  32.7927279  17.2148681  52.9551077  33.2952428  17.0983672  53.7614202
  32.3506999  16.3758671  52.8250360  57.7893591  64.3646193  55.0181961
  57.2417116  64.3159485  55.8017397  58.5963535  64.7846937  55.3157330
  17.0685339  75.5630970  51.9053364  16.1994183  75.6163549  52.3028708
  17.0937169  76.2924719  51.2859726  53.8991690  13.5585964  29.7348166
  53.9548731  14.3753386  30.2308631  52.9663181  13.4559202  29.5464587
  43.0894995  52.0083475  16.7592752  43.4321880  52.7336788  17.2814739
  42.3188400  51.7090559  17.2417021   7.2834861  36.3874745  19.9033105
   7.7896601  36.5981650  20.6879306   7.9433495  36.1971951  19.2365229
  18.6897731  48.2264757   8.1253576  18.1281304  47.8435230   8.7992549
  18.9939964  49.0500402   8.5067034  15.8266270   7.0909268  11.9250453
  15.3584230   6.4333373  12.4394310  15.1432288   7.6880383  11.6206503
  68.8613701  63.6023426  11.6340208  68.3143806  63.2833242  12.3518372
  68.3632565  64.3278313  11.2574840  53.3926821  48.7875080   6.8455184
  54.2047548  48.9708900   6.3731390  53.5205841  47.9120684   7.2108674
  32.2585082   5.9796315  54.8908663  32.7209401   6.6926163  54.4503593
  32.6259232   5.9658009  55.7746315  60.1461744  63.8912678  33.8233328
  60.9546185  64.3168831  34.1088152  60.4373312  63.1925440  33.2374644
  50.4343414  51.6745567  50.0711584  50.4796648  50.7499218  50.3145409
  49.9686241  52.0906210  50.7965755  14.8705494  67.3884296  64.4396973
  15.4498792  67.7550554  65.1076746  15.4461229  66.8586779  63.8880491
  30.4470611  16.7598820   3.2120866  30.3539872  17.3904490   3.9261973
  31.3641310  16.8314826   2.9473478  65.9558105  74.6041393  65.1510525
  66.3808441  74.6875095  64.2974567  65.4279709  75.3982925  65.2343702
  10.7655299  34.2621589  16.8407452  11.5197384  34.1222501  17.4133062
  10.4592478  33.3805084  16.6283441  15.8434725  13.1780791  63.0197430
  16.6149628  12.8011787  62.5966835  16.0459924  14.1101062  63.1006336
   4.6075353  73.8286591  65.4852009   4.0862632  73.0307865  65.3962469
   4.9785030  73.9707279  64.6143198  56.7116070  22.8169894   2.8070733
  56.9190359  23.6670995   3.1950355  57.1038580  22.8497839   1.9345517
  46.6587639  25.7449222  17.9846501  46.3806915  26.3613105  17.3071754
  47.4011040  26.1747313  18.4094155   3.0770037  76.5662050  18.1762052
   3.2977754  75.7271671  17.7718449   3.6952302  77.1875191  17.7915013
  15.2929223   7.8511119  38.4752846  14.4577658   7.6570964  38.9008451
  15.1276815   7.7020437  37.5443125  77.5875378  59.3537903   9.8229110
  77.4708939  60.2411604  10.1623225  77.7919483  59.4768620   8.8959259
  15.5102158  59.1883230  59.9056292  16.2862456  58.6915112  59.6464300
  15.8277583  59.7985125  60.5712652  78.0651236  47.8671265   6.2880480
  78.5115147  48.3310270   5.5796945  77.4094725  47.3281193   5.8455282
  71.6346741  49.7204113  14.2017472  71.2825489  48.9763117  13.7133300
  71.3323498  49.5823812  15.0993979  78.3805037  60.3141880  20.0105810
  78.1722403  60.0817490  20.9154725  77.5592566  60.6544590  19.6556163
  42.6272726  13.5859656  61.7644787  43.3558083  13.1827056  62.2365475
  42.3545408  12.9213107  61.1319590   8.2956457  58.9440441  67.4721336
   9.1361368  58.5380077  67.6841354   8.4238666  59.8733664  67.6622629
   7.9743522  23.6223006  23.0813694   7.6203120  24.1406727  23.8039899
   7.5359106  22.7748084  23.1572461   8.6189985  38.2195687  29.7747993
   8.5266370  38.1909728  28.8224959   7.7390498  38.0405331  30.1062632
  42.4370337  10.5599046  41.9786406  42.9875278   9.8325050  41.6886711
  42.4226999  11.1611009  41.2339306   9.2828667  24.8380589  31.9488573
   9.0724295  24.2053866  31.2620711   9.9081731  24.3814850  32.5116754
   7.4830508   4.2121294   0.1685736   7.5623381   4.2176110   1.1224684
   6.9049442   4.9492872  -0.0279523  81.3113022  71.6090822   2.4346091
  82.1282673  71.6265678   1.9361264  81.0899258  72.5312901   2.5640538
  59.9952030  48.1100559  12.0102668  59.0544748  48.2741070  11.9442677
  60.0595427  47.2397757  12.4035966  32.2869778  36.0701180  58.7438011
  31.7126584  36.5827560  58.1749487  32.3597836  35.2209592  58.3080721
  11.6419125   6.6995376  18.1136012  11.1463892   6.6933882  17.2946692
  11.3206744   7.4699306  18.5821438  64.5794106  33.2089186   9.0929675
  64.6428776  33.6041021   8.2234669  65.4578304  32.8708649   9.2671108
  11.1106288  37.6138330  30.6708121  10.2067006  37.7730441  30.3991556
  11.3670802  38.4135365  31.1300945  24.6003866  52.9991722  47.0081758
  25.4848528  52.6581335  46.8753529  24.6579981  53.5051823  47.8186464
  23.7807560  19.7280097  18.7247741  23.4144163  20.4075360  19.2906988
  23.0165386  19.2695951  18.3754015  64.3020535  68.1597137  34.4936371
  65.0755739  67.7775812  34.9082088  64.6276379  68.5273361  33.6720014
  16.9906187  43.7911987  25.2747679  16.7557573  44.6004152  25.7289028
  16.1827481  43.2778597  25.2668428  62.7753687   9.1200519  54.1374207
  62.5900126   8.6296940  53.3365297  63.6938620   9.3763232  54.0541983
  30.4292297  68.6402082  35.2416682  29.5998645  68.1627464  35.2213573
  30.4844809  68.9865208  36.1323142   9.4688642  43.1173611  36.9694686
  10.2314949  42.8528690  36.4550066   8.8550168  42.3883867  36.8799162
   9.5508754  20.4586959  27.9822922   9.6613085  19.5565128  27.6821208
   8.9502174  20.8502722  27.3481727  68.0030298  56.8044233  29.2085958
  68.6686087  56.6455364  29.8779178  68.3734846  57.4975872  28.6622286
  72.3353148  54.1171551  13.8320291  71.7900848  53.6748075  14.4826329
  71.8828630  53.9712000  13.0012381  11.5946639  41.1387253   6.3687289
  11.7322326  42.0529461   6.1207289  12.4578929  40.8338881   6.6482651
  47.1296072  74.9682713  30.4705143  46.8951607  74.9436665  29.5427942
  47.9869747  75.3934574  30.4896903  40.9431553  67.1194649  63.8736200
  40.1623678  67.0962524  63.3203936  41.4689684  67.8348637  63.5159159
  53.6906433  16.8245065   8.5283250  53.1704330  17.2594130   9.2039490
  54.5982218  16.9594204   8.8009584  12.6666212  42.9308033  38.1369615
  12.3365414  43.0787706  39.0231824  13.6187983  42.9215527  38.2344580
  76.4367008  61.3873434  25.2411914  76.3090181  61.4524794  26.1875987
  75.9132099  60.6295681  24.9804783  48.1865311  -0.3389079  48.0410671
  47.3524523   0.1302736  48.0207014  48.8385582   0.3392483  48.2176924
  79.0091228  37.7978897  35.4461432  79.9637175  37.8684282  35.4468751
  78.8318300  36.9512582  35.0362444  60.6412506  51.1735773  33.4871006
  60.3057289  50.4797888  32.9193711  60.0673294  51.9205713  33.3172441
  33.2579446  62.9539585  44.4085121  32.3679447  63.0543709  44.7462273
  33.5561442  62.1169043  44.7643900  46.7842943  70.8669059  68.2979903
  46.9932074  70.1761787  67.6691145  46.5549940  70.3986208  69.1007130
  61.9717360  55.2202654  61.2014341  62.6958418  55.7766390  60.9144735
  61.1935425  55.7681084  61.0988855  79.0100384  63.4255838  27.4612832
  79.3735313  63.8491297  26.6836476  79.5508385  62.6453781  27.5839472
  10.9035325  54.9117279  52.6949739  10.8603573  54.4638872  51.8500996
  11.1212420  55.8175278  52.4750710  19.5230138  41.6950750  29.8893380
  19.0823698  40.8758354  29.6637058  19.3363202  41.8190336  30.8199358
   4.2132914  72.5659132  42.8244877   4.8722762  72.9706192  42.2604084
   3.9139247  71.8012905  42.3325920  37.7361965  29.0186715  21.3509941
  38.0892444  28.9412951  22.2373366  38.1071210  28.2728028  20.8794761
  82.9301071  15.7236397   4.9342856  82.1986866  16.3294458   5.0536817
  82.5398540  14.9566376   4.5151821  14.8048460  35.7976437  59.3539047
  15.5892992  35.3241897  59.6308661  14.3699169  35.2034831  58.7423182
  25.4653668  36.8605018  56.4043951  25.3350902  36.2132478  55.7113457
  24.9743986  37.6279402  56.1107635  58.5594654   3.1320044  36.0672259
  59.1986418   3.6629087  36.5424371  58.3053780   2.4497855  36.6887164
  38.6468291  73.3071375  39.5668507  38.5354400  74.1026211  39.0462494
  38.8566875  72.6284599  38.9252996  10.9283733  66.7240429  56.8355942
  10.6732690  66.9883442  57.7195072  10.3329754  66.0065556  56.6189241
  76.9943142  21.1295104   0.7987621  77.4154472  21.3399339  -0.0346658
  76.0962677  21.4456916   0.6998888   4.9217549  51.0427427  49.5495653
   4.0204811  50.7728004  49.7258329   4.9711314  51.9408894  49.8768616
  82.3305607  55.0612831  50.5772018  83.1375027  55.5111790  50.3268576
  82.6271152  54.2628241  51.0139561  35.5871201  68.4998941  35.1001835
  35.0008583  67.9877472  35.6571674  36.3504267  67.9363203  34.9737906
   9.4762498  48.4173679  65.8262205   8.8550621  49.0110302  65.4044104
   9.8876113  47.9466057  65.1013756  55.9523296  11.2373924  34.0810061
  55.8218861  11.7768800  34.8608589  55.8188105  11.8389666  33.3485341
  16.3650489  69.3489170   7.1982491  15.5293024  68.9840841   6.9072866
  16.7177486  68.6912775   7.7977049  40.2683306  66.5584707  33.1403446
  41.1977530  66.7596579  33.2495642  40.1435900  65.7370949  33.6157537
  76.4860439  75.0382233  57.7041388  76.6152096  75.8734226  58.1535721
  77.3237514  74.8653746  57.2744894   4.7830012  57.8714371  41.5908098
   4.7338325  58.8252163  41.6550207   5.6890368  57.6948261  41.3375521
  26.3010144  22.3139691  19.7107255  25.3761315  22.3462868  19.9552214
  26.4517856  21.4014888  19.4639885  23.7152314  48.4537077  62.0686674
  24.2590046  47.7880001  62.4898291  22.9296160  47.9816866  61.7925501
  64.3486261  12.7637923  18.4519291  64.0866852  12.2041631  17.7208805
  64.3164825  12.1892679  19.2168605  83.5623550  53.0833149  22.2928882
  83.1416893  52.8701496  21.4599252  83.3388329  54.0013599  22.4460721
  23.2744312  50.8539486  30.6481194  24.1059375  50.5603361  31.0204411
  23.5072494  51.6090345  30.1078677  63.7542295  30.1521254   0.7145265
  64.2498255  30.9547806   0.5521644  63.4715128  30.2254486   1.6260771
  62.6367426   2.0394388  53.6618090  62.8147268   2.8086647  53.1206608
  62.0673370   2.3639415  54.3594551  52.5800514  38.3398557  47.5802374
  52.9744148  39.0641737  48.0661106  51.9225836  38.7555122  47.0223856
   6.5455222  45.7233858  66.7992115   6.6739023  44.7789001  66.8869400
   5.7745814  45.8092403  66.2383986  29.7277927  67.0536900  54.3903017
  30.6419230  67.1773148  54.6458721  29.7160721  66.2064600  53.9449978
  17.7840960  48.4205484  22.5977373  18.5949421  48.8850355  22.3903441
  18.0735588  47.5970411  22.9905248   7.1665984  45.7121563  61.0996914
   7.6034653  45.0263453  60.5946732   7.5829482  46.5242672  60.8109856
  68.2790661  74.1029596  33.2300329  68.0932617  75.0183296  33.4393287
  69.1975355  73.9836693  33.4717298  28.8127542   1.5270494  61.4113426
  29.3683529   2.0006189  62.0304346  28.5746598   0.7217418  61.8707132
  47.5126839   4.7094023  30.7653880  47.7254152   5.6086624  30.5157685
  48.1506920   4.1729280  30.2948809  68.8135719  23.3593035  10.2096951
  68.6831903  24.2684770  10.4792047  69.4640064  23.4080863   9.5091319
  38.0065727  13.5640454  66.5767050  38.4492421  14.4030011  66.4485264
  37.7877975  13.5485649  67.5084400  27.3079157  30.1539302  57.0412683
  28.1265974  30.4488802  57.4400139  27.0210123  30.8947802  56.5073586
  71.7962122   1.4015259   6.1015356  72.5902510   1.7088947   6.5388697
  71.4646530   0.7053099   6.6686189  24.9664092  35.9591389  53.7133265
  25.2166820  35.5751538  52.8730011  24.2884088  36.5976954  53.4924364
  12.7589381  68.9972639  30.3892398  12.1435726  69.2368221  29.6963000
  12.7664924  69.7542095  30.9750748  32.5171375  13.3454633  56.7078543
  32.8160334  13.0477929  55.8486176  31.9901133  14.1226220  56.5221071
  52.3267126   2.4292205  14.4587481  52.3376799   1.7079544  13.8295531
  53.2478809   2.6647890  14.5691383  22.4647117  10.9334767  67.0531464
  21.5395927  10.6899047  67.0857239  22.4915743  11.8206239  67.4115896
  31.6803050  51.8534470  57.3410511  31.1126208  52.1209860  58.0638170
  31.2274599  52.1590328  56.5550566   5.8189344   7.0788932  64.7457600
   5.4925972   7.9009205  65.1118279   6.6564548   6.9361317  65.1866770
   4.4280505  13.8126349  48.9382219   4.4081968  14.6565962  48.4870386
   5.3383660  13.5250854  48.8684177  82.9177475  32.9146314  33.1630707
  82.9509354  32.2937751  33.8908553  82.5761127  33.7202883  33.5509253
   2.6061547  16.4308548  36.1110020   1.9916534  15.9781063  36.6886187
   3.2495165  15.7626379  35.8747745  25.8412075  46.9577074  51.6443968
  25.6991696  46.0451269  51.8959093  25.3602314  47.4641800  52.2989035
  64.2831850  24.2141962  24.8496556  64.8587132  23.5258269  24.5162725
  64.0210867  24.7052526  24.0709400  77.9013538  52.3141956  42.9362249
  77.7225924  53.2103539  43.2211399  77.9718733  51.8139553  43.7492561
  45.6395245  74.5616817  64.9048138  45.3066826  75.4576445  64.8528624
  45.1158762  74.0743876  64.2687511  25.6755877  35.6728029  39.3574142
  26.6173267  35.5020642  39.3718338  25.5742812  36.4054704  38.7498212
  34.9027395  29.1426182  24.4956779  34.5123959  28.8199830  23.6834168
  34.1610670  29.4710541  25.0038934  78.4821939  52.8476143  25.8400106
  78.4051228  53.6296320  25.2934408  78.7927580  52.1674013  25.2424407
  70.9761000  66.1833048  30.1528454  70.2157450  66.3507938  30.7096529
  71.0425568  66.9605064  29.5980692  11.6045320  47.0405197  33.6041808
  10.7738328  47.3131084  33.2144809  11.4326847  47.0217133  34.5456409
  16.0841274  45.3403807  34.7913575  15.9609318  45.7449198  33.9326358
  15.1984906  45.1256990  35.0842595   9.9019802  75.9096670  56.2658930
  10.8263624  76.1401510  56.3587666   9.8866862  74.9541664  56.3208437
  51.8709755   2.3338422   1.7845811  51.0869980   1.8543437   1.5168181
  52.4549723   1.6613472   2.1351889  11.6657853  70.4961967  47.9954290
  10.8527946  70.0320625  47.7957773  12.3312664  70.0496054  47.4720526
  68.1903172  44.5776081  44.7913027  67.7394390  43.8630962  45.2412128
  68.9030075  44.1498470  44.3166256  13.5037911  52.1752167  54.8374367
  13.5296261  51.2319803  54.6765995  14.0631461  52.5496387  54.1568804
  15.1979959  36.1815381  62.3231697  15.4530036  37.0749760  62.5533247
  14.7306383  36.2722492  61.4927578  48.5228252  15.2878964  66.8580389
  47.8437090  15.8009613  66.4200926  48.3547926  15.4155815  67.7916813
  77.6134634  23.5849524  20.4623961  76.9298553  22.9377508  20.2890706
  77.8438568  23.9271474  19.5986509  82.1953678  56.0756731  45.5048895
  82.1371460  55.8594275  46.4355230  81.5573692  55.4989862  45.0846243
  80.8686447  60.0894356  41.2130165  81.0235691  60.4118299  40.3251600
  81.7425060  59.9015474  41.5554953  20.9811640  76.0638666   3.9346266
  21.6039705  76.7809296   4.0536338  20.6180573  76.2046385   3.0602300
   5.7758898  32.9403400  13.9599788   6.3293999  33.5996604  13.5414648
   6.2642473  32.1225524  13.8653266  58.6892176  22.0554686  18.1064188
  58.4095001  22.9654241  18.0065703  58.1655407  21.5723991  17.4671721
  19.0864372  21.8022108  24.4241548  19.7187984  22.3551822  24.8830390
  19.4601488  20.9221745  24.4700336  19.5539927  70.4385948  19.3929756
  20.2303171  70.9806824  18.9868236  19.8889005  69.5447063  19.3220639
  81.1034775  55.9528160  24.2194271  81.0994339  54.9965143  24.2606616
  80.9740067  56.1531258  23.2924175  31.9243813  57.1083212  32.9887938
  31.8049884  58.0199528  33.2550693  32.7069378  57.1202898  32.4377108
  43.5231686  26.3389802  43.1771898  43.8569784  26.4361119  44.0690231
  42.6066160  26.6090894  43.2337666  20.0838399  73.8805199  54.8051834
  20.6474829  73.3744240  54.2200279  19.4234598  73.2545280  55.1022816
  11.2868083  67.3216438  48.8190937  11.1472726  66.6021490  49.4347906
  12.0997620  67.0958042  48.3670616   2.3196191  45.2751303  28.0840230
   3.1818786  45.6591320  28.2430387   1.8465412  45.9448814  27.5901961
  18.4360147  75.7080030  41.2336111  18.5543716  76.5167284  41.7317915
  18.7701178  75.9134865  40.3604650  69.5926094  72.5730276  24.8645377
  68.6883116  72.5646448  25.1782393  69.5156336  72.6557779  23.9140320
  19.0635145  29.6648264  53.5002470  19.5891035  30.4435563  53.3170319
  19.1720808  29.1146421  52.7245235  83.2749367  54.7148275  26.2221003
  83.3250904  55.4205799  26.8667984  83.1195736  55.1613283  25.3897953
   7.7462506  57.4122524   8.4886253   8.6536825  57.4454784   8.1858122
   7.3490524  56.7067194   7.9780495  54.1203165  13.5131705   2.6407558
  54.4563150  13.9484775   1.8572745  53.6166382  14.1897511   3.0932820
  76.8478298  62.3310709  41.3026571  77.7078772  62.2876692  41.7205858
  76.9442558  61.8152857  40.5020952   2.3332588  51.3776875  46.0280657
   2.9071355  52.1124458  46.2449217   1.5427144  51.5303326  46.5457249
  11.4948726  41.2448645  36.0230374  11.9060993  41.8402100  36.6496849
  11.9519520  41.4116955  35.1987338  60.4871702  30.8443737   3.4066111
  60.7689095  30.3884101   4.1996765  59.5473003  30.6714702   3.3520141
  80.2239323   4.7724751   1.2898505  80.0125217   4.4016084   0.4331146
  81.1431694   4.5448166   1.4291675  81.1326122  78.0890512  44.2028570
  80.7111835  77.5260592  43.5534954  80.4261494  78.6440229  44.5332384
  58.7662411   7.0671850  15.5696726  58.5322332   6.1462343  15.6851017
  59.3114901   7.2727609  16.3290620  33.0186272  64.5913363  31.4539313
  32.9412794  64.6645308  30.5026746  32.4632692  63.8460541  31.6827536
  77.2748232  73.8605881  43.9790154  77.6228523  73.5810518  44.8257589
  76.3478231  73.6242342  44.0112448  20.7145381  44.0850639  42.2634745
  21.2311602  44.6680021  42.8198195  21.3280559  43.7904119  41.5904140
   5.7960510  15.5859625  25.9328675   5.2840364  15.5591333  26.7411709
   6.5503752  15.0234497  26.1083865   6.2055349  12.0369613  61.8177462
   5.2931106  11.8357110  62.0256186   6.1537313  12.7086127  61.1377239
  63.6889553  25.8131361  26.9533777  64.0314388  25.3368592  26.1970067
  63.6149836  25.1505494  27.6402116  68.4130573  14.8138177  47.1261215
  68.8844061  15.2075911  46.3919544  68.2515526  13.9114332  46.8507099
  51.1497974  11.1061525   1.0763557  52.0809650  10.9272325   0.9454110
  51.1141729  11.6046572   1.8927231  78.7990713  58.5507488  38.1743550
  79.4332314  57.9000235  38.4754038  79.2197514  58.9642906  37.4205375
  17.4029803  40.9918404  61.0777617  17.7347326  40.6301498  61.8995571
  16.5391219  40.5933189  60.9721184  25.5667758  50.3017187  11.7362559
  24.9392557  50.5325651  12.4212098  25.4131651  49.3708658  11.5745366
  73.1937838  49.1407442  38.9644718  73.4744024  48.6675310  39.7477698
  73.7424374  48.7896109  38.2631016   1.2931405  75.8881712  61.5889025
   2.0202437  76.4054203  61.2424803   1.0906342  75.2632999  60.8926582
  25.0853300  48.7579727  46.1689091  25.2357221  49.6476841  45.8494806
  25.2018738  48.8209438  47.1168995  79.3560839  76.9106150  42.5601244
  79.6932840  76.4175940  41.8121576  78.5486889  76.4567995  42.8017759
  54.6174908  10.9973395  45.2613926  55.3461409  10.4005933  45.0905228
  54.3404913  10.7878900  46.1533785  57.6305819  44.0730524   8.5857093
  58.2348442  44.7618675   8.8625365  57.4257040  43.5966158   9.3902373
  25.9043026  61.2739277  52.0722198  26.5458059  61.9604015  52.2551346
  25.9751201  61.1250210  51.1293268   0.2683272   5.8109959  68.6375876
   1.2143483   5.8031233  68.4919480  -0.0958858   6.1661633  67.8267617
   7.1802628  74.1612101  32.2649860   7.5523049  73.2827997  32.3438215
   7.6868224  74.5739794  31.5655231   1.1428602  57.1583128  68.2040453
   1.6804184  57.7240992  67.6498318   1.5479916  56.2943554  68.1286764
  12.9147375   7.1433479  30.7432866  13.3710957   7.9686743  30.9070134
  12.0827317   7.4039871  30.3482366  15.6955985  71.8026869  68.4143247
  15.4740456  72.5733916  67.8916761  16.5937117  71.9607107  68.7052804
  31.6600895  67.4064350  64.4302702  32.2903848  67.0075989  65.0301790
  31.1539698  66.6688919  64.0895271  56.8209314  52.5957775  42.9152870
  57.0302534  53.5226297  42.7996874  56.1961317  52.4023628  42.2163963
  20.8464408  24.2044902  38.9729381  21.2144852  25.0854707  39.0411234
  21.6097927  23.6296487  38.9174461  67.3598766  50.8702660  49.6763802
  67.3936367  51.8188620  49.5528412  67.1088934  50.5258894  48.8192654
   3.2717082  70.0104809  47.7350807   3.5811841  69.7843838  46.8579626
   4.0544313  69.9655199  48.2842255  14.0670347  67.8336668  42.1285677
  14.8251283  67.2884321  41.9182253  14.3999434  68.4747362  42.7566099
  33.2375979  61.9129419  22.5416470  32.8986454  61.1207151  22.1248436
  32.6627827  62.0523119  23.2942367  12.3922563  67.7307558  44.5779085
  11.9065261  68.5490179  44.6815586  12.4095988  67.5805998  43.6327171
  15.7992530  19.1963017  19.3089044  16.4602089  19.1527677  18.6179101
  16.2334466  19.6567988  20.0269938   5.9499645  42.2929573  32.6479602
   6.6924620  41.7034721  32.5159025   5.2509654  41.9220924  32.1093559
  12.3225021  56.9832850  40.1625252  11.7481303  57.7432871  40.0691271
  12.0747852  56.5976906  41.0028744   9.5501173  77.3637676  13.5321867
  10.3295493  77.1435261  13.0220783   9.8576844  77.3950100  14.4380879
  24.4838238  66.4612007  60.5909777  24.3725467  66.8821383  59.7385359
  24.2723680  67.1458578  61.2256145  42.4643660  31.6785526   1.1904085
  43.2011700  31.3726664   0.6614614  41.6887093  31.3727927   0.7201938
  76.2733698  35.7096267  24.7433925  76.2407351  34.9384594  24.1772914
  75.8513260  36.4000821  24.2321372  32.8761148  39.2477465  62.2129679
  33.4757447  38.6849165  61.7231750  32.3307586  38.6397195  62.7120876
   1.3968287  33.2118392  24.8321629   1.5216552  33.3684039  23.8961411
   1.2249400  32.2724390  24.8970413   3.0012989  56.8817806  63.7302160
   2.0834923  56.6191864  63.8002586   3.2674557  56.5918541  62.8576708
  64.3788671  66.0452366  55.1761818  65.1232576  65.7548380  54.6491337
  64.2267227  65.3279686  55.7914925  48.7685680  21.0707808   3.4681824
  49.5279932  20.9467864   4.0375066  48.0449438  21.2476754   4.0692693
  74.4218731  52.8368282  61.2073183  73.6981821  53.2837200  60.7682419
  74.9998474  53.5432005  61.4957905   2.5372383  30.0717521  27.9524922
   2.8041098  30.7716465  27.3565412   3.2370678  29.4219518  27.8874421
  79.7912264  16.0550964  48.1100655  79.5000362  15.1534474  48.2459593
  80.6679058  16.0839891  48.4932470  78.1275606  55.1184940  27.5851202
  77.7417135  54.2563486  27.4300098  78.9276934  55.1208401  27.0597458
   8.4203649   0.7761709  48.2762480   8.5541749   1.7113899  48.1223249
   7.6553673   0.7349325  48.8501072  52.6108074  10.0416565  55.5351257
  51.6768456  10.0784492  55.3287411  53.0363798   9.8849624  54.6921778
  41.0963106  73.2710934  23.6139083  42.0200586  73.4894609  23.4904933
  40.9234571  72.5869083  22.9671907  71.8247366  15.2915204  50.5591631
  71.0041475  15.5763316  50.1569843  72.4544907  15.9742296  50.3277636
  81.4353943  34.1924810  41.2265348  80.7719803  33.5471368  40.9823036
  82.2433853  33.8674283  40.8293915  18.4732807  39.6994328  24.3706322
  18.0868649  38.9793825  23.8721895  19.3589437  39.4001865  24.5762658
  80.7347775  70.9920931  52.5839138  80.4963493  70.6969023  53.4626913
  79.8988962  71.1978865  52.1653652  58.1291246   2.7191976   5.8323598
  58.5303879   2.9073194   4.9839324  57.7329493   1.8546566   5.7235134
  78.0313301  44.0274143  53.8207436  77.1117783  43.8310528  53.9999056
  78.4710407  43.9032745  54.6618605   7.8552324  61.2426853  44.2916298
   7.5832021  60.3315687  44.4016123   7.6385152  61.6596794  45.1255274
  10.7684469   6.7155790  27.0706606  10.1535666   7.0959371  26.4433813
  10.5039608   7.0789981  27.9157662  80.3079700  42.2536898  52.3919392
  79.4537258  41.9144011  52.1247625  80.2015877  43.2049084  52.3821974
  23.2746577  62.4911737  41.6536236  23.0914068  63.4260750  41.7464209
  23.2362247  62.1497345  42.5470304  24.1091466  34.6986866  32.1622324
  23.3681226  35.2134275  32.4818516  24.4487643  34.2584181  32.9413676
  16.5223360  70.5631876  40.8890390  17.0379376  70.8604765  40.1393700
  16.5358710  71.3022137  41.4972305   2.7727818  28.4319067  36.5273714
   3.0718988  27.6651883  37.0161462   2.3426327  28.0694008  35.7529092
  53.0759144  48.1221724  59.7287750  53.5573053  48.5684109  59.0320969
  52.1651316  48.3856440  59.5972776  76.6286707   3.1912935  11.4551938
  76.0586691   2.5886017  11.9327867  77.5143099   2.9470247  11.7239046
  15.6324327  47.5770760  44.6910381  16.5440226  47.3117781  44.5691776
  15.4246008  47.3151350  45.5879354  67.5214338   4.5078349  48.9644384
  67.4864483   3.5971177  49.2570162  68.4325695   4.7680730  49.0998411
  28.2086754  22.0340323  64.4072247  27.7945733  21.3858199  63.8375139
  28.6110902  22.6598811  63.8050604  23.8430023  68.5618925  45.0033426
  24.6257186  68.4797096  45.5481672  23.1166458  68.5663843  45.6267309
  78.0688953  59.8286533  58.7910271  77.9569149  60.1839733  57.9093027
  78.4870052  58.9783621  58.6552858  11.9731998  62.0458889  44.2802620
  11.4637423  61.2398672  44.3640327  11.5779376  62.5029993  43.5379362
  14.2190146  59.1396189  49.8259687  15.0293803  59.6450615  49.7622061
  13.9796913  58.9551592  48.9177132   7.9899424  53.1115532  52.1775198
   8.2259864  53.7225008  51.4794827   8.1975228  53.5799217  52.9860830
  19.3671393  63.7832737  30.5777955  18.6122775  64.3541002  30.4343796
  20.0237656  64.0932751  29.9541187   5.6877488  67.3342085  33.5416150
   5.0075519  67.2556973  32.8727365   5.7047898  66.4772034  33.9676285
  19.5670152  70.9003496  30.6344628  18.6320424  71.0608578  30.7621026
  19.9958527  71.4452982  31.2942815  80.7656288  13.8412833  54.8720026
  79.8100138  13.7934852  54.8446751  80.9563351  14.3899584  55.6328011
   5.8925813  46.5755558  49.9842882   6.1217606  47.4897528  49.8170900
   6.7094934  46.1741734  50.2805567  47.4785852  51.1737442  16.4780796
  47.8494787  52.0503664  16.3770425  48.0235624  50.6174850  15.9214771
  28.9477038  75.6517410  20.8002949  29.1525936  76.5482712  21.0657787
  29.7578526  75.3273249  20.4070401  61.2047052   7.6319945  23.5268450
  61.4386797   6.7578620  23.8389015  60.2998781   7.5450069  23.2269239
  16.4818120   6.4808977  32.7524734  16.1166441   6.2311774  31.9036365
  16.0985434   5.8585364  33.3705378  68.0628586  76.6873312  52.9393291
  68.7237692  77.3021889  52.6209259  68.5673475  75.9824467  53.3453560
   4.0762573  17.3681486  24.5507836   3.6519939  17.8354490  25.2704096
   4.7663558  16.8556237  24.9718714  31.0399580  11.9848859  58.3581924
  30.2845144  11.6142249  57.9019642  31.4386010  12.5764847  57.7199697
  71.5187645  26.5948558  44.8882580  71.0744238  26.0609007  44.2297077
  70.8299494  27.1537519  45.2479887  15.6701875  60.5972433  37.2398281
  15.8588529  60.9493113  38.1097054  14.7909188  60.2268600  37.3168802
  24.7324419  59.5407152  63.9460659  24.8263645  60.1129293  63.1844997
  25.6224346  59.4454384  64.2852783  64.5136118  61.4242840  43.9179659
  65.0677061  61.8334961  43.2533216  63.7703085  62.0202971  44.0101910
   9.5931756  37.8761840  20.8474588   9.8146123  38.3952188  21.6206360
  10.4276478  37.7520847  20.3952575  19.6152031  76.5259218  38.9111161
  20.3589034  76.9933367  39.2914653  19.2777276  77.1187782  38.2396531
  22.6400256  11.5795934  26.8846464  22.8066778  10.6386888  26.8284726
  22.5412512  11.8600798  25.9748101   6.9453573  44.3104219  14.5433867
   7.5479931  44.6869373  13.9020598   6.1332023  44.8035097  14.4271910
  21.5824986  38.1663370  52.7744818  20.9606218  38.8455296  52.5133324
  21.6729951  37.6132798  51.9984865  81.3354969  66.6679144  47.1892691
  82.2915077  66.7096424  47.1663189  81.1214924  66.5879154  48.1188059
  26.3871574  59.4041348  47.7080059  26.5736866  58.8811445  48.4876966
  26.1303139  58.7629509  47.0453262  64.0050983  60.0202370  62.0172691
  63.8582850  59.1257572  62.3248148  63.8584232  59.9757528  61.0724211
  76.8968678  61.1294794  52.5268888  76.4884901  60.5315542  53.1529427
  76.3789320  61.9320202  52.5893211  71.5051794  42.7104521  65.4141235
  70.6324577  43.0128050  65.1627874  71.9863367  42.6547289  64.5885277
  34.9557185  54.2723274  33.4411693  34.2073846  54.2339611  34.0367818
  35.2202415  53.3591747  33.3297801  54.3730593  54.0689373  23.4902906
  54.8753071  54.5514631  22.8336763  53.4980917  54.4554138  23.4541869
  75.8861923  46.8986225  28.4151673  75.7757998  47.8354359  28.2526040
  76.4880323  46.8537474  29.1581392  21.0179186  13.8482296   7.6950270
  21.1024261  14.6769154   8.1665891  21.8863893  13.6947322   7.3229641
  50.8579111   7.6861149  14.2568052  50.6707335   7.0778394  14.9717867
  51.8069077   7.8072989  14.2876911  80.8113194  43.4788895  25.7713246
  81.2041378  43.7793493  26.5908694  81.5535450  43.3641720  25.1778841
  24.1049051  67.9194355  62.8101778  23.9867282  68.7676430  63.2377434
  24.6543121  67.4208307  63.4149742  80.0613117  37.9018140  28.2998228
  79.3802023  37.3730445  27.8842139  80.8424282  37.7466059  27.7687979
  25.4850149  56.3001394  26.1631179  24.7381687  56.3442564  26.7602015
  25.1103711  56.0080433  25.3321218  37.0911407   4.0146959  22.4298286
  37.8288889   4.4849443  22.0414639  37.4970150   3.3428499  22.9776621
   5.5473286  22.4205446   2.3259497   5.6474108  21.4770818   2.1990982
   6.4299595  22.7726364   2.2109438  17.3457587  67.4873686  46.7347193
  17.3121691  67.9512453  47.5713301  16.4375472  67.4718571  46.4328194
   8.8550121  53.8644171  37.9065990   8.5454684  53.6267853  38.7806392
   9.5117760  53.2005596  37.6964045  39.0622616   5.0068128  32.0465589
  39.0428853   5.4273283  32.9062223  39.3444180   4.1097289  32.2250509
  51.1136723  61.9992352   2.9633233  51.4984703  62.8596115   2.7962497
  51.3315725  61.8126488   3.8765252  17.2382224  47.0894718  46.9267035
  17.4586618  47.0875597  47.8581715  18.0655634  46.8994904  46.4843845
  30.6979680  36.6241693   8.0764216  29.9408555  37.2094393   8.0546498
  30.6070399  36.0855842   7.2903621  13.2603705  50.9210014  17.2416234
  13.6040199  50.6176567  18.0819321  12.3844230  51.2487888  17.4453473
  -0.1880529  47.2794914  54.5059156   0.7572767  47.1495342  54.4303799
  -0.2900770  48.2211781  54.6439505  66.6787100  20.9361339  30.8912182
  66.8045712  20.3730774  30.1274371  65.7365036  21.1035037  30.9127378
  69.7862768   6.5137732  46.7158604  70.0717688   7.3815191  46.4299488
  69.7109222   6.5878177  47.6672125  35.2083993  31.0730505  60.3329420
  35.2707458  31.8115306  59.7271442  36.1148453  30.7965541  60.4676199
   2.1258117  27.0455265  42.2738361   3.0093253  27.1980333  42.6090622
   1.5509450  27.2537208  43.0103254  24.1269445   2.0443541  19.0781856
  24.8462749   2.0455690  18.4466827  23.3456349   2.2130993  18.5515797
  42.5052881  75.1876545   7.3641074  43.2928085  75.0674200   7.8947556
  42.8339720  75.4429770   6.5021276   2.2321133  73.6397123  29.3875289
   2.8415278  74.0084457  30.0269699   2.6188949  73.8518620  28.5380435
  34.2495561  77.7303982  64.9865532  33.5739517  78.0095530  64.3686056
  34.1322207  76.7830992  65.0578976  25.6654119  49.3422079  29.0997171
  25.7555509  49.3944263  30.0512314  26.3378358  48.7169027  28.8293934
   8.9712554  62.2344732  29.6150756   9.5820886  62.7589464  29.0973473
   8.5720348  62.8595829  30.2201319   7.3455787  70.3420448  39.2118406
   8.0578637  70.0060940  39.7559166   7.7756071  70.6351566  38.4084773
  44.0014029  38.5838008  11.2924397  43.0825567  38.7274837  11.5189576
  44.0132999  37.7225685  10.8748639  64.1695642  74.4166374  33.2412839
  64.3417835  75.3533268  33.1454301  63.2728004  74.3044853  32.9259038
  23.6845183  43.9073515  46.0637951  24.3381333  43.9413357  45.3653193
  23.6258125  44.8085785  46.3809395  45.8391237  27.8059936   1.5289751
  46.5415716  28.0145359   2.1448556  45.7465601  28.5950780   0.9951104
  49.5710611  61.0904408  23.5066986  49.2428112  61.7126131  24.1558409
  49.9755001  61.6376925  22.8335190  54.5354080  55.6256628  61.5380144
  54.6518183  56.5720034  61.4536619  55.0543785  55.3880548  62.3064184
  73.1160784  37.1424198  32.1781254  72.2078657  36.8984604  32.3566341
  73.4441805  36.4452076  31.6102552  11.9928551  34.9017715  42.7443218
  12.8296304  35.3655815  42.7140236  11.9341314  34.4581437  41.8981647
  16.8445098  23.2544613  65.1279545  17.7154517  23.0098748  65.4407930
  16.7807412  22.8550720  64.2603970  26.7881894  65.5996132  17.8052080
  27.5915575  65.3152561  18.2410669  26.3277102  66.1172676  18.4656823
  11.0928702  63.8267565  42.1297979  10.3038168  64.1100597  41.6678810
  11.8006194  63.9610291  41.4994860  58.4975529  61.8643475  25.4792356
  58.6605358  61.4257431  24.6441936  58.6072493  62.7954292  25.2861476
  16.3301325  58.8719702  39.7692990  16.4256299  58.0463743  40.2441692
  16.9638240  58.8117790  39.0544248  48.4168053   8.1939578  64.5081663
  48.7373066   8.9925325  64.9274445  47.6895332   7.9084241  65.0611401
  65.6044340  28.2614183  43.4331703  65.3707933  29.1795516  43.2965136
  65.0474596  27.7790403  42.8221703   3.4907535  58.8737774  48.6438751
   2.6140109  58.5219812  48.4896183   4.0815660  58.2042074  48.2991314
  29.4194818  58.9254999  22.3247981  29.6106887  57.9936409  22.4311399
  28.5165119  59.0208244  22.6277637  71.6990376  63.6682177  43.2216024
  71.4441681  62.8214121  43.5879278  71.2454081  64.3112326  43.7665606
  16.4733994  67.3985195  38.3760190  16.1510372  66.9910240  37.5721145
  15.7314181  67.9092312  38.6998558  12.5291812  41.4859486  29.9984527
  12.0785689  40.8384371  30.5405855  13.4508502  41.4036846  30.2433848
  50.3906584  68.4897041  41.6386223  50.5635166  67.5940752  41.3484478
  51.1961079  68.7578487  42.0808697   7.6988405  21.0594916  26.2464619
   7.1783245  20.2562165  26.2398696   7.4985123  21.4815664  25.4110265
  25.2745795  49.4044971  68.4180355  24.9033308  50.2862120  68.4494400
  26.1960578  49.5403290  68.1974459   6.1956716  51.0802126  42.8295135
   6.7356205  51.7367744  42.3895025   6.7853481  50.6701231  43.4622431
  29.4890022  49.6035004  66.0557270  29.4904780  50.4499245  65.6087399
  29.6269345  48.9635944  65.3573465  13.0737567  55.4235411  49.3332434
  13.5762393  54.6913433  49.6904993  13.6651683  55.8350372  48.7030602
  65.2905989  42.9537725  41.9705057  64.7219086  42.2762203  42.3362160
  64.7093821  43.6995840  41.8215752  54.4076252  20.4191232  53.7287903
  53.5459232  20.8316898  53.7878942  54.4488287  19.8404217  54.4901323
  19.8022783  75.1014805  52.1756172  19.0388322  75.6133842  51.9085312
  20.2929711  75.6865692  52.7527857  31.7727995   3.7293708  62.4938488
  32.2647595   4.2852688  61.8895388  30.8712101   4.0442532  62.4289083
  23.3514476  58.4437084   3.3314115  24.0393782  57.7785063   3.3092573
  23.6860633  59.1526937   2.7822289  37.5599909  60.7382345  21.5339994
  37.5328517  60.5780888  20.5906820  36.6684151  60.5595922  21.8330169
  68.8423395   0.7045365  24.8909259  68.6508179   1.3442704  25.5767059
  69.0833426   1.2335259  24.1304541  13.4801280  50.1561356  45.1528692
  13.6745346  51.0908461  45.2218103  13.5004354  49.8400164  46.0561323
  45.1040220  13.1734443  43.7525749  44.9552822  14.1184270  43.7859726
  46.0299397  13.0688357  43.9715910  30.1025033  53.4618759  42.8854418
  30.7216811  53.6187220  42.1725273  30.6485748  53.4100151  43.6698818
  56.8511009  72.6317024  58.0478334  56.2662697  73.2006073  58.5483885
  57.5282240  73.2195234  57.7128649  38.8794565  56.7462921  20.8394027
  38.0955434  57.2189760  21.1191893  38.6285996  56.3347626  20.0123930
  69.7475624  17.6053953  36.8608475  69.1319990  16.8768239  36.9414568
  69.4165516  18.2669437  37.4683166  79.0396166  44.8023033  39.2181110
  79.6941280  45.4559994  38.9720726  78.8400221  44.3441582  38.4017181
  38.0666423  67.2563028  58.8381767  38.1569982  66.9359636  57.9407072
  38.6818266  67.9874659  58.8945818   1.6052756  49.2888260  32.3134542
   1.5302166  48.7764645  33.1184888   0.7042178  49.3826914  32.0043969
  63.7267256  37.6908374   6.5187532  63.7625599  38.5872555   6.1850148
  63.7467289  37.1423268   5.7345545  75.0508070  72.9195118  33.6740017
  75.4054260  72.3397541  34.3480659  75.4674864  73.7647867  33.8416886
  63.6121464  61.6322422  66.9552088  64.3880844  62.0102262  66.5413523
  63.1023121  61.2757826  66.2277222  59.1102123  63.8533020  63.5474777
  58.7327957  64.7035217  63.3218336  58.3853626  63.2358742  63.4494495
  68.2091713  43.0765200  33.2526946  68.7604904  43.7280226  32.8193116
  67.8418684  43.5372448  34.0070486  69.5407772  19.6339869  38.5789418
  68.9308834  20.2232409  38.1350422  70.2323818  20.2083421  38.9076138
  75.0070190  64.4700956  33.5685968  75.0094032  63.5130835  33.5873938
  74.1879702  64.6989870  33.1292748  82.0716095  39.3819094  -0.0072231
  81.8402004  38.6496615   0.5641754  82.8063679  39.8075557   0.4345782
  77.4722004  34.9959207  54.8916435  77.7424288  34.8479486  55.7979059
  76.7593336  34.3731308  54.7495413  12.8548229  19.4291902  39.8604035
  12.3266494  19.2591643  39.0804315  13.7569189  19.4423842  39.5405912
  41.4501619  50.9780645  21.4486098  40.9087086  50.2105379  21.2643242
  41.2156820  51.2275600  22.3424792  16.9957101  44.0199232  11.6655517
  17.8399122  44.4179916  11.8779171  17.1311247  43.6134624  10.8095837
  80.1835060  30.1273417   7.9295802  80.9252739  30.7046437   8.1104869
  80.1728535  30.0426579   6.9761932  64.3962526   6.9584495   2.3947762
  63.9776134   6.1128068   2.5555915  63.9222813   7.3219615   1.6468184
  80.8059692  61.3213778  38.4201193  80.5738640  61.3446188  37.4917793
  81.7408752  61.1161709  38.4281874  14.7849965  75.0450277  35.6801558
  14.6387601  74.2915010  36.2520337  14.7821248  74.6786928  34.7958350
   7.9904985  75.1440287  29.6650028   8.3030558  76.0417271  29.5524001
   7.1559393  75.1204872  29.1968274  24.1093969  71.7763138  68.2710171
  24.3285799  71.7685890  67.3392820  23.3757186  71.1665773  68.3495378
  76.2472200   5.8378237  12.9765630  76.2776184   5.0525671  12.4300468
  75.3140068   6.0303760  13.0674839  26.7410707  74.6505117  39.7933674
  27.4728465  75.0826645  39.3529344  26.3150716  74.1397667  39.1049671
  24.8783731  43.0590582  18.1705570  24.6009445  42.5908613  17.3831189
  24.4414568  42.6005411  18.8882613  51.6613054  57.2675753   9.0058917
  51.2537575  57.1650553   8.1458771  50.9476662  57.1249151   9.6276605
  79.1760111  17.0181954  14.5067739  79.1110420  17.7591360  15.1092839
  79.8361683  16.4471769  14.8996651  44.2845583  62.9633379   8.1617045
  44.9302912  62.2704220   8.0233878  44.0084553  63.2129383   7.2798312
  15.5631113  36.2586904  27.7771831  14.9567831  36.9068098  27.4186611
  16.1166227  36.0127664  27.0359802  23.1671548  55.8142853  64.0650940
  22.9417920  55.6702471  64.9841690  24.0211129  55.3949976  63.9593363
  57.0081902  36.2993288   4.4108430  57.8378057  36.4981389   3.9767385
  56.8670511  35.3676677   4.2425567  30.2712345  22.4950194   8.7906647
  29.3655944  22.5582504   9.0940571  30.2754283  22.9555559   7.9515451
  16.4468896  64.4087410  47.0124435  15.9953785  64.4675684  46.1704731
  17.1289992  65.0786543  46.9657516  21.4924645  43.9795732  21.4179564
  21.1935902  43.1064558  21.6720629  22.3392177  43.8299131  20.9974313
  31.5020108  76.2457657  59.9673891  30.6572485  76.5926886  60.2541828
  31.6266608  75.4548407  60.4919195  72.6927900  58.8306808  35.0599647
  73.0467987  58.3501673  34.3116260  72.6058388  58.1714439  35.7484937
  71.9351959  56.1980200   0.7633715  72.4783993  55.6993246   0.1530735
  71.6860151  56.9830990   0.2757289   8.4967774  45.0097609  48.7725258
   9.4097191  44.9892330  49.0594864   8.1166232  44.2053127  49.1254807
   6.4338499  64.0926981  40.2731752   7.0665514  63.5497570  40.7434225
   6.0118878  63.4915686  39.6593165  26.3137650  64.2932653  35.0477886
  26.2333608  64.1223192  34.1094160  25.5361199  64.8073435  35.2650881
   8.8369620  56.5374184  37.6428723   9.1072053  56.9901991  38.4417391
   9.2128217  55.6609821  37.7254891  40.1225948  75.3685284  21.5015149
  40.8077431  76.0362434  21.4706469  40.3773069  74.7973108  22.2261286
  10.7278490  54.4669771  35.8847451   9.9207300  54.2230654  36.3378453
  10.4333687  54.8283434  35.0487256  31.6608810  16.2839270  28.3760619
  31.7726254  16.8664193  29.1273570  32.3871827  16.5035951  27.7925658
  24.7541237  78.6754179  29.9069595  24.3413806  79.1930485  30.5982900
  25.6903839  78.8491726  30.0042152  11.7842913  45.5552101  61.7527771
  12.3457658  45.2966118  61.0219526  12.3315513  46.1359549  62.2814322
  23.2830596  68.2949257  31.9059658  24.0150332  67.8271818  31.5038919
  23.5625648  69.2103004  31.9201207   8.6912102   1.5853010  36.7923331
   9.5191771   1.2759981  36.4248633   8.4368557   0.9049620  37.4157691
   4.6186459  45.6634903  52.1378040   4.3704858  44.9235296  51.5836287
   5.0974840  46.2507534  51.5529394  45.5548811   4.4867742  40.4146242
  45.9246492   4.2969900  39.5523691  46.0033083   5.2837616  40.6973934
  23.5338306  54.9047422  52.9333544  24.0714622  54.1128445  52.9420805
  24.1286945  55.6011772  53.2114792  70.9763336  14.5581090   9.8612720
  71.5043020  14.8138463  10.6176341  70.5373907  13.7533045  10.1366770
   0.4620513  54.5146513  66.2429953  -0.1904983  54.1638708  65.6368923
   0.8237402  55.2768087  65.7907486   6.5965962  66.4141893  26.1081123
   7.4903136  66.5162706  25.7808805   6.2237674  67.2947454  26.0651660
  21.5928388   6.9081706  54.2573357  21.5112615   7.6764822  54.8223782
  20.6915832   6.6189891  54.1146898  16.6750383  54.6058178  16.1685228
  17.4891627  54.1232395  16.0251677  15.9899163  54.0215397  15.8437788
  78.0701685  21.7602801  29.8853779  77.5208426  21.0637164  29.5258331
  77.4999332  22.5288272  29.9053025   5.2037966  66.0252619  48.1113005
   4.7336367  66.5042400  48.7937641   5.4022282  65.1768208  48.5075331
  36.4970064  74.6521473  21.3246083  36.8027139  75.0222588  20.4964805
  36.5857601  75.3677940  21.9540548  65.3392696  10.7702112  50.7896614
  66.0526323  10.5720997  51.3963699  65.7656193  11.2099755  50.0540876
  51.8792295   0.7694239  32.4147844  51.0069323   0.6114851  32.7758694
  52.1392965   1.6158377  32.7783513  13.9584076  69.5667839  46.6599274
  13.9227426  69.0443325  45.8586740  14.8352635  69.9506378  46.6567326
  49.8384237  30.7357550   8.5748059  49.7158909  31.5850830   8.9989072
  50.3658581  30.2322674   9.1949219  20.0017786  75.6004000  21.4698339
  20.8142138  75.7954550  21.9368815  20.2880549  75.2110434  20.6435895
  18.6110938  73.5945320  43.0844688  19.5380116  73.4339762  43.2613277
  18.5753369  74.5097542  42.8064108  70.9282017  16.1192274  67.4922228
  71.0770226  15.4345655  66.8400526  71.6798067  16.0560763  68.0815697
  76.0009193  51.2606859  33.0542660  76.0164356  51.8440151  33.8130236
  76.5130758  51.7198658  32.3886228  74.8516321  55.5282736  67.7051783
  75.3949404  55.9160995  68.3912086  74.6058893  54.6701193  68.0507517
  34.9306393  15.0938594  50.9438801  35.5904007  15.4737437  51.5240812
  34.2229748  15.7382894  50.9315062  17.2918701  49.8306608  52.5816870
  17.1602952  50.0182724  53.5110569  18.2316339  49.6676970  52.5009489
  41.3977432  20.4692125  32.8070140  42.1206617  20.9975100  33.1454229
  41.5240431  20.4702067  31.8581843  68.0525780  22.6527119  40.1482058
  67.3390865  22.0506430  40.3595686  68.7034988  22.5028038  40.8338165
  19.1745305  34.7771764  65.5802441  18.9396286  33.8654089  65.4078197
  20.0661373  34.8627520  65.2426815   2.5201118  60.0355673  59.9262190
   2.6645437  59.9792194  60.8707809   3.3711943  59.8271370  59.5409298
  20.4481912  57.2433901  58.4621525  20.6465816  56.8963003  57.5924349
  21.1275840  56.8758059  59.0274286  46.0846233   5.9834337  58.2540464
  45.4869270   6.2673217  58.9457083  46.7284441   6.6888070  58.1894255
   9.6338934  73.4847212  53.3419561   9.9223590  72.9951382  54.1122341
   8.6839879  73.3678865  53.3258009  12.6693714  32.9244661  51.9104767
  12.1462870  32.1742344  52.1929026  13.5756338  32.6242757  51.9797945
  38.5902190  24.5453525  42.5451851  38.7672067  25.4855061  42.5771141
  37.8683519  24.4164991  43.1604385  46.9013453   9.0690857  37.7814174
  45.9560442   9.2148882  37.7442408  47.2595119   9.8990834  38.0961442
  37.6243949  70.6581163  23.4736347  36.8667364  70.8763170  24.0163803
  37.4612141  71.1057806  22.6434541  46.5058804  63.1488609  33.0542541
  45.6770802  62.6860046  32.9314160  46.3742208  63.9939737  32.6245070
  79.1596031  67.2598553   8.8417143  80.0214100  67.5500202   9.1405845
  78.7002277  68.0682611   8.6143845  45.1422644   5.5598104  46.9377851
  45.7978821   5.3438759  46.2746334  44.6939087   6.3303822  46.5893221
  35.6051230  61.4653301   5.2429962  36.4813161  61.4650297   4.8576158
  35.4085875  62.3904753   5.3903317  44.3894720  18.6706758  51.6809893
  44.6419477  19.5390224  51.3671970  43.4552145  18.7481642  51.8743372
   5.9299475  78.7482691  57.8491831   6.7522430  79.0714312  58.2174587
   6.1351722  78.5603571  56.9333220   7.7981520  41.9094038  57.9398680
   8.2086962  42.6665592  58.3574820   7.9829210  41.1800575  58.5316038
  72.8647423  72.1983051  60.9267616  72.2324848  72.8983116  60.7640600
  73.5460711  72.3330832  60.2680826  48.0186415  66.0825586  13.9470518
  48.6830139  65.5350876  13.5285783  47.9554987  66.8545580  13.3846796
  62.6525402  51.2475395  40.0671196  62.9089355  50.3599882  40.3176165
  62.6110172  51.7273235  40.8943510  64.6711588  41.8266296  55.5635691
  63.9477968  42.3971558  55.3038025  65.4248905  42.4124432  55.6338692
  28.5904121  69.2653084  39.6676445  28.9129496  70.0457764  40.1182747
  28.0185843  69.6052599  38.9794016  39.4363260  51.2333775  27.4872184
  39.1762257  50.3413010  27.2574830  38.6153197  51.6725874  27.7092028
  72.2752237  73.5588694  41.1768341  71.8829632  74.2184210  40.6046820
  72.8440523  74.0580130  41.7629385  74.9160051   1.8782903   1.5422413
  74.2186832   1.2378810   1.4013629  74.5041943   2.5710958   2.0586355
  24.1625595  66.4117384  35.8355975  24.1880655  65.9412050  36.6687703
  23.7748909  67.2599220  36.0513091  22.9108787  59.0866804   6.2265193
  21.9637179  58.9493895   6.2101883  23.2188058  58.7313843   5.3927469
   3.3428124  62.7389145  60.7485628   3.2417417  63.2487869  59.9447918
   2.8883868  61.9158554  60.5688334   2.7592209  34.3179798  27.1201444
   2.0336895  33.9473557  27.6226091   2.5088578  34.1868281  26.2056231
   8.7495100  72.0032310  32.4474144   8.0546331  71.4439154  32.7946091
   9.5599675  71.5479994  32.6757836  25.6237555  66.8638277  30.9909105
  25.5471992  66.6946077  30.0519037  26.5662789  66.9203615  31.1480308
  38.1042314  21.3664508  27.8383446  38.1976819  21.2769532  26.8899298
  38.8970089  21.8261266  28.1148124  24.7498846  71.7598724  44.2428207
  24.5273924  72.6726818  44.0597773  24.6960926  71.3249540  43.3918285
  82.1846962  61.6069269  52.9035521  82.1478653  62.2328234  53.6268282
  81.3230228  61.1900949  52.9034185  22.6848245  41.7411423  59.0031099
  22.6764464  40.8107138  58.7784719  23.1644702  41.7834902  59.8303843
   6.2013656  49.2943048  57.2701693   6.3086379  48.3743620  57.5118923
   7.0868206  49.5918655  57.0612240  74.8909473  29.0972710  66.4159203
  74.4727516  29.8908687  66.7499065  74.7872734  29.1535187  65.4660177
   7.2681081  44.9343395  44.2375469   7.0944160  45.2494192  45.1245546
   7.9574573  45.5115032  43.9090490  16.7217684  66.8102884  28.1748796
  16.6363096  66.9289780  27.2289181  17.6651537  66.7470741  28.3240795
  28.9133811  59.7834969  39.1365552  29.6627951  59.6117926  38.5663533
  28.9414597  60.7277060  39.2912006   5.9806603  20.0178528   7.6529336
   5.1967895  19.7922456   8.1538117   5.7345390  19.8641026   6.7407840
  38.3163452  55.3573561  28.7719107  37.7924991  55.9988546  28.2920194
  37.7208304  54.6221113  28.9168668  25.1094937  67.6464844  52.5909185
  25.4525566  67.3963499  51.7330313  25.8247304  68.1312466  53.0028343
  80.1619434   3.6855721  22.8341842  80.2090454   3.6292896  23.7885666
  79.4584846   4.3124482  22.6656508  80.3948975  62.2158527  56.2378883
  80.8498764  62.9866266  56.5771961  80.6198788  61.5158224  56.8507338
  30.4088044  12.8643572  50.2438450  29.6440411  12.5157869  50.7019520
  30.9460878  12.0950210  50.0549507  77.0765162  73.7151718  51.6640759
  77.7081537  74.3848085  51.9264603  76.2629604  74.1976929  51.5173292
  22.1395540  73.9655352  30.3005624  21.7637920  74.3036127  31.1134195
  22.6222920  73.1831312  30.5670881  68.5824108  28.9319110   1.6155954
  68.5608149  28.8772631   2.5709900  68.2618475  28.0799198   1.3196501
  66.8679571  56.4968300  47.7178049  67.5470781  56.8239117  48.3077574
  67.0586157  55.5631828  47.6273537   7.6676345  60.5794764  31.6427326
   8.3048445  60.7227755  32.3424888   8.0968261  60.9148121  30.8556008
  20.1841116  50.6627798  31.9014549  21.0003948  50.1733303  31.7997122
  20.2536869  51.3785410  31.2697244  30.3328490  62.8279257  35.0348639
  30.1543117  62.9490805  35.9674287  30.4151893  63.7167692  34.6893144
  77.6145220  59.0546131  48.4718752  76.7044306  58.9451218  48.1962299
  77.6227856  59.8860836  48.9460325  47.7025890  20.6537890  39.3425775
  48.1853056  21.4775896  39.2749596  47.8620005  20.2135563  38.5077047
  41.4639854   8.2532704  33.2919168  42.2444773   8.4918863  33.7920427
  40.7467937   8.7039614  33.7377238  32.2454095  52.7511263  38.4227538
  31.7307234  52.8522825  37.6220679  32.5788713  51.8548393  38.3815002
  13.5834396  26.8444705  14.5413673  12.6282966  26.8255520  14.6011627
  13.8814390  26.3694310  15.3171039   5.9294891  69.5799303   1.9909972
   5.8901864  68.6737013   2.2966725   5.3096050  69.6140480   1.2624291
  33.9875340  55.4012346  43.2288933  33.5690522  55.7854176  42.4584961
  34.6599269  54.8210049  42.8718853  14.6563971  66.3081121  58.8610554
  14.9135327  67.1625710  58.5146284  13.8834560  66.4892197  59.3958378
  73.1800890  33.1026411  37.3362970  73.0760098  34.0510607  37.2594929
  73.0621481  32.7757454  36.4444113  59.1957235   7.2152150  40.1926851
  58.4125996   6.8842947  39.7528648  59.3523264   6.5931523  40.9031391
  70.3673315  59.1600180  21.3192964  70.3168583  60.0027847  20.8682728
  70.0198174  59.3351889  22.1938133  21.1630201  76.3719940  44.4991827
  21.6116142  76.4223671  45.3432560  21.1672568  75.4400158  44.2809391
  28.5801053  49.9494982  32.3465586  29.0086293  50.5160046  31.7049432
  28.9303756  50.2353954  33.1902432  35.4881644  25.3312230  46.0629702
  36.2529945  25.4743314  46.6204548  35.7638621  24.6515179  45.4479742
  20.5802178  68.8548326  28.8354301  21.2770057  69.3806553  28.4427142
  20.1163745  69.4631767  29.4107580  16.3268793  63.2964611  33.6831069
  16.3843310  63.6869860  34.5551300  17.2239757  63.0318069  33.4796190
  41.9193077  27.1629643  62.5940514  42.6391363  26.5574431  62.4167871
  41.1684275  26.5967464  62.7723932  34.5605040   2.5212100  32.4684811
  33.7355304   2.9876277  32.3339272  34.8943138   2.3652419  31.5850353
  22.0245552  11.6411841  36.2604332  21.8171978  12.3898029  36.8197203
  22.6982546  11.9673085  35.6637692  20.4082847  68.0721903  18.0115604
  21.1171031  67.4617004  18.2143056  20.6681967  68.4742260  17.1826780
  41.8996143  62.6100969   9.3909401  42.8122807  62.6646376   9.1075742
  41.7908907  61.7025566   9.6751577  40.7700586  54.5924044  40.7421875
  40.1727915  54.4088078  41.4673042  40.7667446  53.7901020  40.2201414
  84.0168858  75.6968021  21.8326402  83.4106541  76.1349201  21.2353349
  83.5623932  75.6931257  22.6750517  27.6997948  15.9482443  28.6423278
  27.4852848  15.9797204  29.5746493  28.0090952  16.8307018  28.4377956
  22.3240876  65.2768898  41.6539812  21.5599370  65.6020451  42.1299839
  23.0679607  65.7154894  42.0669127  45.6869745  68.8488150  38.2152653
  45.1278639  69.4338846  38.7264562  45.5923939  67.9959631  38.6394477
  58.5220861  17.4601448  40.6151772  58.3444548  18.1180382  41.2873793
  57.7984715  16.8382335  40.6915712  77.5852442  22.5462103  24.0263534
  78.4670115  22.2641253  23.7831450  77.3162651  21.9304180  24.7080302
  70.6666422  10.5362236   5.8201200  70.3583431  10.6946707   4.9278882
  70.3105593  11.2642813   6.3294041  23.8787198  77.2051668  63.6099768
  24.3879128  77.9924631  63.4173012  23.2177949  77.1721697  62.9183674
  75.0495338  61.5047264  43.2820129  75.6054449  61.7851019  44.0090466
  75.5617571  61.7037439  42.4982691   1.6539422  43.3376217  61.7725945
   2.5806957  43.3855581  61.5379429   1.3067046  42.6272726  61.2330914
  21.7328596  33.0954170  14.7977400  22.0382595  32.1942663  14.6933937
  22.2618127  33.4461188  15.5142927   8.6307210  76.1821699  16.3203609
   9.1346270  76.9854164  16.1895514   9.1846114  75.4903698  15.9586370
  66.0650015  60.4911423  21.0326982  66.4705992  59.6248007  20.9984398
  66.7256117  61.0488081  21.4435911  75.7454729  21.2548399  11.4124608
  76.2351227  20.4479790  11.5720069  74.9005651  20.9591985  11.0734105
  71.9113207  20.6918812  16.2774670  72.2674131  20.8463740  15.4025030
  71.4152670  21.4856362  16.4777589   5.3583157  19.4875109   2.5105724
   4.4212425  19.3831277   2.3455581   5.7761568  18.8526368   1.9287001
  80.1191998  46.2283897   9.0697402  79.3708563  46.0280085   8.5075420
  80.8343601  45.7012892   8.7134594  40.9186888  46.7842340  15.3942156
  41.8367052  46.5748501  15.5663681  40.4680777  46.5765142  16.2127709
  35.3829741  77.3957157  49.3918753  35.0299644  77.5188828  48.5107136
  34.6366739  77.5461912  49.9720716  19.8708510   8.7944794  11.4821482
  19.3277812   9.2202795  12.1454740  20.6960726   8.6098599  11.9306529
  45.8881474  67.6385498  59.7133112  45.8897829  67.8125906  60.6545544
  46.7724657  67.8660250  59.4261408  51.6982222   7.7538574  32.2449851
  52.3410654   7.4384582  31.6097593  52.0701933   8.5711342  32.5765371
  23.4875597  78.3967236  49.4410181  23.7868847  77.9788272  50.2484846
  22.8413214  79.0409711  49.7300768  54.3180275  10.7422757  39.2014432
  54.8795557  11.3002956  38.6633658  53.9133453  10.1382828  38.5788202
  60.1485395  59.1977739   3.5567129  60.9724855  58.7346125   3.7078002
  60.1941490  59.4754457   2.6418081  25.0700712  73.6444473   1.8289256
  24.8581886  74.2979717   2.4954422  25.1761293  72.8287601   2.3184568
  66.8481731  11.8079090  53.2781076  67.6783705  11.3320446  53.3017969
  66.9355726  12.4051785  52.5352335  19.6757591  58.8136148  43.1775665
  19.4246352  59.1347361  44.0436220  19.4262254  59.5179462  42.5793362
  29.7965813  77.6739550  56.6815901  29.2539239  78.4012413  56.9862318
  29.2282891  76.9066334  56.7486048  60.7209253  20.5321813  11.9284451
  61.2170601  19.8136234  11.5363240  61.0134220  20.5559969  12.8395498
  63.3657503  72.4569750   1.5482518  63.4919930  71.7096281   0.9636448
  64.0836382  73.0527163   1.3338566  80.3892326  11.1987972  58.3287668
  80.5140305  11.3126886  57.3865938  80.8307838  10.3739214  58.5308695
  12.9580510  44.1940308   2.6263216  12.0036650  44.1910362   2.5530332
  13.2647157  43.8856411   1.7736287  49.7944212   6.8421572  59.7096539
  50.3794909   6.1340344  59.4404173  49.3508863   6.5037298  60.4874516
  24.5923805   6.4262432   0.5727407  24.8963809   5.5716854   0.8785935
  25.3944635   6.9052911   0.3644013  78.9104939  12.7322721  19.6654665
  79.8100758  12.6132512  19.9701309  78.9764643  12.7132070  18.7107325
  45.0987625  13.1404018  23.9157414  46.0513115  13.1948829  23.9926505
  44.7800827  13.2374108  24.8131061  45.0889444  70.7322025  63.0897331
  45.9852266  70.5041122  62.8429890  45.0668144  71.6884947  63.0544996
  14.2334402  77.1029282  41.7677164  14.2137408  77.9223442  42.2620821
  13.3952582  77.0815849  41.3059473  22.5140071  57.8496790  53.0816126
  23.2526398  57.4486351  53.5396719  22.8915310  58.6084509  52.6366711
  66.4906740  18.3844876  49.9185371  66.8237591  18.9745474  49.2424345
  66.5055132  17.5191188  49.5097017  74.7023964  58.7100506  25.3510284
  74.1042233  58.1186914  24.8941684  75.4624939  58.1671953  25.5603027
  50.0202131   1.6016063  63.0281782  50.4056644   1.8992132  63.8522482
  49.9808502   2.3882818  62.4842787  21.2012553  20.7882285  61.7204046
  20.5999970  20.3331065  61.1308384  22.0330167  20.8063340  61.2470341
  76.3160658  27.4404716  23.9335728  76.1528444  26.8268585  23.2172847
  77.1984005  27.2259212  24.2363763   7.5172096  41.5175247  36.1157799
   7.0310485  40.8397055  36.5852928   6.8435162  42.0270872  35.6655431
  82.4234390  75.8014870  58.1913853  82.7474689  74.9186516  58.0129385
  81.9248676  75.7139683  59.0037870  26.8308163  22.1611524  36.6524434
  26.3592696  22.5065923  35.8944559  26.1977291  22.2055888  37.3690033
  16.7494142   3.5489073  15.9054339  15.8635974   3.8103813  16.1568129
  16.9921589   4.1617471  15.2113628  25.7238150  14.0438533  14.5529473
  26.5337539  14.3464601  14.9636316  25.4152465  14.7966146  14.0485990
  40.9143543  75.5150127   9.9766779  40.6067276  74.6111298   9.9089217
  41.8099117  75.4891157   9.6397203  80.5365658  61.2020397  26.8717480
  81.3499260  61.5211821  26.4808249  80.7030392  61.2139273  27.8142858
  73.4093046   1.2076110  26.8739271  73.6079359   1.1997919  27.8102589
  72.5755024   0.7430232  26.8020749  29.9973631  66.4656210  14.6020126
  30.4556656  66.4218998  15.4412258  29.0719867  66.5318823  14.8376358
  23.2458448  72.8172874  57.2578812  22.6554132  73.5028028  57.5704384
  23.8578224  72.6802301  57.9810238  27.1179175  60.4947710  22.0665431
  27.5043392  61.3657618  22.1575618  27.3485613  60.2220297  21.1784840
   4.5149013   9.5482528  65.6896782   3.6991248   9.9715513  65.4221725
   5.1568335   9.8326188  65.0390673  16.4825213  26.0511065  45.3588104
  16.8602169  26.8929696  45.1041651  15.5451083  26.1487770  45.1916361
  16.2124467  31.4884353  36.5421367  16.0593247  31.0660315  37.3873353
  15.3792858  31.9094014  36.3303304  74.5271444   9.3933386  24.2288256
  74.2263699   9.2352402  23.3339691  73.7581539   9.2246938  24.7732925
  13.3343530  38.6278963  27.7558422  13.6361027  38.6178303  28.6641812
  14.0711462  38.9886713  27.2626829  10.1296997  22.3472404  20.1950336
   9.5247114  22.1028113  19.4946921  10.1626015  21.5772414  20.7627058
   1.4857554  21.6704559  65.1057100   1.2834984  21.6878128  66.0411358
   1.4585328  20.7426357  64.8719549   8.5730994  25.3246069  28.7757373
   8.6620682  24.8887706  27.9281735   8.5010159  24.6085715  29.4068694
  40.9739923  23.0019116  40.8104515  40.9027195  22.1849632  40.3167439
  40.1574755  23.4657884  40.6251049  63.2450438  33.1054831   2.5617525
  63.8110018  32.8882384   1.8209893  62.3706961  33.1839895   2.1802026
  47.2393942  56.1710548  23.1800151  47.4297142  56.1667347  24.1180921
  47.6336145  56.9822311  22.8593731  69.9658585  48.2100964   2.4896853
  69.7415543  48.9220476   3.0888838  70.0577593  48.6348295   1.6368149
  10.5847144  23.5201621  47.7119493  10.8990967  23.4290838  46.8124485
  10.8576882  22.7109003  48.1441689   4.8090360  14.7570467  51.8681049
   4.7121352  14.0601647  52.5170994   4.8794451  14.2971802  51.0315657
   2.0546073  71.2771749  56.0091925   1.9493291  72.2263622  55.9444952
   1.6382283  71.0460520  56.8395185  82.8019142  24.1105556  34.4786739
  81.8550014  24.2476439  34.4504571  83.0784035  24.5170522  35.2999806
  63.1269932  26.9039202  29.8486066  63.2322645  27.4249077  30.6446743
  62.4744749  27.3802185  29.3351912  74.6878910  64.4312477  16.0761213
  75.0124502  64.8319721  15.2697015  74.9903250  63.5241842  16.0313988
  40.3630829  18.1152439  57.1596718  39.4502449  18.3632314  57.3061657
  40.6870747  17.8711879  58.0266762  32.5227070  67.6846886  55.2447891
  32.2376108  68.3128214  55.9084177  33.3514571  67.3421574  55.5795670
  59.6393585  33.2149434  46.4289141  59.0313673  33.8681459  46.0826349
  60.4109478  33.7190819  46.6872263  17.7790308  17.8697968   9.4341660
  17.0424724  18.4809649   9.4205022  18.1160307  17.9208148  10.3286266
  66.0357332  28.0481172  22.2556162  65.5616808  28.0813003  21.4247084
  66.7399931  28.6885786  22.1553135  76.7265224  39.2405152   4.2716882
  76.7118979  39.2390633   5.2287757  77.4779129  39.7882485   4.0444621
  64.8849535  30.7468843  16.0640824  64.7106266  29.8063540  16.0288131
  64.0591002  31.1535478  15.8017397   3.8095650  49.1309214   1.9358550
   3.7582105  50.0742626   2.0898192   3.0414498  48.7733793   2.3812689
  40.4195452  25.3433776  51.8420649  40.0846720  26.2399960  51.8292665
  40.2718878  25.0198507  50.9533787  55.4765415  76.1433983  32.1376944
  54.8600960  76.8287373  31.8797469  54.9679708  75.5655813  32.7066541
   7.6580918  11.4159000  54.6646118   6.9563258  11.9869637  54.9770880
   8.0911702  11.1104679  55.4617214  11.2603128  17.9435933  28.7384081
  11.5602279  17.9686916  29.6470618  12.0578432  18.0501151  28.2199192
  76.3522053  70.5831718  47.2022343  75.8964491  69.7420597  47.2346163
  75.6527185  71.2359047  47.2321367  12.9680622   5.8956414  61.0489559
  12.5762212   5.1551938  60.5858898  12.2292101   6.4693654  61.2518644
  73.9524984  58.2998180  15.0018704  73.1667900  58.4907675  14.4895840
  74.6420622  58.1831884  14.3483198  16.1879349   5.7601994  29.6150327
  15.4873574   5.6178713  28.9785051  16.9898033   5.7616997  29.0923119
  33.9881778  66.0579967  39.0672231  34.6610594  66.7175674  39.2358303
  34.1808748  65.3551769  39.6878219  62.5617743  24.9436259  35.4137254
  61.7069054  24.5361400  35.2744865  62.7080631  24.8769236  36.3573241
  24.1287637  25.9658480  21.0248971  24.5522928  26.8225956  20.9716105
  23.8026619  25.9153438  21.9234180  50.4228640  25.6823158   8.0770111
  49.9281502  25.8759665   7.2807765  51.2205935  25.2548552   7.7653396
  81.2000942  20.1391029  14.8721993  82.0066452  19.7193539  14.5730042
  80.5465508  19.8972452  14.2159843   9.5374501  78.3783722  38.4816480
   9.4824469  79.1623974  39.0280032  10.1557159  77.8096151  38.9404464
   0.0781341  11.5470791  20.7683849   0.2258737  10.6114495  20.6305361
   0.7987087  11.8223941  21.3351369  64.6121120  19.2028487  12.7917993
  64.4221067  20.0297618  13.2349062  65.0577354  18.6735570  13.4532392
   8.3853066  28.5212684  19.5711899   8.8263172  28.2537675  18.7648487
   7.9717886  29.3563318  19.3523192  37.7907705  47.4355745  31.6470432
  38.2167959  46.9047451  30.9740281  37.8875160  46.9255209  32.4512291
  16.2086189  32.7863002  52.3287153  15.9385097  31.8925142  52.5394726
  16.2920272  32.7927542  51.3751793  30.4021001  41.8972874  58.2105732
  29.9514699  42.6974344  57.9405308  31.2861705  42.1853638  58.4378624
  22.1990681   9.1217518  13.2364523  21.6266251   9.7207153  13.7158108
  23.0200505   9.6036428  13.1364644  13.8338470  24.3816566   4.6065050
  13.2329309  23.6366224   4.5989442  13.5548759  24.9218845   3.8672078
  19.6655560  30.2991915  33.1177235  20.2749252  30.6411099  32.4635100
  18.7984169  30.4792738  32.7545810  80.1522923  20.0816345  30.9547877
  79.7275877  20.8520389  30.5775142  80.6774712  19.7231865  30.2392983
  14.3592834  56.7943048  24.7249985  13.9754653  55.9427977  24.5155907
  14.3812585  56.8183804  25.6816435  34.5904565  17.8274095   6.6648531
  34.6810412  18.2422352   5.8069801  35.1227117  17.0341134   6.6046989
   8.3768874  17.7787077   4.8878199   8.8421130  18.4011805   4.3289584
   7.6642466  17.4506497   4.3394110  46.5248346  73.1733370   8.4592903
  47.2899437  73.2364702   7.8875792  45.8109140  72.9150152   7.8763497
  76.7497921  28.1473327  17.4532497  77.6379490  28.4531474  17.2691667
  76.1853361  28.8669324  17.1707618  63.9842176  57.4294901  47.7323055
  64.8902512  57.1223354  47.7637196  64.0487814  58.3778524  47.8448677
   2.9101872  25.4818296  22.5715065   3.0061010  25.2891564  23.5041952
   3.0815446  24.6470356  22.1356297  78.5607433  40.5941629  51.1487675
  77.6623821  40.5803013  50.8186293  79.0807199  40.9209251  50.4145479
  66.7561007  19.6650958  47.6533222  66.8315506  20.6184483  47.6126003
  65.9283304  19.4713378  47.2134590  79.0411901   8.5826039  56.6150284
  79.3887806   9.3444395  56.1513233  78.5319757   8.9528525  57.3360300
  37.0215082  26.4097786  17.1504831  36.1291695  26.6388917  16.8907356
  36.9184995  25.6360173  17.7044809  71.3885736  67.3426533  58.4306002
  72.1032858  67.9167223  58.7060308  70.6017399  67.8805542  58.5188580
  41.5755415  69.4750500  16.3168573  42.0181370  69.7002459  17.1351659
  42.2116995  68.9428234  15.8390820  41.8577909  24.2383957  26.5775871
  42.6255894  24.1416717  26.0142350  41.9260025  25.1277876  26.9248056
   9.9371302   6.9478559   0.6294153   9.7123647   6.3708943  -0.1005348
  10.3073859   7.7266419   0.2139214  19.4534981  22.2706985   1.1121517
  18.7000334  22.5802803   1.6148271  20.1992440  22.3903656   1.7001782
  48.0435906  71.5555326  -0.2065724  48.6383973  72.1468536   0.2547056
  47.2041116  71.6635243   0.2404673   5.5335456  53.2402802  25.3094578
   6.3722408  53.3331919  24.8575830   5.1886779  52.4011707  25.0041938
  17.4442470  78.0621815  55.5230904  17.7449346  78.8663626  55.0998688
  18.1653547  77.8112936  56.1004019  49.6089268  29.8793864   5.6845468
  50.4357815  29.9781895   6.1565429  48.9351463  30.0216413   6.3493884
   7.0398802  32.0143986  17.5613105   7.9758054  31.8555284  17.6839340
   6.7658448  31.3528228  16.9261301  78.4265280  24.8709440  18.1742537
  78.8204956  25.6836557  18.4913111  78.5174561  24.9160933  17.2224522
  21.4063072  61.2233162  49.6380043  22.0344448  61.1378813  48.9208031
  20.6960821  61.7509747  49.2727804  48.0256987  78.2961369  18.4362149
  48.1128216  77.9335642  17.5546360  47.6139116  79.1501141  18.3043551
   1.7007031   1.3861373   6.2476122   2.2004671   0.6061755   6.0065162
   1.5139736   1.2723686   7.1795034  68.6416578  60.2127171  31.3117719
  68.6548996  59.8278904  32.1881080  69.5251846  60.0678587  30.9731984
  41.9691229  32.5209737  24.3682361  41.7255306  32.0381093  25.1580048
  42.7767324  32.9766512  24.6056414  72.5120020  13.6526954  62.2332001
  72.8330517  12.7596533  62.1081591  73.3047104  14.1829908  62.3146486
  29.2926645  17.9747307  42.0086336  29.0445733  17.0502460  42.0117664
  30.0630379  18.0140626  41.4418793  80.7642174  26.4665365   0.9369964
  80.9286499  27.0521474   1.6760854  80.7656670  27.0409751   0.1713268
  74.4324160  25.9167266  64.0122747  75.2275658  25.6225157  63.5679722
  73.8063383  26.0719180  63.3050442  16.6081667  36.5733814  30.2288795
  17.3509133  35.9696054  30.2249861  16.3080990  36.5898204  29.3200779
   3.2619047   4.5931116  34.1074133   2.9285374   5.1788926  34.7870898
   3.8822353   4.0248930  34.5640874  79.0859604  15.8637583   3.3084840
  79.2033195  15.3906322   4.1322619  78.1781006  16.1660945   3.3331591
   8.8951260  10.6124043  48.5478973   7.9690480  10.5521858  48.3134079
   9.0425515   9.8701173  49.1339922  80.1335144  42.0019245  22.1633148
  79.6456051  41.2353611  21.8623948  79.5311165  42.4518919  22.7556634
  17.5233078  10.0420368  50.3850460  18.2036495  10.5681527  49.9648428
  17.9959536   9.4987345  51.0156488  78.5366412  29.3806608   0.0223667
  77.7996274  28.9342268   0.4391844  78.1681296  30.2042921  -0.2971094
  68.8090038  68.3188915  18.3843541  68.2951450  68.9427996  17.8716004
  69.7186089  68.5743332  18.2307279  73.9903784  56.5605593  54.5981216
  73.6198759  56.7501688  55.4601002  73.5563803  55.7528877  54.3232727
   6.1179745  32.6145673  30.4074907   5.9218007  31.8387270  29.8823071
   6.0741329  32.3080420  31.3132238  65.0638199  66.6564846  10.8967340
  64.8547363  66.2472343  11.7363954  64.7800112  67.5652409  10.9959507
  78.4285831   7.5102431  12.9559970  78.4388161   7.8953880  13.8322330
  77.6204014   6.9980472  12.9289269  15.4338050  69.1304111   1.7567608
  15.7396066  69.8558998   2.3011732  15.9548688  68.3801365   2.0427835
  27.5097370   5.2457696  26.5421343  27.8290629   5.6930983  27.3258185
  26.9662070   5.8973521  26.0991383  22.5694704   1.8533999  50.9282112
  23.1536007   1.1040625  51.0444736  21.8858385   1.7285654  51.5864658
  73.5049820  43.4361601  34.1930270  74.2881441  43.6835194  34.6846628
  72.9356003  43.0225277  34.8418283  36.9330955  11.3092685  25.2996302
  37.1250010  10.4244912  25.6103897  36.2772822  11.6414523  25.9126496
   0.1569498  17.3852444  23.5537887   0.5984754  16.7383635  24.1040897
   0.3030270  17.0781803  22.6590228  70.3122234  29.4672441  32.3913097
  69.8522234  28.6430860  32.2319460  71.2399912  29.2341852  32.3571968
  79.0865231  50.9246874  24.1491413  79.7541285  51.2258816  23.5328484
  79.5825338  50.5186701  24.8600245  81.8133068  57.8350925   5.0427628
  82.7076912  57.6765490   4.7408170  81.8538094  57.7051783   5.9902394
  45.1934481  11.4220297  14.2719531  44.9518871  12.0032787  14.9930859
  44.3572998  11.1436713  13.8983130   9.6731591  66.3248205  30.0533032
   9.9097139  66.4707184  29.1373396  10.4840553  66.0269785  30.4655766
  18.5891080  49.6226692  16.0544097  18.8032031  48.9563656  16.7074287
  18.2840919  49.1251421  15.2956843  24.4767570  19.6954787  36.3363338
  23.6215162  19.2979932  36.5000415  24.2979956  20.4006863  35.7142735
  13.9589393  56.9527006  55.8603859  13.1583810  57.1405220  55.3704262
  13.6540616  56.7211723  56.7376995  69.2279863  27.8139377  20.2550244
  69.4859123  27.0059752  20.6987596  69.9214029  28.4375310  20.4707527
  75.9463596  40.3659058  47.3596144  75.3294802  40.7862473  46.7604446
  76.1580658  39.5323038  46.9394732  83.0106068  31.9445229  39.6613884
  83.9462471  32.1399379  39.6102571  82.9538059  31.1999655  40.2602530
  67.0311832  55.2038860  51.1403322  66.8814611  54.4989252  51.7702913
  67.0379210  54.7667360  50.2888107  23.8431716  20.9091258  23.9734221
  24.7623420  20.7054353  23.8006043  23.3759713  20.5766368  23.2069969
  24.8111773  63.6737967  54.8117256  25.7581997  63.8093805  54.7801304
  24.4723654  64.1768551  54.0712070   4.0867200  39.0409303  10.2310264
   4.0660447  38.0843854  10.2597547   4.9995983  39.2550969  10.0386250
   8.6938250  17.1394622  28.3276391   9.5285070  17.6050162  28.2747507
   8.9172554  16.2260890  28.1485844  15.6605566  46.5217161   4.9053049
  15.1958156  47.3436213   5.0625277  14.9690318  45.8620882   4.8513111
  63.5054970  23.7839317  65.9357262  62.7615643  24.2227912  65.5231667
  63.6873198  23.0354810  65.3673983  76.2268686  61.1521101  31.2676930
  77.1447945  61.2038851  31.0012984  76.2326479  61.3908768  32.1946168
  43.9776182  14.9556756   8.2570714  43.0535460  14.9749982   8.5059774
  44.3505669  15.7399082   8.6597091  21.5286589  40.6989193  37.7300549
  22.2648001  41.1980915  38.0838323  20.7558632  41.0915089  38.1361198
  15.6924903  39.6578383  26.9883370  16.1169124  40.2629566  27.5965548
  16.3590896  39.4777203  26.3254380  10.5473626  20.2274370  10.9374046
  10.6468463  19.7084010  10.1393211  11.4152181  20.2148819  11.3410151
   0.0742171  77.9858446  62.5994682  -0.0887659  78.1477308  63.5286951
   0.6521532  77.2229147  62.5870323  83.1115246  25.6334734  36.9607472
  83.5233498  26.4822531  37.1226406  82.4300861  25.5664206  37.6296067
  23.6312914  44.1810751  49.5239353  23.7041330  45.0817347  49.2081213
  24.0322208  44.1988087  50.3929424  81.2938023  17.0929587  23.9682722
  82.1415901  17.4894381  23.7675357  81.5084743  16.2143314  24.2815828
  73.4213400  29.3498659  38.2510567  74.0114880  29.3160319  37.4981880
  73.2180548  30.2794981  38.3544493  77.2121286  41.1509752   8.9780289
  77.8013086  41.8762493   9.1855711  77.3107958  40.5446577   9.7121102
  19.6260381  47.4800396  17.4701977  19.5158935  46.8096972  18.1445456
  20.3822517  47.9899597  17.7606320  25.9086156  41.4777470  12.1323168
  25.8247423  40.5569649  11.8846190  25.4216743  41.5502596  12.9532075
   3.0855358  17.6137400   5.7430857   2.3002964  17.1056640   5.5393946
   3.4452993  17.1953785   6.5252471  39.6351457  27.9600477  51.4340734
  38.7998414  28.3958912  51.2651348  40.2803850  28.4886360  50.9645128
  71.8551159  56.2778330  44.9510288  72.3471498  55.4659986  45.0737572
  72.3899937  56.7931223  44.3471956  39.3841815   0.4850988  -0.3462707
  39.0995479   0.0992702   0.4821929  39.7838879   1.3185239  -0.0975354
   1.2808730  30.7181811  41.5482616   2.1684034  30.5433416  41.2352848
   1.2284671  30.2609849  42.3875809  23.6376786  18.1269014  42.0312834
  23.6848640  17.9692876  42.9742336  22.7030420  18.2297707  41.8521166
  52.2416830  76.9949341  49.9794626  52.1541214  77.1574163  49.0402269
  51.8696404  76.1223030  50.1072836  10.6712759  20.5468941  65.0901413
  10.4534698  21.1022687  64.3415737   9.9254847  20.6404591  65.6828260
  80.8470917  43.3589888  32.3152351  81.0697174  44.1479445  31.8210483
  81.6361904  43.1618595  32.8199124  20.4036283  78.3883142  52.2330523
  20.7697392  77.5743866  52.5790501  21.1626601  78.9575863  52.1064520
  19.9532425  14.9703038  30.1016545  19.5605540  14.1041052  29.9933577
  20.3377128  15.1674676  29.2475224  37.8003550  78.6160040  48.6017752
  38.4777546  77.9674292  48.7933731  37.0725155  78.3790970  49.1765404
  16.2961483  56.2951040  49.4182920  15.7530510  57.0025253  49.0706921
  17.1078360  56.7258644  49.6863222  76.4759588  43.9952087  43.8922501
  77.2102213  43.8844252  44.4962502  75.9949875  44.7482538  44.2355061
  79.1362047  41.3952208  30.7313657  78.9925146  40.5720377  31.1982203
  79.6297503  41.9368505  31.3472247  29.0487289  52.6742268  33.4762454
  29.4374418  52.4674177  32.6263237  28.3224678  53.2628584  33.2706022
  75.8600426  73.6853218  10.6610584  75.0850105  73.9504862  10.1658380
  76.4304876  74.4537497  10.6426942  18.1093156  12.5743556  61.8348408
  19.0295732  12.5864935  62.0979214  18.1273592  12.7417159  60.8925581
  77.6789761  29.2617702  13.1296504  77.8330660  28.4790397  13.6586332
  77.8088665  29.9904346  13.7366164  70.1677036  39.9791002  54.4633055
  70.1140785  39.6300197  55.3529644  69.2749500  40.2595186  54.2618322
   4.2330769  54.7390652  40.7648134   4.0831915  54.0730143  41.4357424
   4.8385155  55.3580713  41.1728668  29.3676972  24.6680212  30.7120180
  28.8605595  25.1515055  30.0598764  30.2470970  25.0419927  30.6569552
  57.7528954  48.4193563  44.3108416  57.2166872  48.8475037  43.6434603
  58.2384348  47.7469969  43.8329124  68.0654287  69.9940968  64.1419649
  68.1142092  70.9342957  64.3148088  67.1371746  69.7808647  64.2374182
  72.1235704  47.6853943  16.8396270  72.0483255  46.8371296  16.4025664
  72.6190424  47.5006151  17.6374972  79.1516972  29.3947268  23.9149237
  78.8016796  30.2681899  24.0903759  78.4190798  28.9167404  23.5262966
  80.1855755  69.5218945  28.3934283  79.4635916  68.9729643  28.0874085
  79.7883463  70.3803873  28.5398340   4.0717283  14.0580010  18.2705927
   4.4707069  13.3077061  17.8300178   3.2076466  14.1409409  17.8672123
  62.8517962  26.4190650   5.6221783  62.8392315  25.6103468   5.1102716
  63.0059433  26.1307073   6.5218008  15.6609988   4.9487650   0.7635211
  15.1371920   5.1811665   1.5302333  15.0170374   4.7074491   0.0977040
   4.2914057  66.6540956  43.8908339   4.8619521  66.1985016  44.5098162
   4.7310910  66.5598822  43.0458260  35.5503416  27.1634293  42.6063299
  35.0111437  26.6440463  43.2027674  35.5162024  26.6874242  41.7765760
  34.0525222  38.7695980  67.1079254  34.4689822  38.4075308  67.8900385
  34.1633987  38.0912709  66.4417362  71.3545656   5.7642645  56.0937786
  70.7337904   6.4850968  55.9876060  71.0561562   5.3048414  56.8787050
  73.4993076  53.4213305   8.3844095  73.1189919  54.2790174   8.1947780
  73.8887548  53.1434155   7.5553566  33.3587599  60.1533127  65.1261616
  34.3000078  60.1264524  65.2980947  33.2329226  59.5565510  64.3884134
  21.6321047   0.4586283  41.2934780  20.8094652   0.6250683  41.7536831
  21.5237100  -0.4149326  40.9174776   8.5217774  53.7632751   9.3956280
   9.4362640  53.4806824   9.4049424   8.4687293  54.4255972  10.0846481
  11.9530380  24.2648816  35.2176166  12.2515869  25.0433469  35.6878185
  12.7147150  23.6852741  35.2060175  43.3436108   2.7697173  32.8686047
  43.0523872   2.2436765  32.1238208  43.9532614   3.4034103  32.4904656
  82.3101425  35.7757664  33.7993121  82.3861122  36.6643357  33.4515953
  82.5701523  35.8546925  34.7171330  65.3286314  64.0247202   1.6010006
  64.8009109  64.5984364   2.1565129  65.8205032  64.6225834   1.0381033
   3.1751248  12.8736281  27.4858189   3.5056973  13.6964905  27.8461671
   3.8144407  12.6315951  26.8157983  61.6030884  29.2229915  43.1150389
  60.6811476  29.1114044  42.8830767  61.8002129  28.4754920  43.6794996
  13.6236286  25.9402490  36.5430951  14.1013992  26.7682076  36.4935732
  14.3012273  25.2680254  36.4709187  81.4757919  72.7701616  11.4255154
  81.9104671  73.6057520  11.2549973  81.2790680  72.4207592  10.5563498
  78.7910461  32.3714542   4.3083030  79.4935846  33.0200553   4.3528801
  79.1133022  31.6333747   4.8256212  64.0096426   4.9952692  28.6741734
  64.4571495   5.7083958  28.2187390  64.4461918   4.2018357  28.3641410
   0.4146136  48.3656263  16.9576812   0.9906651  47.8667307  16.3784587
   0.0111700  49.0206289  16.3880873  22.2943187  57.8675842  32.3982716
  21.6276765  58.4819460  32.0910645  21.8724895  57.3957777  33.1163883
  30.8933473  68.8525486   9.3905306  30.7541943  68.6762667  10.3210104
  30.1528955  69.4040346   9.1378874  74.7085428  44.4685125  27.9837847
  75.0177383  45.3726196  28.0405831  74.8687220  44.1054344  28.8548446
  48.7033367  77.4730301  35.7134891  48.3518887  78.3042240  35.3943801
  47.9336929  76.9826937  36.0023737  75.8907747  34.5274472  45.5728531
  76.6439152  35.1161432  45.5232906  75.8957386  34.0612769  44.7368574
  68.2436371  30.1353765  25.4787827  68.7790537  30.6758618  26.0596776
  68.7883854  30.0059700  24.7024202   6.8573916  16.4934492   3.3379224
   6.2025625  16.2588716   3.9954960   6.3530767  16.6306174   2.5359976
  39.3220854  32.0532417   9.6088547  39.3340683  31.1045957   9.4817466
  40.1831579  32.3458076   9.3101996  32.4399590  63.8415575  17.5761509
  32.9186940  63.3589697  18.2500589  31.5415978  63.5178232  17.6423132
   7.7072334  56.7419386   1.3263728   8.5467571  56.9843960   0.9356755
   7.0943689  57.4044132   1.0073823  31.8315721  51.2794256  20.2393913
  32.0787477  52.0080709  19.6699953  32.6459503  50.7953405  20.3760791
  22.6509929  54.3766499  55.3613234  22.8599072  54.7334099  54.4980097
  23.0047798  53.4873819  55.3450108  78.4299564  27.7441955  21.8712282
  78.9383173  28.4761238  21.5218234  79.0490389  27.0147157  21.8999958
  18.7141693  41.6300154  37.1884084  18.0879629  41.0797739  37.6588655
  19.0457022  42.2359610  37.8510904  75.8590317  42.3699045  26.1806393
  75.4772520  41.6190338  26.6352510  75.8703327  43.0667400  26.8367791
  70.2408648  29.1502690  12.3325670  69.9485159  28.7488794  13.1508899
  70.5886269  28.4211802  11.8190300  24.6223021  62.3201752  16.1501622
  24.3137360  62.4513912  15.2536118  25.5540800  62.1221972  16.0562110
  33.8237977  53.8263273  28.8323522  33.5622382  54.5322609  29.4235134
  33.4334350  54.0617609  27.9906750  70.2571249  25.0196981   8.0165797
  69.8647881  25.6103325   8.6595815  70.2129173  25.5013895   7.1905953
  22.8453779  59.9765825  16.0094070  23.3718872  60.7351160  15.7571280
  22.4561286  60.2235270  16.8482947  21.5986156  55.2310848   1.7918763
  21.1287904  55.8699179   2.3279613  21.1716056  55.2760649   0.9363827
  79.5009518  28.9085317  26.7933846  79.3970156  29.0042520  25.8466697
  79.1944695  28.0210209  26.9794607  14.2671025  37.6476860   7.3225647
  14.4009471  37.2882175   6.4455807  13.3602285  37.4277472   7.5357282
  79.0180302  11.9664145  16.9086754  79.3965387  11.9388342  16.0299253
  78.1490564  11.5779984  16.8074632  83.3240795  71.9337225  61.6097641
  83.3684731  71.1467361  61.0667086  82.4032593  71.9982862  61.8630791
  77.9474354  57.4484921   5.9719527  78.2672644  57.8519249   5.1649934
  78.2238579  58.0478096   6.6652369  12.5538051  64.6864748  39.6653509
  12.3368621  65.6025028  39.4919777  13.4753215  64.7033405  39.9237204
  10.9216940  39.5871305  26.6450262  11.7625856  39.3843770  27.0549345
  10.3844976  38.8109636  26.8038225   8.8650680  48.9631939  18.1243682
   8.2443202  48.2796049  17.8721499   9.7258264  48.5727453  17.9731083
  27.0747066  55.8028507  35.5923033  27.1986270  56.7515135  35.5619907
  27.8842354  55.4438257  35.2289915   6.7895889  69.0268135  10.7166874
   6.6257274  68.5211897   9.9206179   7.5742602  69.5379400  10.5185199
  65.3744555  38.6279035  40.5630827  66.1965799  39.0752697  40.7636070
  65.6386328  37.7433252  40.3101683   2.7923778  27.8759813  19.6283412
   2.2899367  28.6630464  19.4178319   3.3419958  28.1335211  20.3684950
  50.1288223   3.3769161  67.9053974  50.1333952   3.3926734  68.8624573
  49.2824554   3.7530476  67.6637030  28.7381172  56.9474936  19.6566415
  29.0276408  56.8880844  20.5670691  29.2402959  56.2718678  19.2010379
  10.5083811  53.1462860   3.6088961  10.8012640  53.0715322   4.5171157
  11.0250473  53.8673353   3.2492039  30.5093169  49.4595480  14.9775112
  29.7764659  49.1793823  14.4291806  30.7379627  48.6822557  15.4871833
  13.4753537  65.7289410  48.0202103  13.9466810  66.3187265  48.6086273
  13.8811457  64.8738003  48.1626749  75.5821514  49.3589592  28.5825062
  76.3265562  49.3251514  29.1832995  75.6234312  50.2350283  28.1990576
  53.0278587   2.9361308  35.0911856  52.5568342   2.5250268  35.8160043
  52.4455214   3.6346981  34.7926641  14.4675016  24.4371343  16.5767932
  14.6134019  23.6154413  17.0455849  14.7526073  25.1158237  17.1886158
  34.6210575  53.3900023  37.5930357  33.7222958  53.5836935  37.8593779
  34.5277143  52.8773212  36.7901158   5.9292507  53.6785221  50.0530195
   5.5729151  53.8486242  50.9249830   6.5604371  54.3838596  49.9104357
  80.4485130  78.1161308  53.8824558  80.8436489  77.6123428  54.5940065
  80.6165504  77.5945282  53.0976486  78.4252787  60.4210234  29.1886377
  78.2951641  59.6132803  28.6917973  79.0757370  60.1917934  29.8524070
  34.4919372  24.2591619  63.1794357  34.9808836  24.9200630  63.6697149
  33.9154267  24.7641754  62.6060009  81.0247040  78.7736893  33.9559770
  81.6361237  78.3100462  33.3837533  80.1611042  78.5778713  33.5925388
   9.8207968  55.4929352  11.3057041  10.5930030  56.0506964  11.3996828
   9.9803883  54.7606277  11.9010913  -0.0036600  28.6557460  37.0712519
   0.9253142  28.8472128  37.2000170  -0.3102663  29.3434453  36.4802384
  81.5481663  57.1526384  38.4727478  81.6580582  56.6355276  39.2707133
  82.0963478  57.9251289  38.6105537  68.2467556  63.6165619  48.6989641
  67.6109791  63.4374571  49.3917418  68.7345600  64.3780899  49.0125799
  11.7923772  38.8013721  44.6591473  10.9467995  39.1747642  44.9077606
  11.7641616  37.9034638  44.9895954  69.8894835  68.4198523  37.7761054
  69.8524380  69.3502998  37.9977489  69.3464422  68.3386040  36.9920540
  54.6054506   2.5702184  43.2341623  54.3603373   1.7174277  43.5931873
  54.7095299   3.1323525  44.0018892  78.8705444  51.9192934  28.3322906
  78.5823727  52.2295523  27.4738431  79.2299271  52.6967239  28.7596917
  76.8521070  61.4959049  45.3584719  77.6802921  61.0180426  45.3138828
  76.3273907  61.0071182  45.9925032  28.6247563  35.6528568  43.0602932
  29.3535805  36.0018253  42.5471973  27.9214263  36.2913203  42.9423046
  79.4191980   5.0511181   4.8082128  79.2008877   5.9441012   4.5414636
  78.6832333   4.5223790   4.4999471   1.8385635   8.8050163  56.0030508
   2.1738473   7.9085410  55.9908342   2.3602298   9.2648220  55.3452730
   7.5950265  59.8118591  49.4308567   7.1414101  60.5569696  49.0368080
   7.0456111  59.5627165  50.1740265   1.1968641  41.0675287  36.3498998
   2.0007853  41.2375212  36.8408632   0.4982571  41.4069414  36.9093418
   0.7914211  47.1527719  26.9008923   0.8068746  48.0096197  26.4745140
   0.7940584  47.3511314  27.8373098  40.5410957  50.1094675  32.0521092
  40.9215117  49.3919754  32.5587869  41.2573385  50.4160547  31.4960241
  27.4726009  39.4905329  25.2665377  27.9398966  40.3258896  25.2731466
  28.1400204  38.8409853  25.4876065  15.8361661  15.0723290  43.3903217
  15.2577889  15.0208259  44.1512823  15.7823288  14.2048013  42.9894114
  11.1719406  54.7957802  23.0400133  11.4098871  53.8798046  23.1835508
  10.2155173  54.8035336  23.0777717  66.6483307  52.4748564  29.8741078
  65.8995867  52.8975773  29.4534874  66.4090490  52.4298048  30.7998228
  27.0834231  60.5706978   6.9688296  26.5618801  60.8384657   6.2121749
  27.3955560  61.3925266   7.3475081   9.2757720  49.3938637  22.1992707
   9.1197824  50.1927567  21.6956139  10.0972533  49.0475607  21.8507385
  18.7488103  54.7419214  20.3758025  18.1902587  55.5188036  20.4023194
  18.1495094  54.0108109  20.5259800  44.1103029   1.5136737  24.0708876
  44.7510242   0.9623920  23.6216760  43.4409142   0.9018898  24.3772721
  53.3148670   8.4533423   0.8368555  53.1970406   9.1882503   1.4387342
  54.2367601   8.2131046   0.9297609   6.3090396  33.2609177  33.1306100
   5.9377557  32.5319672  33.6276126   5.7782888  34.0169096  33.3816338
  58.9180470   2.7203634  26.0140014  58.5641718   2.1567298  25.3260183
  58.3703327   3.5048828  25.9862399  57.9765034  22.3684168   7.6320380
  58.7351561  21.9779015   8.0658346  58.3374357  23.0993199   7.1302980
  41.9134903  32.9731894  13.4271979  41.8350029  33.8772130  13.1225479
  41.6636372  32.4428940  12.6705003  58.2947826  56.8407488  64.3579245
  58.6561203  56.8839455  65.2432489  58.0617905  57.7455568  64.1499186
  46.9275999  25.1641893  52.1233511  46.5205050  25.9583402  51.7771912
  47.7705479  25.4581475  52.4686909  82.3771858  31.9293952   8.3954036
  82.6255417  32.5942826   9.0376449  82.9036808  32.1342921   7.6227117
  30.0574327   6.9160300  12.3740852  29.3833280   7.0811671  11.7148852
  30.7669950   7.5169408  12.1467996  47.4899054  33.7149239  19.9887216
  48.3416748  33.3499050  20.2284741  46.8772602  32.9883814  20.1028752
   3.2874638  78.0076075  67.1522427   4.1087410  77.7879095  66.7123938
   3.4268263  78.8914871  67.4921942   4.5691481  45.6269646  47.6522064
   5.4255146  45.8454084  47.2845793   4.6369809  45.8668518  48.5763741
  27.3210931  41.7784595  55.3230000  28.2006836  42.1047592  55.1330519
  27.4030781  40.8260584  55.2735329  36.3522077   9.0671402  30.2840352
  36.9996023   8.3900315  30.0874758  36.6521239   9.4536489  31.1067700
  48.0035591  27.1080971   4.0804970  48.2658148  26.3375497   3.5768002
  48.2350349  26.8936729   4.9841964  18.5765839  33.2114625   7.6139641
  18.2863486  32.8104091   6.7947263  19.5021772  33.4081221   7.4696225
  10.9269702  46.7697620  13.0174446  10.0861585  47.2057533  13.1559432
  11.4850438  47.4435425  12.6291037  15.8999181  32.3154020  10.8683121
  16.1448324  33.2391143  10.9231544  16.5809846  31.9188833  10.3250313
  71.9769859  41.8025875  36.0201502  71.1881447  42.1864700  36.4030266
  71.6507578  41.2135267  35.3398466   3.4570658  41.0096073  14.9236000
   4.1484910  40.4450512  15.2691984   3.4654796  40.8484364  13.9801049
  14.5720947  61.7123652  43.5171509  14.7553587  60.9088469  44.0039873
  13.6831105  61.9529724  43.7780094  23.2276511  66.2607336  48.0794239
  23.0812478  66.3862419  47.1418476  23.5976100  67.0917320  48.3774233
   7.4054730  39.6091270  13.5813022   8.1610924  40.1511002  13.3542907
   7.3344809  39.6837020  14.5329475  25.0215483  25.2867794  44.5760250
  25.9504461  25.3852606  44.3670130  24.8291516  24.3687201  44.3852806
  19.1869462  61.3711262  51.5889263  19.3205214  61.8662214  52.3971796
  19.7378278  60.5948544  51.6897345  26.5578413  43.9081430  30.1481247
  25.8869171  44.5743895  30.2971673  26.9085789  44.1112280  29.2809606
  17.8241384  67.6088190  18.4892297  18.7352133  67.8847790  18.3891332
  17.6572120  67.6702976  19.4297552   4.6782434  40.4645967  28.7702131
   5.1674771  39.9679136  28.1143284   5.0720906  41.3368464  28.7529993
  47.3350763  26.2168384  64.1086388  48.2777739  26.3098288  64.2461634
  47.2515106  25.4639363  63.5235023  33.9117551  34.2360806   4.6179348
  33.2627559  33.6877847   5.0588465  34.6110106  33.6298847   4.3733975
  27.5549865  29.0511465  40.1175976  27.6694536  28.1052232  40.2090168
  28.4348965  29.4108462  40.2298689  80.5072117  16.8285799  55.8216619
  80.2359200  16.2815070  56.5587807  79.6868086  17.1458173  55.4441357
  27.7869463  27.9292059  45.2664185  28.3264112  28.4579897  44.6785402
  27.5027966  28.5407710  45.9457397   7.8083372  16.1502707  61.7688084
   7.7552468  15.2048826  61.9090128   8.5425669  16.2619877  61.1649418
  14.5103848  67.0410013   3.8925573  14.8984826  66.7544746   3.0658081
  13.7922478  66.4269161   4.0455729  51.5509701  57.8782940  33.3384609
  51.8866444  57.6134062  34.1948438  51.0953188  58.7035275  33.5046053
  40.4191685  27.0863509  54.5350456  39.8014760  27.4305081  55.1802111
  40.2133799  27.5608063  53.7295771  10.6323159  45.5523252  38.8743091
  11.2497163  46.0889578  38.3772469  10.3311467  44.8927689  38.2493949
  72.9907703  61.9370890  52.6960325  72.6309299  62.7433968  53.0656481
  72.5357389  61.2358952  53.1624126   3.0642331  78.5066462  33.3634043
   3.4437278  77.6359797  33.2444525   2.1488644  78.3402395  33.5884404
  12.3732018  29.6190572  65.2450085  11.6532457  29.3375850  64.6805000
  11.9609022  30.1925945  65.8909893  65.3800106  62.8406620  65.4424000
  65.6112385  63.4573364  66.1370039  66.2213564  62.5273752  65.1104021
  40.3283548  35.4060721  29.2853594  40.7732725  35.6175399  30.1060653
  39.4227123  35.2320695  29.5418096  18.7323010  59.8491335  15.4987121
  19.6001351  59.6732330  15.1351786  18.5334182  60.7435560  15.2218008
   0.1767395  49.4332933  51.0911512   0.6622839  48.6734056  50.7701445
   0.7960607  49.8903513  51.6601610  79.4763565  45.4095507  24.1600490
  79.9478245  44.8376083  24.7657204  79.2293930  46.1676693  24.6896648
  43.9327145  73.4301424  53.0352402  43.1541061  73.1957102  53.5402584
  43.6813974  74.2233086  52.5619936   4.3999273  42.4125814  19.3340325
   5.3313625  42.6244736  19.3953753   4.1416034  42.7179193  18.4643936
  56.9841576  61.7160082  54.4902134  57.2045660  62.6461411  54.4401598
  56.0404634  61.7017365  54.6498013  82.4896336  50.1139164  32.6344252
  81.6975594  50.1468134  33.1708646  82.6675510  51.0281658  32.4136877
  16.0246778  60.1519156  22.2181129  15.7406652  60.6718731  21.4663053
  15.5792081  59.3115950  22.1101689  11.9271040  36.3357282  62.2682190
  11.6296864  35.9669900  63.0999660  11.9806695  35.5837679  61.6783714
  32.1103930  62.8031015   8.2516032  33.0110073  62.4997997   8.3661914
  31.6304064  62.4088860   8.9799130  55.9623432  52.9990292  26.2887430
  56.8199110  53.2555914  26.6278315  56.0819197  52.9598618  25.3398490
   7.7498585  40.9331799  51.2871838   8.6531734  40.9132528  50.9711838
   7.6751024  40.1608658  51.8476963  12.1851659  44.5338774  32.0573568
  12.2701693  45.4490376  32.3247361  12.8131199  44.4340801  31.3418531
  20.7197261  40.5898094  34.7577882  21.3152266  39.8884034  34.4938922
  20.6408048  40.4926205  35.7067657  25.6280303  30.3793526  52.3645449
  25.6290841  31.2132239  52.8345346  25.0751138  30.5365062  51.5991592
  28.3668447  30.0973010  18.8836253  28.3933663  31.0532379  18.8422596
  27.6507926  29.8519826  18.2976866  70.3677130  49.9089956  17.1563447
  70.8816147  50.5600786  17.6340771  71.0071898  49.2494583  16.8874264
   7.7438414  74.9421310  23.9276290   7.9312766  74.1650772  23.4010410
   6.8723774  75.2188683  23.6444378  25.5183721  67.8190947  33.7953377
  25.1566482  67.4166918  33.0057430  25.0522804  67.3945427  34.5155787
  32.7950406  74.5404005  14.3234527  33.0383134  73.6211538  14.4331419
  32.3242164  74.5658016  13.4904397  31.2547159  44.6602726  11.2626684
  31.4348483  43.8363171  11.7153072  30.7303619  45.1652956  11.8841505
  51.5460777  54.6846962  11.5971315  50.7830954  55.2125311  11.3615906
  52.1347713  54.7664833  10.8468091   9.9576020  33.6404014  30.4681373
   9.6445298  33.6403465  31.3726926   9.1970056  33.3744502  29.9514222
  25.2583981  37.8550124  60.3678560  26.2064171  37.8266573  60.2386808
  25.1040554  38.6795163  60.8289480  26.6008139  66.9036770  23.2838583
  26.9782639  66.3704109  23.9834213  27.0138407  66.5772295  22.4844384
  24.7517157   9.3905878   3.3301139  23.8433123   9.1527247   3.1444997
  25.1302695   8.6033314   3.7214664   6.8728966  35.3319883  15.5684209
   6.0295653  35.5213141  15.1571059   7.3113161  34.7419667  14.9553204
   9.0068597  64.0846729  22.8962946   8.3397084  64.3616724  22.2682738
   9.0397745  63.1322813  22.8063130   5.7575202  36.0091925  27.8205776
   5.1219040  36.3299417  27.1807790   5.2413934  35.8465624  28.6101317
  61.7020130  49.4730568  52.3179483  61.9756508  50.3556633  52.5676584
  62.2339153  49.2657804  51.5496063  32.3081040  53.7465477  45.0900316
  32.4833488  52.8347445  45.3227091  33.1298590  54.0593958  44.7117758
  15.1036096  20.7237935  45.9431124  14.8459232  21.5167594  46.4132547
  14.2827415  20.2526355  45.8002329  38.7623882  61.4796686  13.3463657
  39.4421935  61.5027380  14.0198374  39.0888333  62.0575428  12.6566374
  71.0556793  53.8089943  11.4146233  70.7731581  53.7734699  10.5007577
  70.2609491  54.0241718  11.9028187  12.3400021  68.3902311  63.4617615
  12.1266556  67.4681664  63.3185673  13.2232296  68.3772469  63.8305044
  79.1706276  34.7953343  16.0645568  79.4277143  34.7744370  16.9863486
  79.8045111  34.2276597  15.6261849  41.8167591  14.8690164  43.1947756
  41.2215233  14.1330659  43.3372688  41.7603493  15.3822160  44.0008020
  72.7595377  55.0438786  50.8540201  72.5806141  55.9388685  50.5655575
  73.3089972  54.6747160  50.1626110  65.8981705  77.1589613  61.4303493
  65.2532768  77.8502321  61.5803385  66.7360306  77.5581264  61.6646338
  70.5307388  33.7344289  31.7890549  70.7021046  34.6263599  32.0912528
  71.0009813  33.6686373  30.9579253  64.1792774   5.7346612  10.7008481
  63.8995075   6.6018361  10.4076409  63.9340019   5.7038218  11.6255760
  26.7132878  56.9138098  17.6018488  27.5924063  56.9403219  17.9795814
  26.2126493  57.5475836  18.1155884  83.2132721  64.6580362  43.2423687
  84.1690731  64.7086000  43.2315159  82.9720879  64.4875383  42.3318768
  75.4722404  27.2605944  43.2108068  74.5471954  27.3238397  42.9730558
  75.4739857  26.7859149  44.0420151  76.3632965  46.0483360   4.9950400
  76.5726089  45.4378271   5.7019341  76.1833715  45.4880476   4.2400992
   9.7932774  47.1949911  35.6964254   8.8806617  47.2655439  35.4164481
   9.7762537  47.4183321  36.6270494  42.9505110  67.7856398  44.9103642
  43.1555128  67.2823143  44.1224146  42.9981136  67.1469259  45.6217051
  40.2935886  49.3921232   8.2977843  40.1297760  50.3240204   8.1529903
  41.1505699  49.3628454   8.7231767   9.6644878  28.6229634  14.9581504
   9.3214124  27.8150630  15.3400266  10.3639293  28.8913417  15.5539572
  33.7453079  32.9050994  55.8744764  33.9020848  32.4549317  55.0444126
  33.3628654  32.2355056  56.4415836  35.2869081  18.9678764  42.0279074
  35.1330900  18.0813658  41.7012978  36.1478949  19.2042279  41.6828394
  31.1393738  29.4746637  20.0706029  30.7992363  28.6870742  19.6460533
  30.9353352  29.3539691  20.9979820  79.7027206  78.0564976  65.4636908
  80.3379250  78.0013800  66.1776257  79.4425201  78.9774704  65.4451799
  82.2496319   3.2931495  42.3416901  81.4907932   2.7211076  42.4563932
  82.4352074   3.6239699  43.2205248  23.8831568  10.6626296  43.7005997
  24.1786551   9.8791122  44.1643000  23.3398843  10.3280580  42.9870558
  81.4318371   8.0901051  67.5043821  81.2552071   8.2169038  66.5722036
  80.7035255   7.5523281  67.8151751  20.6250930  46.3263941  35.3061342
  21.4498973  46.8021393  35.2081895  20.2760196  46.2666082  34.4168639
  42.6216316  60.3726864  22.2641397  41.8363523  59.9960947  22.6613069
  42.3159218  61.1773014  21.8453670   3.4452108  54.0365553  13.0685472
   3.9843366  53.3483601  12.6787233   2.5642648  53.6632729  13.0973053
  14.9874878  29.8585987  17.6677239  15.3509974  29.3179107  16.9664752
  14.3807614  29.2783523  18.1275356  35.1540661  46.5355444  12.8100944
  34.2718720  46.4484644  12.4490094  35.1078033  46.1024904  13.6624777
  21.8464541  74.6851206  33.6358786  21.0857201  74.1748857  33.3580852
  21.6820073  75.5646944  33.2959557  72.1707678  51.0996389   3.8321805
  71.2836266  50.9808445   4.1714531  72.6418924  50.3154325   4.1137651
  20.7737160  65.9197617  44.0930319  20.5280590  65.6509209  44.9782515
  21.0984659  66.8142986  44.1958380   3.8989171  21.2087107  25.2433157
   3.4329572  21.2703180  24.4094586   3.4241712  21.8002105  25.8272457
  44.3294859  41.0308743  14.6619201  43.8402939  40.2150345  14.7683644
  43.7050581  41.6336298  14.2581797  23.7117696  62.5680017  13.6194217
  24.1134477  62.4053097  12.7659488  23.4713221  63.4942722  13.5983074
  71.3560486  23.9369106   1.2612945  70.6852484  23.2647681   1.1409439
  71.4830971  24.3075800   0.3879702   3.5266310  38.6794114  31.4822245
   2.8084913  38.3089352  30.9691405   4.3169278  38.3040237  31.0939622
   6.8737084  44.7326946  37.2744918   6.6887134  45.1636314  36.4400434
   7.7906150  44.4660044  37.2082353   6.0259652  57.3221016  24.1841698
   6.4909482  56.7205811  23.6026239   6.3832879  57.1393156  25.0531602
   6.8999237  35.8506989  44.5037556   7.8104031  35.8932090  44.2114353
   6.4446467  36.4969110  43.9639759   4.8811534  44.4523096  43.1250525
   4.4283408  45.2130890  43.4889317   5.7705629  44.5136690  43.4735060
  34.8600388  45.8112383  59.3364620  35.0870466  46.4455414  58.6564922
  34.8844147  44.9640894  58.8915110  32.8050685  25.6396985  20.2009678
  33.2441306  25.2868676  20.9748983  31.8775797  25.6534791  20.4372001
  82.7077866  16.5654218  66.9274378  82.1117878  17.0731473  66.3767672
  82.3565865  15.6753075  66.9031715  50.1403522  13.1188500   3.0393830
  49.8502922  13.6716580   3.7649882  50.1819038  13.7112749   2.2886917
  29.0873408  44.2983627   4.0970293  29.2270970  43.9715910   4.9858037
  29.3313527  45.2229118   4.1406339   9.5669746  73.8365412  37.6749897
   9.0482026  73.0324173  37.6527786  10.1841998  73.7434959  36.9493127
  29.7964549  32.9904819  16.4379120  30.1584101  32.6376104  17.2507489
  29.7497511  33.9348984  16.5866530  82.9449558  61.5590000  23.7727118
  82.3208809  62.0641184  23.2515478  83.1491470  60.7974291  23.2299852
  10.7009578  75.2237082  21.6202927  10.9532368  75.1479101  22.5405335
  10.0055265  74.5755625  21.5084243  78.9393473  32.9386854  32.5500822
  79.5578337  32.2744942  32.2458506  78.1574392  32.4437046  32.7947140
  31.3806939   4.5952255  13.2802570  31.9745493   4.8615357  13.9821458
  31.0746384   5.4186761  12.9001379  78.5357904  30.1067615  29.2212725
  79.1926956  30.0113034  29.9109077  78.8949347  29.6200991  28.4793758
  42.1154928  67.2594213  21.8539453  42.6947069  67.8094864  21.3265252
  41.2331152  67.5057840  21.5765429  49.9943638  66.1911106   7.6395649
  49.4616222  65.4085064   7.7808309  50.0443935  66.6054916   8.5009688
  27.1653104  66.4273167   9.0743685  26.3687372  66.0527611   8.6983263
  27.7384496  66.5756464   8.3222097  17.7283800  20.4559278  45.2486849
  18.2044041  20.0238991  45.9578991  16.8114173  20.4239917  45.5214357
  23.0089355  36.8575692  33.3484364  22.0861268  36.7012858  33.5490131
  23.4347367  36.9085860  34.2041945  26.9157815  59.1853380  44.4131708
  26.5137911  59.6714973  43.6932516  26.8075299  58.2656288  44.1709948
   7.7051663  52.7606773  44.9984264   7.2075123  52.8057528  45.8148432
   7.8957713  51.8295050  44.8852062   2.3894353  46.5269852  37.7621317
   2.8878605  47.2110510  37.3150778   2.3755170  46.8012428  38.6790943
  19.3627155  41.6690016  32.6888061  18.7832999  42.4022102  32.8959489
  19.7459531  41.4214420  33.5302758  17.2962749  52.3438454  27.9818082
  17.3993051  52.1493530  28.9133596  18.1743968  52.2367239  27.6162148
  58.6452627  26.7238665  14.0347886  58.2953691  27.2194982  14.7751641
  57.9798555  26.8111277  13.3522546  78.2954168  44.0984154  19.6293437
  78.3439779  43.9444780  20.5728340  79.1222477  44.5300388  19.4142175
  22.7796268  36.1241269  51.1142826  23.1026220  36.1432457  50.2134275
  22.4799800  35.2240872  51.2422371  36.4901686  14.0608597  16.5558982
  36.1729670  13.3251798  16.0320759  37.2379971  13.7071729  17.0374501
  77.0847893  75.8508205  47.7086926  77.0601654  76.8076372  47.7201366
  77.8758049  75.6257153  48.1984425  23.7419271  31.1006260  10.6257331
  23.3993626  30.4805183  11.2694335  23.6418200  30.6533408   9.7854078
  33.1335878  21.0694385  39.0797806  32.8515768  21.5378547  38.2941055
  33.4857488  21.7513919  39.6517539  79.1288471  73.1052303  15.4111803
  79.8171997  73.2271385  16.0650444  78.6329317  72.3485088  15.7237124
   2.9855469  56.3477564  36.9573474   3.2599330  55.6101847  37.5022578
   2.1331902  56.0849094  36.6100287  13.8170147  54.5460558  19.2698836
  14.0139651  55.4668999  19.0981686  13.1215250  54.5684052  19.9271715
  53.7902689  69.0725088  26.1438942  54.4596767  69.3405771  26.7733908
  52.9809237  69.0405560  26.6539621   7.2486770  63.3547115   0.6594476
   7.8613383  64.0891933   0.6217696   6.8869686  63.2989168  -0.2250217
  54.3359613   6.7503041  44.6675062  55.0920153   7.0930433  45.1440954
  54.3107939   5.8208263  44.8948145  19.0080225  71.0528517  55.3696299
  18.6256158  70.9586525  54.4972038  19.8245120  70.5549908  55.3282833
  52.9364443  59.1455698  25.2959704  53.6735868  58.5596037  25.1242137
  52.3977804  58.6731386  25.9307003   3.1385988  35.8722949  20.8773613
   2.2271690  35.6284451  20.7159162   3.5838357  35.6972194  20.0482988
  24.0460873  36.8680263  26.2993026  24.3993258  35.9880495  26.4300561
  23.8578939  36.9137287  25.3619003  66.9217682   6.6461265  28.9081120
  67.2149658   6.8948913  28.0315375  66.7822695   7.4787253  29.3592787
  22.4712586  70.6284952  27.9267907  22.8878045  70.4942703  27.0754957
  23.1121898  71.1300802  28.4306264   6.9662774  50.6896734  10.8892941
   6.5728235  50.8311272  11.7503500   6.5335530  51.3265800  10.3206766
  46.4054203  50.6863976  35.2212548  46.1987400  50.8905745  34.3092108
  45.5795336  50.8133078  35.6881952  65.6300116   0.2610708  57.5210333
  65.9811592   1.1507818  57.5576401  66.0609627  -0.1355435  56.7639256
  37.2224689  41.5044069  62.2290039  36.2736964  41.3855934  62.2731113
  37.4572635  41.2299967  61.3425493  24.9419618   2.5751340  38.2314944
  24.2522073   1.9290489  38.3833003  24.4813538   3.3413649  37.8894973
  36.0354590  74.0662766   6.4685321  36.8257904  73.7883282   6.9315147
  36.1566281  73.7464619   5.5745137  79.4549751   8.3484900  61.7501640
  80.0190544   9.1181797  61.6751719  79.8856258   7.7988064  62.4048519
   2.4494006  45.0885010  17.9263961   2.2284558  45.7353497  17.2563195
   2.8683633  44.3764353  17.4430096  44.9103928  77.0182848  64.9124527
  44.2011023  77.5322104  65.2984810  45.6629419  77.6098108  64.9137783
  80.3588772  46.5046263  21.7034507  81.1048126  45.9268761  21.5421700
  79.9983168  46.2031364  22.5373197  49.7037506  60.9140635  36.3174844
  49.5091534  60.6774569  37.2243357  49.3889809  61.8139696  36.2319231
  76.8445063  18.2963288  39.5640421  76.8487072  18.3705902  38.6097360
  77.7222967  18.5706413  39.8294926  38.4596682  65.7079554  41.6982079
  38.6337566  65.4784822  42.6110458  38.9278316  66.5321541  41.5649652
   3.5118064   3.8593870   5.0944090   2.9427946   4.2924991   4.4581139
   2.9967526   3.1167838   5.4098320  14.2824280  57.9482555  21.5354872
  13.7139773  57.6228666  22.2334957  13.6797631  58.2249880  20.8452368
  45.4213762  57.9962206   9.9718022  45.2573061  57.6910543  10.8640945
  46.0249186  57.3501921   9.6048987  66.6844416   7.9943186   1.6970921
  65.8907413   7.5000006   1.9018322  66.3849449   8.7032723   1.1279553
  30.1451087   0.0254284  52.1899700  30.2309251  -0.4424756  51.3593483
  30.1881504   0.9508341  51.9491339   6.9553435  63.9034843  27.2037053
   7.0013303  64.7401285  26.7409468   7.4530941  63.2981300  26.6541409
  81.2348175  60.7895327  58.6093426  81.8377781  60.6407547  59.3377256
  81.6525936  60.3624058  57.8615093   4.3081915  62.7629137  51.4548635
   3.5328925  62.9620266  50.9299850   5.0151336  63.2508707  51.0325336
  24.5903540  41.8058252  30.7012415  24.2001176  41.2104177  30.0613666
  25.1094365  42.4149752  30.1761484  67.6915550   3.8129199  13.4540737
  66.8229914   3.7734282  13.8544047  67.5268030   3.7250048  12.5152671
  45.0101042  57.2164583  18.5004056  45.7370853  56.8060255  18.9686704
  44.3946075  57.4697113  19.1883457   3.0743447  25.8043456  57.5921965
   3.7464339  26.3856888  57.9479599   2.6615483  25.4153585  58.3632469
  37.0076418  65.0730515   3.8932562  36.3664842  64.4119930   3.6322060
  37.8306437  64.5906258   3.9717728  47.7995729  74.1102076  61.1878443
  47.7142334  74.8411608  60.5757570  48.4815025  73.5570574  60.8067513
  46.3400698  66.6443205   8.1616008  45.3856850  66.5746450   8.1846237
  46.6473866  65.7387161   8.2024461   9.1629833  37.5851512  16.3564062
   8.3007574  37.9571414  16.1708772   8.9802009  36.8100452  16.8874764
  54.5536041  52.0442533  35.3913116  54.0914154  52.5310612  34.7089410
  55.4324627  51.9103336  35.0364780  82.6565552  15.7295144  27.8692031
  83.4358406  15.3490067  28.2743716  82.1154594  16.0098290  28.6073518
  16.9493055  55.7823372  37.6000786  17.2243690  55.9747171  38.4964919
  16.0101998  55.9674263  37.5927663  20.3050351  78.3542442  36.4381123
  21.0979581  77.8275681  36.3375306  20.1682949  78.7482166  35.5765343
  34.0441775   5.4041976  25.6054091  33.7403369   4.6088880  26.0428977
  33.3982515   5.5602527  24.9164581  11.8540287  62.8108120  29.2407918
  12.1426356  62.1082020  29.8232698  11.9135761  62.4338341  28.3629656
  77.7526379  53.8823414  46.5844965  78.6242056  53.5424232  46.3818693
  77.9176140  54.7018290  47.0508146  38.4286642   3.8729230  48.6355019
  38.8042235   3.2749948  47.9892302  39.1446400   4.4692552  48.8545895
  57.1696568  12.1700752  23.6944675  56.5846109  11.4786339  24.0040851
  56.6037464  12.9355168  23.5940742  24.7957182  41.3483286  15.5170882
  25.3356028  40.6642628  15.9130788  23.9741731  40.9084845  15.2983856
   6.6678566  24.4711685  39.1906881   7.1033114  25.0670791  38.5811782
   6.6054964  23.6438107  38.7133813  15.5114269  18.8580537  39.0241027
  15.8139503  18.6765778  38.1342840  15.2961159  17.9976320  39.3840289
   9.3079126  24.6082449  44.6378946   9.0255260  24.6063352  43.7233019
   8.6284405  24.1167378  45.0993824  33.9184666  45.6266022  35.5524278
  33.3905125  45.3057957  34.8212790  33.2776570  45.9272337  36.1968017
  24.7884512  51.6644621   2.4713248  24.1619158  52.2149229   2.9410872
  25.2347827  51.1696005   3.1584451  72.7451420  56.4212656  38.3173299
  72.3288059  57.2831297  38.3267069  72.6115608  56.1004305  37.4254489
  45.6899452  12.1781266  19.9465871  45.5579948  13.1117070  20.1116586
  46.5811253  12.0048761  20.2499199   7.0364815  15.7977593  53.5406113
   6.3943928  15.3968668  52.9547453   6.6184056  16.6062498  53.8368988
  16.3169134  46.2197495  26.3888144  16.4920914  47.1448469  26.2163544
  16.8598402  46.0108232  27.1489525  57.2373915  64.4880342  46.6349554
  57.8564930  65.0433731  47.1088219  56.3818979  64.7213411  46.9954157
  30.7237411  64.1104937  41.4445496  30.5999207  63.8348770  42.3528051
  30.3888750  63.3798075  40.9247446  17.9156542  13.7791359  56.6336441
  17.7396083  13.6125886  55.7076311  17.2889578  14.4601905  56.8778753
  22.6993990  63.4465694  19.2692959  22.1965218  64.0408802  18.7123883
  22.7394056  63.8891172  20.1171064  26.4143229  61.6164684  30.0606322
  25.9682059  61.0584116  29.4236183  26.5512419  62.4440813  29.5996094
  14.2524219  53.9765549  24.3105006  13.8680696  53.2055616  23.8932776
  14.6676672  53.6377239  25.1035929  60.4748058  72.1629000   6.2714982
  60.7019281  73.0890512   6.3545263  59.9236917  72.1205711   5.4900187
  43.4669113  66.2551641   8.1233150  43.0669451  65.7739925   7.3989308
  42.8641701  66.1293316   8.8561881  23.3881283  34.4017458  39.0076089
  23.3071232  33.9713788  38.1564617  24.2929006  34.7131228  39.0334129
  33.5224986  60.6450462  18.4232450  33.6542535  61.3707924  19.0332985
  32.5888324  60.4442692  18.4879434  36.3032293  43.1077528  24.7005033
  35.4449844  43.5112858  24.8301411  36.8961477  43.8458872  24.5596719
  69.6404743  23.4466338  59.6793938  69.2205381  23.3007097  58.8316917
  69.8395061  24.3828511  59.6900845  42.0219755  66.8981409  24.5583391
  42.0178604  66.8561554  23.6020684  41.2202740  67.3714685  24.7807503
  54.8139715   9.0542841  25.0412107  54.8138952   9.9559808  25.3624201
  54.2297983   9.0700400  24.2831016   5.9019476  67.1458626   8.8468981
   5.3798920  66.3793993   9.0840256   5.7184255  67.2824240   7.9174346
  10.0871432  61.8165112  58.4591198   9.4504941  62.3105955  57.9426050
  10.9142137  62.2798300  58.3267403  22.7492380  67.0536041  28.8767791
  22.1623683  67.8062105  28.9502215  22.4496961  66.4491367  29.5558429
   9.1182947  68.6944723  25.9021354   9.4859850  67.8107166  25.9047008
   9.8631662  69.2632294  25.7074165  48.2394457  55.7377195  38.9518356
  47.6271105  55.2998924  39.5430851  49.0569448  55.7871056  39.4473052
  72.4736214  10.6477714  14.5804441  72.0229912  10.2972662  15.3487611
  72.9640770  11.3996279  14.9127054  29.4685125  39.6420598  28.5147786
  28.6854410  39.3838453  29.0009427  29.8780656  38.8142800  28.2632208
  18.2471430  67.6143122  32.2729135  18.9427054  67.0658779  31.9100809
  17.7642035  67.9261780  31.5075755  61.3839674   7.3349899   2.4160078
  60.6130981   7.0568061   2.9105815  61.2609148   6.9541973   1.5464753
  61.0227108  20.3172541  18.2297325  60.2218676  20.8393121  18.2780802
  61.6289186  20.8552027  17.7204633  21.3388896  50.7187843  63.7422800
  20.6423807  50.3706312  63.1855965  22.0618963  50.8939648  63.1399488
  44.4550514  16.3905227  22.0175099  44.0871477  17.1366811  21.5440917
  43.9033604  16.3045406  22.7949905  29.8028755   3.0229786  51.4148140
  30.1583552   3.1618962  52.2926331  29.3030310   3.8181588  51.2302160
   2.6074535   7.2305685  28.4680152   2.9435989   6.4284319  28.0682445
   1.7199364   7.3177749  28.1202507  33.1716585  59.2731190   8.3174610
  33.7448430  58.5333300   8.5184675  33.7623739  60.0236988   8.2548809
  32.9139376  42.5736713   1.7611693  32.3242736  42.6115799   2.5142249
  33.1420875  41.6474342   1.6820051  26.0174799  69.5137978  23.9106441
  26.2146449  68.7091303  23.4311962  26.4661789  70.2016354  23.4189296
  26.3866472  53.9291525  33.0025673  25.6954098  53.7034035  33.6250281
  26.1543489  53.4548235  32.2042656  35.6265521  75.3231192  57.8595161
  36.5132761  75.3967428  57.5066233  35.1372290  76.0219526  57.4254322
  33.4555197  75.4230022  40.4299307  33.5306621  74.4728279  40.5179548
  34.3537617  75.7222795  40.2891254  45.7289267   7.4066859  49.3508482
  45.3908873   6.9793403  48.5638666  45.0557184   8.0458677  49.5842409
  22.7817416  39.3260145  21.3424492  22.9460716  39.3038082  20.3997231
  23.6481953  39.4360900  21.7340803  18.3221781  47.5668001  12.1846211
  18.7598133  47.4773598  13.0312061  18.1863713  48.5089111  12.0835507
  61.8384695  67.9687119  52.6511145  60.9491682  67.9803276  53.0049992
  61.8177462  68.5984468  51.9305277   0.6108896  57.2589970  51.1725378
  -0.1695507  57.7838469  50.9945536   1.0993093  57.2693110  50.3493929
  67.4919844  11.4870739  20.1221275  66.5963840  11.4923739  20.4599142
  68.0397272  11.3651860  20.8976007   3.6961234  46.8269253  44.3432379
   3.7074849  47.1991920  43.4614658   4.2414388  47.4196386  44.8604965
  18.0957425  28.7916446   7.3195809  17.4595189  28.6802006   6.6131586
  18.9402151  28.8555861   6.8734765  81.0344315  46.4656353  26.5132642
  81.7017174  46.3468504  25.8373570  81.5287590  46.6952133  27.3001337
  24.5213914  61.5982676  18.9501190  23.8544106  62.2481441  19.1715515
  24.4433784  61.4883232  18.0024600  16.6815746  43.2451868  21.2340927
  16.6037524  44.1392183  21.5670753  17.1233428  42.7660847  21.9351888
   7.9198682  39.7349596  24.3042469   7.6467532  39.5356917  25.1997519
   7.5451171  40.5975008  24.1258717  66.7741442  13.8635719  30.8388638
  66.4978504  14.6885157  31.2380624  65.9751129  13.3381641  30.7972884
  31.3132620  46.9961309  35.2890277  31.1701155  47.6297951  34.5860243
  31.1904073  46.1435270  34.8716521  64.1848469  22.5305629  36.3553596
  64.4126081  22.1312833  37.1949625  63.2632303  22.3067594  36.2258792
  13.3914852  61.8777418  19.4176292  14.1883302  61.4136124  19.1610098
  13.7027574  62.7122593  19.7682285  24.8866916  68.2849932  39.2651439
  25.4940033  68.9412069  39.6068859  24.1414714  68.7926102  38.9438963
  18.6262679  18.5251844  50.0658226  18.7257886  17.6711464  50.4864740
  19.4977450  18.9183164  50.1127958  14.8964977  70.1976633  52.8637791
  14.6308148  71.0589314  52.5415087  14.2678416  69.5911169  52.4724627
  81.7497730   0.4118111  34.6597123  80.9355545   0.7033258  35.0699520
  82.1481800  -0.1712264  35.3059077  20.6051493  61.9730234  12.7578580
  20.4253125  62.5597382  13.4924734  21.5405750  61.7822170  12.8271627
  70.2664900  20.4645371   2.9816672  69.6332407  19.7524703   3.0721429
  71.1137056  20.0554848   3.1581154  39.6922588  52.0704651  23.6957526
  38.9763618  52.4602222  24.1975617  39.7859979  51.1890936  24.0571785
  31.4823174  77.3343611  47.1099949  31.5021396  77.1525621  46.1704302
  31.1129737  76.5418577  47.4995518   8.9568281  66.9130850  10.0908959
   9.1026503  65.9726763   9.9879247   8.0044347  67.0088387  10.0941491
   8.2212675  43.9548063   0.6484433   7.4093086  44.4274664   0.4652809
   8.0161893  43.0409288   0.4509417  38.7985802  56.9643307  25.4246926
  39.5483327  57.0819426  24.8413658  38.7733650  56.0228300  25.5954790
  52.7327538  76.6075087  35.1998329  53.0311775  75.8207655  34.7435355
  53.1307125  76.5462112  36.0682273  54.0718842  73.4716558  67.0940447
  54.6395397  74.0365791  67.6183176  53.9688635  72.6796818  67.6216698
  14.0440547  74.7053385  33.0223227  13.6922777  75.5786467  33.1950045
  13.3821785  74.2847395  32.4734640  55.0712538  66.1187315  12.9068005
  54.1859531  65.7739830  13.0235350  55.6440115  65.3717232  13.0804706
  73.2808065  16.1757565   1.0054082  73.0128622  15.7905173   1.8396911
  74.2188692  15.9941459   0.9480236  23.6259198  42.6880360  27.5090075
  24.5327735  42.4154997  27.3690987  23.2322574  41.9670773  28.0004120
  15.0843573  16.6715586  41.1803675  14.7233248  17.4153078  41.6627836
  15.5797017  16.1791968  41.8349266  16.7553127  61.9807196  20.2436686
  16.6244698  61.7600536  19.3214869  16.3933003  62.8623438  20.3326774
  69.7723484  78.6599636  17.2246802  68.8703680  78.8941479  17.4433649
  69.8017550  78.6873150  16.2683225  32.5063324  67.7997351  25.2027369
  32.2578073  68.2624578  26.0029602  33.4571218  67.8990650  25.1540899
  16.9824076  56.2996435  40.5381203  17.7206182  56.1600637  41.1312437
  16.3007343  55.7105255  40.8613682  43.8495016  36.6153693   9.5189846
  43.0325794  36.3463259   9.0988868  44.3936968  36.9372630   8.8003254
  55.6398010   5.6484693  33.2081985  56.5194035   5.5742925  32.8380179
  55.3268528   6.5034050  32.9125977  75.2976131  59.0554714  28.2022214
  75.5915499  58.1610012  28.3747411  74.9318695  59.0211105  27.3183179
  28.7079144  35.9817123  23.9889622  28.0972624  36.4962339  24.5167875
  28.6650062  36.3779783  23.1186938  56.3457537   1.5333888  40.8625269
  55.8243752   1.8878034  41.5827942  55.7536507   0.9312340  40.4119158
   0.6792054   8.0521613  39.9493194   1.0576929   8.8104177  40.3943205
  -0.2077858   7.9850811  40.3028440  41.3875771  65.2033997  37.5241685
  40.7720566  64.6346378  37.9866409  41.0559034  65.2358007  36.6268539
  64.8974133  16.5015674  67.0882225  65.7367277  16.8155217  66.7517471
  65.1328993  15.8578730  67.7563810  74.4991922  41.4815903  32.5507283
  74.5240259  40.7292366  33.1419826  74.2255068  42.2126389  33.1047082
   1.1883601  60.2726984  22.0354939   1.4512177  60.5560780  21.1598039
   1.6259091  60.8851480  22.6268363  22.2298384  63.7722206  33.8907790
  22.8989816  63.2097530  33.5007644  22.6837015  64.5957947  34.0695572
  78.6111116  24.6070552  15.4287815  79.3122005  24.6258307  14.7773552
  78.4416151  23.6758494  15.5714607  71.9988680  66.9780588  34.2427993
  72.1563101  66.3717031  34.9665236  71.1386776  66.7291689  33.9046288
  34.8071647  59.4019699  42.0463419  34.4363141  60.2566528  41.8267488
  34.2064953  58.7711382  41.6495085  13.7512529  54.8701859   5.9123766
  14.3608487  54.3900824   5.3519106  14.2816687  55.5641937   6.3038445
  21.8266821  62.2317028  27.4686623  21.4565206  62.3752403  26.5976810
  21.5662479  61.3389683  27.6954412  49.6300220  10.2259910  66.1604500
  49.3065739  11.0675609  66.4819670  50.3019857  10.4568756  65.5190516
  74.4618464   1.5961730  17.7815890  73.9286757   1.1564586  17.1193111
  74.8245239   2.3581707  17.3298621  28.3136368  34.9865055  28.7932301
  27.3774076  35.0760746  28.6152267  28.4079170  35.2381396  29.7119355
  74.8771381  43.9379501  49.3916655  75.3997040  43.2594347  49.8191833
  75.5216312  44.5626831  49.0591478  42.8716040  16.3008475  16.2023020
  42.3018169  16.1592185  15.4463124  42.2781420  16.2983441  16.9533193
  16.7942655  61.5081882  47.0047998  16.8839431  60.9535027  47.7797270
  15.8503366  61.6346931  46.9087362   7.1882719  71.4972019  51.0721207
   7.9852748  71.0065269  51.2727594   7.0140857  72.0054388  51.8643284
  16.5123641  55.3166866  33.8084364  16.1414778  56.1771441  33.6127496
  15.7667959  54.7182226  33.7615728  79.5613956  14.5019221  25.4094458
  78.8768625  14.6530223  24.7576666  79.2658329  14.9821210  26.1829329
  11.3343525  48.0638647  28.2689500  10.4506230  47.7539635  28.0709171
  11.9077206  47.5011778  27.7485037  18.3521795   6.2394899  11.1679769
  18.7848675   7.0932472  11.1574459  17.4638104   6.4249420  11.4723456
  26.0596824  33.4012556  41.0846901  25.9670925  34.2661858  40.6852484
  25.6227350  32.8074694  40.4741764  48.6737394  45.2171898   8.2179904
  48.5223150  44.3471193   8.5871470  49.3954420  45.5745840   8.7353361
  21.9716763  38.3327508  27.4951482  21.1169100  38.2464004  27.0730686
  22.5674772  37.8374529  26.9330716  41.8153954   2.5221580  37.2338915
  41.2817287   1.7668512  37.4807549  42.6905298   2.3143677  37.5612998
  68.3989286  17.0741141  24.9209261  67.7799320  17.0355701  24.1918230
  68.0239010  16.4949656  25.5843806  20.7075787  73.5181522  59.4906378
  20.9621191  73.7190104  60.3912497  21.1206746  74.2042065  58.9663172
  73.7070990  40.2948284  40.7079172  74.6595812  40.1999378  40.7104683
  73.4996033  40.6044054  39.8262501   7.4946189  23.4709597  66.6755581
   7.0906937  23.1327319  67.4747324   8.3281285  23.0045629  66.6125774
  51.5942192  62.1522570  17.7929485  52.5218534  62.0764303  17.5693989
  51.2881470  61.2474585  17.8553379  33.9799047  18.5638762  55.0749731
  33.8230014  19.1907251  54.3688011  34.9319482  18.5464990  55.1726675
  43.9723539  54.9132872   7.6368672  43.8989592  55.6453466   8.2491851
  44.5728636  54.3027020   8.0644232  29.3225598  55.7081223  31.6019893
  29.1554546  56.3330746  30.8964825  29.1836190  54.8505211  31.2001777
  39.2379904  69.9445677  19.8017287  39.5130253  69.3244457  20.4770327
  38.9714050  69.3941593  19.0653777  78.5563135  45.4777145  42.1166182
  78.6242247  45.4202461  41.1635590  77.6777601  45.1531219  42.3141432
  11.8450725  39.4298625  68.0682421  11.3306606  39.4243979  68.8754511
  12.3560679  40.2378845  68.1153393  72.1934080  15.0320458   3.0991834
  71.3012648  14.8224807   2.8227878  72.5236654  14.2181933   3.4797171
  27.1666145  52.2536850  12.8805494  26.5576148  51.5377045  12.6996696
  26.6378617  52.9084301  13.3365810  65.6099081  21.2413025  21.0380292
  65.7093716  20.4085112  20.5767298  64.6685982  21.4140606  21.0201764
  45.4077482   5.0374711  34.7023249  45.2137518   5.0740778  33.7657022
  45.6077099   5.9425968  34.9410582  39.0856028  13.4325194  59.1364479
  38.8093805  13.8416529  58.3163595  39.9908090  13.7203515  59.2547131
  68.9423084   8.1180710  13.7190413  68.4346914   8.3130819  12.9313076
  68.7016726   8.8090408  14.3362021  71.5236235   8.8244981  37.9697728
  71.3715649   8.0426681  38.5006690  71.9166088   9.4527346  38.5756731
  58.1233597  66.2632513  17.0888805  58.9121532  66.6738272  17.4430895
  58.1890774  65.3468657  17.3574913  70.0649261   2.7214316  61.2947369
  70.3385353   2.2977419  60.4811907  69.4373417   3.3890209  61.0177994
  76.4153576  65.9493494  43.3661938  76.9465542  66.0629463  42.5780582
  77.0503235  65.9295607  44.0821981  20.2628946  52.7989340  30.1566672
  21.1777282  53.0382347  30.3051543  19.9795580  53.3680868  29.4411111
  34.1023493  48.4247017   5.1017570  33.5815334  47.7760172   5.5752420
  34.3116021  48.0021143   4.2687714  64.7413254  59.0442801  50.3245497
  63.9638901  59.2809010  50.8303547  65.2229595  58.4431410  50.8927822
  54.9532366  46.4531898  61.3470364  55.3761578  46.9349289  62.0578814
  54.3724680  47.0935488  60.9360790  19.9744403   6.2907463  17.2102261
  19.1010034   6.6465497  17.0466924  20.5634689   6.8703437  16.7271686
  17.1043694  24.6160626  38.6341786  16.4666879  25.2190089  39.0163445
  17.4305534  25.0724125  37.8585625  33.3999729  28.2935810  22.0770311
  33.6939359  27.4008989  21.8955517  33.7509346  28.8130307  21.3536835
  69.9244070  27.4983835  66.4755440  70.3366947  27.7648211  67.2972870
  69.2526674  28.1619453  66.3184261  51.9335222   0.3583746  36.5474224
  51.3678455   0.8672515  37.1281886  51.4210844  -0.4224281  36.3376975
  21.6199398  53.6316872  38.9423513  20.7677102  53.7250376  39.3680549
  21.4346409  53.7387371  38.0093789   7.3287898  57.7644253  32.8385973
   7.7039444  58.6380291  32.7276683   7.0415086  57.7412653  33.7513757
  12.3723948  33.6133599  67.8368998  13.1638408  34.1331577  67.6967001
  12.3070753  33.0615425  67.0574999   2.8645527   8.6052012  22.5863862
   2.1571034   9.1813070  22.8759551   3.5882172   8.7959349  23.1831789
  22.0109344  51.1610079  15.4383111  21.6870689  52.0219851  15.1736200
  21.4270139  50.8932447  16.1479390  30.7427716  55.9250498  38.8627791
  29.8126960  56.1084604  38.9952755  30.9257960  55.1850128  39.4416380
  81.2720776  77.0179081   1.8336375  82.1894360  77.2121143   2.0258942
  80.8420467  77.8730583   1.8292454  21.6901827  65.9387445  26.5727496
  21.2242770  66.7441320  26.3479996  22.0162725  66.0902786  27.4598432
  45.1957273  64.4116354  25.9326816  44.4519854  64.9218035  26.2533188
  45.1886702  64.5474529  24.9851942  31.5453815  51.4265776  27.0129085
  31.0276580  50.6237221  27.0729971  32.3382401  51.1657906  26.5442967
  38.8102627  55.9935093  15.6811941  38.4359145  55.1571655  15.4043865
  38.2300973  56.6531420  15.3010285  46.7100763   1.1968652  51.0588741
  47.0302153   0.3735671  51.4275503  46.3834620   0.9596673  50.1909494
  42.6748514  67.0622778  13.6785460  43.2775784  66.6528702  13.0577886
  43.1770229  67.1302843  14.4906008  74.8002720  23.1488180  15.8344328
  75.3588581  22.4353719  16.1429834  75.0519991  23.2713866  14.9190962
  51.1253405  50.0193834  42.5021791  51.3932133  50.8471251  42.1030378
  51.9362926  49.6469212  42.8483915  64.5398378  12.4423158  30.9347320
  63.8780355  12.4852538  30.2445126  64.7333574  11.5090740  31.0232806
  44.0518475  42.2833347   0.8113013  43.5341978  43.0805969   0.9237250
  44.1234064  42.1759796  -0.1371641  52.8187752  16.3417947  30.1618886
  53.6831665  16.4075828  30.5677629  52.2047472  16.4973557  30.8795214
  34.9496269  65.0652266  50.0144911  34.5212960  64.2189121  50.1430035
  35.8796573  64.8865366  50.1535892  33.0628133  19.7871840  17.0631516
  33.9204788  19.4272614  16.8371058  32.9673004  19.6089697  17.9987526
  38.5561609  55.6198025  18.5024631  38.6288619  54.6686220  18.5812438
  38.0567026  55.7559729  17.6973355  66.3752365  72.7067423  38.7911367
  65.8791590  72.2975159  39.5001292  66.8609238  71.9853449  38.3912230
  30.4398155  72.8067589  54.5259476  30.2580690  71.8785763  54.6731806
  29.9350214  73.0284834  53.7434816  20.7665443  60.2839947  32.3201489
  20.2880812  60.4685926  31.5119243  21.5236759  60.8688211  32.2891688
  37.0294833  71.1563063  40.8789682  37.5891376  71.9241428  40.7630110
  37.3311496  70.5374193  40.2139854  23.2975626  63.6523485  50.8831930
  23.7302637  64.1831875  51.5519285  23.9410591  63.5845423  50.1778221
  42.3469067  75.6441879  35.5255198  42.0396376  75.2098465  36.3212371
  42.5478220  74.9274349  34.9237466  14.5302808  63.9610386  31.7254829
  15.0542128  63.7931681  32.5087762  14.6024728  63.1564093  31.2120652
  66.5470028  59.8371363  63.4579182  65.7116365  59.9105406  62.9963923
  67.1775723  59.6046019  62.7763462  78.7736702  42.3304462  40.5687380
  78.7290573  43.1263828  40.0389004  79.5352888  42.4611282  41.1336231
   1.6552313  55.0505495  17.0957685   2.4558163  54.5785904  16.8665230
   0.9491913  54.5128584  16.7371202  20.7360387  12.9379356  56.4705038
  20.8261061  12.4102986  57.2640514  19.8200285  13.2157063  56.4702559
  39.2222404  52.1856165   4.6345884  40.1505375  51.9613886   4.6995068
  38.7990785  51.3745975   4.3527815  64.7906494  67.9354572  44.2057753
  65.1798630  68.4242725  44.9308968  64.6766853  67.0489645  44.5483732
  56.0613966   8.5765219  33.1879640  56.5639067   8.0334079  33.7952065
  56.0310268   9.4373381  33.6054611  72.7619267  63.8904905  24.3530822
  72.8738117  63.0561876  23.8973927  73.6466455  64.1362429  24.6234655
  46.4124775  57.0502901  28.4026504  47.2888041  57.1303892  28.7793136
  46.5480566  56.5841770  27.5776744  32.6562166  45.7455492  60.7846069
  33.4341598  45.5793524  60.2522373  32.8693199  45.3767157  61.6417980
  12.1354413  59.5702553  20.4234982  11.8356967  59.9264574  21.2598634
  12.5375795  60.3149509  19.9763441  57.7908468  12.3892474   2.0584230
  58.5552645  11.9321513   1.7077623  57.7534914  12.1234775   2.9772282
  60.1081371   2.7219611  58.4532690  59.9941349   1.9337627  57.9222536
  59.2253208   2.9383698  58.7533188  24.7607803  40.5159473   6.7861074
  24.1655517  41.0222387   7.3389238  25.4485083  40.2203035   7.3826444
  68.8203669   4.9131006  32.7561808  68.7913036   3.9842063  32.9854035
  69.1595364   5.3430343  33.5412598  25.6805372  45.1621485  54.2437506
  24.8767710  45.0866508  53.7294626  25.7709384  44.3114471  54.6731281
  20.7521033  31.2103367  27.3727655  20.0392604  31.5910268  27.8857613
  20.4177213  30.3579354  27.0937753  56.5299892  68.4885693  61.7792177
  56.0006189  68.8816214  62.4731255  57.0988560  69.1982126  61.4808464
  19.3908095  66.5278435  28.7453675  19.8470283  67.3329926  28.9899802
  20.0439572  65.8377838  28.8613153   2.5820047  61.4937019  46.3965464
   1.6673443  61.2185001  46.3341570   2.6222762  62.0104790  47.2012520
  49.5528889  68.5257387  25.5900502  48.7343121  68.0382633  25.4976821
  49.3225431  69.2800808  26.1324000  13.8087022  72.4690866  46.9784307
  13.0739176  71.9345856  47.2794819  14.4256485  71.8396139  46.6051006
  83.7144661   2.3321678  22.5221705  83.4357262   1.9585495  21.6861415
  82.9721355   2.8660142  22.8053284  35.4197192  34.9786544  61.5222645
  36.3212776  34.7234726  61.3265371  35.1846123  35.5850959  60.8199930
  69.1031075  55.5897379  45.0066471  70.0089693  55.2928686  45.0933409
  69.0045595  55.7894230  44.0757084  44.1226053  69.1333437  32.1268630
  45.0173044  69.1603041  31.7877221  44.2251062  69.1832542  33.0772495
  15.1530719  25.4393768  10.2735400  14.8428953  26.3413930  10.1935983
  14.4772351  24.9147677   9.8442811  43.2918835  18.6688018  20.8922696
  42.6467609  18.9054835  21.5586281  42.7962685  18.6544728  20.0734925
  67.9621077  12.1576416  28.6912680  68.0520248  11.5196013  29.3991160
  67.4031210  12.8434479  29.0565610   9.1731715  60.0937891  20.4951930
   9.8986000  60.0682545  19.8712265   8.5310483  60.6781483  20.0921631
  51.4501953  72.3745489  56.0237217  50.7525158  72.2743273  55.3760862
  52.2535658  72.4197149  55.5052757  35.2261734   2.6269305  29.6771812
  35.4253626   3.5631746  29.6785903  36.0763144   2.2010204  29.7871470
   4.2196387  71.9929838  11.5099895   4.1446775  71.5601158  12.3604250
   3.6950183  72.7886295  11.5991461  68.2706213  10.1110804  30.8281279
  69.0659475   9.7257841  30.4603887  68.4112263  10.0928366  31.7747688
  22.2828174  50.4830027  23.8751006  23.1850004  50.6235743  24.1623926
  21.8045282  51.2426519  24.2073727   9.8064804  16.4458585  59.8000526
  10.2217078  17.2926569  59.9636078  10.5330658  15.8596683  59.5886612
  65.5580330  71.3674498   9.6538734  65.5505133  71.8795776  10.4625142
  64.6369457  71.3058233   9.4008279  26.0794878  73.0624008  63.5807753
  26.3897133  73.4078598  62.7437258  26.7939973  72.5052977  63.8895559
   3.7910631  17.5758040  66.4818001   3.5414526  17.5562060  67.4056721
   4.7481835  17.5689888  66.4920950  28.6589289  55.2639627   4.0636328
  28.2284451  55.6335020   3.2926887  28.0318284  54.6268511   4.4057852
  33.1348419  50.0316811  37.5887609  33.5561037  50.4841137  36.8579578
  32.9112792  49.1689682  37.2395039  59.9155569  58.5500479  30.0244141
  59.0317965  58.2587671  30.2488160  59.8016787  59.0694571  29.2285013
  69.2491865   4.5673692  28.9313841  68.3546019   4.7553286  29.2153168
  69.6699190   4.1860327  29.7019696  53.4008265   5.2091646  19.4708800
  53.4531450   4.6477893  20.2444124  52.5598431   4.9879447  19.0708315
  23.7085271  61.0903740  33.2244110  23.1668210  60.6490993  33.8786769
  24.5291805  61.2779808  33.6800051  74.5374346   7.2108835  34.1539335
  74.4376230   6.3411748  34.5410728  73.8924837   7.7515143  34.6099925
  55.1946974  16.1767542  16.6473818  55.8784866  15.5352199  16.4547825
  54.6629572  16.2061393  15.8520067  28.9954543  51.8074226  21.0362840
  29.8463869  51.9925356  20.6389427  29.0205359  52.2615290  21.8785381
  49.2726278  64.9460745  42.7850866  49.9143648  64.5803928  43.3939219
  49.3826103  64.4330740  41.9844818  69.9464417  23.6113858  45.0149536
  70.0116730  24.2061901  44.2678356  69.0558195  23.7356281  45.3429651
  31.1448836  54.4905138  65.1840305  30.9812403  55.3569126  64.8114681
  32.0458293  54.5338392  65.5044222  72.2933578  16.2625265  30.4710746
  72.2428751  16.2483120  29.5153117  71.8873692  17.0928407  30.7200408
   7.8260213  64.1007805  31.3743496   6.9565266  64.4158745  31.6211867
   8.1339771  64.7322607  30.7242489   7.1151662  37.4475837  33.5878968
   7.2486001  38.2039237  34.1591930   7.9978061  37.1891522  33.3225846
  14.2870450  17.0869470  67.2371674  13.4971774  17.0116282  66.7017508
  14.4687891  16.1917377  67.5231743   8.7391752  33.4683967  41.6538286
   8.7650716  32.6068687  41.2375021   7.8406453  33.7710333  41.5223551
  16.9912767   6.6804272  48.3468437  17.7783799   7.1413392  48.6371231
  16.5176988   7.3238164  47.8195858  80.6050682  54.7762012  48.1090641
  80.0113583  55.4814053  47.8513241  80.6734657  54.8564053  49.0604401
  78.5753059   2.5577545  54.5635843  78.9302969   3.4052074  54.8319769
  78.0493402   2.2710952  55.3101873  69.2952585  36.7340136  54.2715740
  69.6844149  37.1085548  55.0618315  68.8845253  37.4780083  53.8311148
  28.9563203  78.2283640  26.5919065  29.4867897  78.4075880  27.3682523
  28.0576372  78.4055758  26.8697500  64.5935440  75.7698870  21.7436910
  64.0318203  76.5133667  21.5247297  65.2559471  76.1348009  22.3304534
  53.4527111   1.4040941  22.6074314  52.8242445   1.2454485  23.3117723
  54.1065884   0.7125469  22.7096081  68.5970640  76.9448233  59.8523664
  68.3757544  77.8711557  59.7566319  69.5418739  76.9076633  59.7034311
  75.7779741  37.1798563   2.7478486  74.8303556  37.0822501   2.8412455
  76.0220098  37.8090048   3.4267080  50.1168966  51.5977430  24.5579982
  50.9460354  51.4567375  25.0150299  50.2025032  51.0971737  23.7466192
  58.4858608   1.3398458  28.1560969  57.8853559   1.9725102  28.5502553
  58.7284374   1.7306907  27.3166752   9.2476857  74.9248409  41.0919619
   9.8518962  75.1209164  40.3759193   9.7992283  74.9126005  41.8741941
  73.1578112   5.5201447  21.8084574  73.8453341   5.8917618  21.2557888
  72.7295256   6.2804896  22.2017503  42.5173330   6.4853954  51.3401461
  41.6143084   6.7918414  51.4230251  43.0073977   7.0101815  51.9731331
  25.9243608  38.8413882  11.3265371  26.4124298  38.1100512  10.9481621
  25.6458998  38.5244918  12.1857631   0.5100844  16.9750452   7.0543104
   0.2013609  16.5013885   6.2819296   0.5774233  16.3053513   7.7349043
  67.3205233  78.0996895  10.6145096  66.7711735  78.6328077  10.0398540
  68.2144213  78.3818436  10.4206824  61.9174337  24.3851829   3.8719893
  61.8221426  25.2315187   3.4351075  61.0218954  24.0587854   3.9597899
   5.8742362  72.6921940  40.2801895   5.8036810  73.3470201  39.5855999
   6.3367432  71.9598198  39.8728275  81.4593029  21.5416217   3.5098612
  81.6104698  21.2852836   2.6000971  80.5233574  21.7379355   3.5510296
  56.7891073  20.2200246   3.6039385  57.6103830  19.9035156   3.9801836
  56.9990492  21.0921788   3.2700196  48.9984894   9.9889636  30.7402992
  49.8272848  10.4571795  30.8408260  48.5198975  10.4885137  30.0787616
  18.7531114  73.7140894   2.5918239  19.6201754  74.1101599   2.6787814
  18.2723033  74.3132019   2.0207556  40.5814648  17.3002911  -0.0689772
  40.5079460  17.2003949   0.8801523  40.5059433  16.4091599  -0.4101686
  19.3513441  22.9178309  55.0000095  19.8648489  22.7703571  55.7942390
  19.6598184  22.2497439  54.3878555   7.0196837  29.4585299  65.4261494
   6.4162934  30.0341702  64.9562693   7.1054786  28.6898637  64.8622179
  22.3314118  56.7776918  16.1249733  21.6672945  56.8827343  15.4436886
  21.8382907  56.5122747  16.9012570  39.2756438  18.2412064  43.7060738
  39.9260926  18.5404801  44.3413591  39.7610712  18.1635702  42.8847551
  41.0897350  76.1713362  38.2817864  40.2353907  76.5941811  38.1950188
  41.7062092  76.7964935  37.9005098  70.9115410  20.4492307  22.3385739
  70.1653004  19.9078667  22.0811224  71.2615347  20.0192094  23.1188416
  27.7142477  46.4710617  28.7899518  27.4201393  46.6235495  29.6879935
  28.5786057  46.8801832  28.7482715  73.3791876  72.3376369  31.7194009
  73.8567448  72.8449392  32.3757696  73.0996037  71.5485096  32.1834445
  13.6159921   8.0323017  33.5167789  12.7310395   7.7956057  33.7943840
  13.4983087   8.4280515  32.6532006  40.0487900  31.0099411  62.3476124
  40.4104996  30.4820848  63.0594873  40.4602909  30.6603456  61.5572453
  24.9400210  58.8398409  18.6353219  25.1709247  59.7686100  18.6179721
  23.9874816  58.8315678  18.7293053  33.7847304  66.8703938  20.0599384
  33.2125282  67.4425888  19.5486593  33.1957769  66.4250326  20.6690526
  83.3180958  53.9738683  68.6978067  82.4027497  53.8436513  68.4499684
  83.7237460  54.3602268  67.9216585   8.5492605   5.5952287  15.3386986
   8.4040099   5.7307452  14.4023395   9.1740018   4.8713034  15.3818583
   9.4826734  69.5220566  10.1495719  10.2383959  69.7722864  10.6810784
   9.3586797  68.5908079  10.3329575  48.0937815  10.5602896  56.1092663
  47.3833799  11.1559379  56.3475084  48.7930107  11.1343777  55.7966423
   7.7117300  67.6708126  17.6110113   7.6064301  68.5529709  17.9672992
   8.6582404  67.5603771  17.5207150  68.9747381  72.5059080  15.2603996
  68.9370775  72.7014732  16.1966515  69.6555853  71.8376160  15.1825082
  71.5459919  26.5221858  18.3052337  71.3464499  26.4241958  19.2362607
  72.2112370  25.8562350  18.1314790  39.6837401  68.8795424  24.2368197
  40.1260281  69.3827629  24.9204731  39.0406346  69.4866371  23.8706541
  15.4842234  22.2193074  28.1197071  15.7043004  21.5485215  28.7661147
  14.5310414  22.2934055  28.1664515  70.2291155   8.4554273  50.8431721
  70.8911228   8.0783141  50.2637196  70.7325459   8.9220321  51.5103054
  36.9983482  70.0714684   2.4085547  36.5815997  69.9138975   1.5613696
  37.5400567  70.8480644   2.2682491  41.5032101  14.8367012  38.1163406
  41.7012167  15.0658441  39.0243721  42.1674061  14.1882670  37.8826594
   4.4639787  42.1402502  64.8455572   3.7665048  42.7865076  64.9556255
   5.1293921  42.3947668  65.4848337  68.3566141   3.1573763  26.6366529
  68.8428068   3.7026080  27.2551751  68.3003569   3.6883160  25.8421898
  14.5646381  51.6130590  36.1070704  15.5079067  51.5039253  35.9863806
  14.1892970  50.7777596  35.8284616  65.1798868   3.4651381  14.2295790
  65.1898861   2.8086215  13.5330749  64.2894506   3.4300363  14.5790398
  69.0815163  64.3942070  16.0045457  68.2986927  63.8494921  15.9226799
  69.7779465  63.8745785  15.6030416  78.5354328  27.8442001  40.5442238
  79.4812298  27.7363586  40.6445932  78.3891678  27.8075218  39.5989776
  73.6551237  26.5989137  32.3786783  73.7615252  26.3049650  31.4739656
  73.1265497  25.9161258  32.7917647  15.9122348  74.9340677  39.9115443
  16.7132401  74.9081850  40.4349470  15.4447484  75.7074022  40.2271986
  72.3804569  -0.0227737  37.8977561  73.0033970   0.5885858  38.2907152
  72.0502806   0.4354079  37.1249127  42.8090668  73.2059383  28.2857656
  43.1055069  72.7746105  27.4843216  41.9832611  72.7718973  28.4999681
  76.8282127   3.3576813  25.8883524  76.7779827   2.4346583  26.1368227
  76.7619228   3.8326639  26.7167425  40.4657793  33.5819554   2.9862535
  41.2548542  33.9326215   2.5731906  40.7876635  32.9048538   3.5813618
  62.2142982   1.4075245  33.8925576  62.6338577   1.2425711  33.0481672
  62.4275780   2.3191072  34.0919590  30.0996828  74.8116589  31.0176110
  29.9878335  75.7344103  31.2462020  29.2707324  74.5642185  30.6079197
  48.8093567  75.6100941  57.6815367  48.2536125  76.1684942  58.2252026
  49.6670246  75.6403732  58.1054688  54.7533941   0.8553700  19.5105481
  54.8345041   1.7215231  19.9098372  55.6532526   0.6001829  19.3071485
  72.2540665   3.1264392  33.1262636  72.6116323   3.2212806  34.0090895
  71.8785572   2.2460671  33.1132436  57.2354698  78.3349657  46.3787508
  56.6563129  77.9203415  47.0181942  57.6409483  77.6034927  45.9131718
  27.2979331  19.4605815   3.7393343  27.8465700  19.3094742   2.9696620
  27.0412850  18.5842204   4.0263116  29.4465947  23.2331657  44.3338346
  29.0258980  22.5088096  44.7970343  29.7373962  22.8512216  43.5057116
  16.7881966  58.5288334  47.0799065  16.8939757  59.3534756  46.6055489
  17.6334167  58.3877563  47.5064421  71.8042946   3.0089360  22.1090865
  72.5324059   2.4860314  21.7734504  72.0852375   3.9159936  21.9884682
  22.2015357  61.2803507   9.3772441  21.4087296  61.7940474   9.5315343
  21.9285822  60.3726721   9.5108396  13.8956082  45.6323051  29.8699164
  14.5968890  46.1773014  30.2268744  13.7633836  45.9635735  28.9816523
  47.0488691  73.4689951  44.1513348  47.4608803  73.1902504  43.3335400
  47.4064064  72.8773880  44.8134518  27.8932881  35.2254200  62.1106339
  28.0560851  35.1805520  61.1684465  28.4472752  35.9440351  62.4154615
  66.5224123  18.0394030  14.6142697  66.6248941  17.2625637  15.1640427
  65.8696032  18.5708678  15.0699162  61.3336515  13.7001538  31.5768862
  60.6701803  14.2803347  31.2034845  61.1901665  12.8602397  31.1407804
  64.7841597  14.1175032  12.6982546  65.4413795  13.4332299  12.8249907
  65.0423527  14.5497549  11.8841743  34.8459744  76.6819191  36.9811535
  34.9345922  76.5428543  36.0382652  35.3851795  75.9966803  37.3760438
  63.3729887  58.1301165   3.9369699  63.7700748  57.3695517   3.5125917
  62.5932980  57.7827644   4.3701684  67.9961872  24.0127850  37.7793503
  67.9550028  23.3731294  38.4902477  68.9323187  24.1381121  37.6238561
  18.9962065  77.8040886  45.4671526  19.3343580  78.6829615  45.6388187
  19.7362995  77.2237158  45.6450939  69.3328333  38.2824969  38.4576774
  70.2046680  38.4756660  38.8023877  68.7522554  38.3661890  39.2140841
  58.8402605   7.2528905  22.2926140  58.0109406   7.2613412  21.8147206
  58.7878609   8.0094463  22.8766584  75.4581690  38.2121134  57.8471947
  75.8173609  38.1069160  56.9662046  74.5329237  38.4128118  57.7062273
  30.0125670  62.3245335  39.4430470  29.5904922  62.8071642  38.7323093
  30.9400105  62.3123026  39.2065454  11.6142654  70.9456921  38.9299059
  12.0216310  70.4837036  39.6626067  10.8143055  71.3207102  39.2982268
  76.3778400  25.7851434  40.7968664  75.9081841  26.3056684  41.4485645
  76.5667582  24.9587035  41.2413168  34.3556595  58.5930252  34.8529148
  34.9526954  58.1719685  35.4713750  34.5603251  58.1890583  34.0096140
  16.5040445  71.3401794  29.1584706  16.7756212  72.2579956  29.1680288
  15.5641091  71.3666487  29.3375039  34.8433709  43.3646202  14.3701494
  35.4547334  42.6716805  14.1205513  34.1436100  42.9093981  14.8384845
  36.3650346  62.4635887  31.5730143  35.9448981  61.6134548  31.7033577
  37.2945166  62.2584295  31.4720011  62.3888302   5.1614976  50.4135799
  61.5367985   4.7288555  50.3579807  62.5356817   5.5149502  49.5362329
  78.7750578   6.3360298  60.0772333  78.1802988   5.8745742  60.6684589
  79.0584993   7.1037149  60.5737734  24.0216017  59.5030355  39.3948698
  24.4633651  60.3447247  39.5072579  23.3240104  59.6810150  38.7640595
  12.8842258  59.7491312  37.4319482  12.0795393  59.2312622  37.4091077
  12.6906228  60.4660177  38.0359554  64.4924593  62.2220850  18.9206254
  65.1539993  62.7891397  19.3169141  64.7099400  61.3444757  19.2348433
  64.7617054  25.3974724  22.4904895  65.6518984  25.6716514  22.7109838
  64.7441244  25.3880095  21.5334988  19.4257104  28.9854264  46.4288235
  18.5298181  29.1732740  46.1489630  19.7652483  29.8291135  46.7273808
  28.7461877  62.3879099  10.4625213  29.6051121  62.7879429  10.5983591
  28.5189843  62.6093006   9.5594180  76.8695641  11.8338001  26.6873884
  77.4188900  12.4939525  27.1100807  77.4681425  11.1123633  26.4938259
  47.2726011  68.6720610  51.1364603  46.8827581  69.1880894  50.4307842
  47.2906685  67.7772474  50.7970285   9.9020463  10.2722847  17.0685589
   9.1148776  10.7453251  17.3384297  10.0283778   9.6101445  17.7481484
   2.2734697   3.1983000  23.3518934   1.9317429   4.0917405  23.3868027
   1.5130267   2.6593536  23.1339598  11.6840708   3.4419751  60.3955889
  11.0451460   2.8982025  59.9348068  11.5566266   3.2298046  61.3202381
  21.7577982   2.3870197  58.7021160  22.3245788   2.3139556  59.4700050
  22.1814561   3.0472943  58.1536770  39.6887255  20.4429913  65.7923412
  39.9918151  21.3266301  65.5836630  38.8977408  20.5780888  66.3141918
  62.3780632  19.9662936  37.9295397  62.1853733  20.5320978  37.1818995
  61.8051863  20.2866364  38.6262655  75.7774544  11.1672854  62.0102167
  75.9973049  11.3663101  62.9203176  76.1000252  10.2762413  61.8752432
   9.8812461  21.6282344  51.5141249  10.2280128  20.9278488  52.0667934
   9.9011678  22.4057269  52.0721006   4.5790684  34.5621037  63.6544466
   4.1768456  33.7256241  63.4204578   4.9399817  34.4179440  64.5291996
  28.4817624  23.6111522  18.2640290  28.4600234  24.4953871  18.6299348
  27.6314378  23.2361245  18.4932315  19.9553990  51.0463619  40.9131670
  19.8290157  51.6843653  40.2108765  19.6434009  51.4921045  41.7006969
   7.3740339  26.5613532  37.6047254   8.0238533  26.6675830  36.9099736
   7.3807931  27.3983812  38.0690217  27.4533606  72.2190285  33.6558986
  27.3121762  72.8118372  34.3940568  28.2451844  71.7333174  33.8868356
  40.0045633   3.8456348  28.6602354  39.3979716   4.5823887  28.7341905
  40.8657789   4.2528823  28.5669947  75.5237865  14.5405436   9.5544374
  76.2515497  14.1389585   9.0797597  75.3205061  13.9179385  10.2524853
  48.6744356   6.8068773   6.1444789  48.5248661   7.5544912   5.5657440
  48.3220768   7.0843363   6.9901091  61.4064264   3.9511377  28.9220428
  62.3016691   4.2821184  28.8497686  61.1830378   3.6690101  28.0350637
  58.8514042  67.0003414  24.1184258  58.3931351  67.3220396  23.3420682
  59.0078592  67.7835989  24.6459317  81.1263084  -0.1838153  55.8851385
  80.2757835   0.2303909  56.0309649  81.5667248   0.3882851  55.2566719
  76.6990042   1.6520500  46.8525219  75.9270334   1.0925405  46.7674398
  76.3798475   2.5323528  46.6539335  37.5294065  66.1102867  21.0009336
  37.1138620  65.2577543  21.1303377  37.9665351  66.0373545  20.1525021
  82.0339298  56.8316221  68.2454920  82.1671295  55.9501791  68.5941362
  82.9116631  57.2122478  68.2148647  26.3973927  56.4943886   9.6694618
  25.6266928  56.0917854  10.0696695  26.2391186  57.4358559   9.7389126
   2.2744493  65.6591892  40.7293892   1.3200668  65.6056929  40.7796240
   2.4678349  66.5910196  40.8320141  70.5088425  74.4434404   8.5513330
  70.8585501  73.9110518   9.2658257  70.5657434  75.3431702   8.8730204
  63.4261227  62.3220348  59.1262341  62.9100180  62.1638918  59.9167156
  63.5826969  61.4499807  58.7639666  10.0216568  32.9218435  37.5066280
  10.3130889  32.1358371  37.0445752   9.9533045  33.5894251  36.8240643
  37.8309941  19.1910541  40.8374310  38.0534720  20.1220155  40.8442688
  38.6033940  18.7575436  41.2003422  76.1696291  74.0577602  16.3993990
  76.0298300  73.1234217  16.2454569  76.9413567  74.2739010  15.8759987
  58.4163094  55.5133152  39.9512911  58.8632393  55.1366806  40.7093334
  59.1237497  55.8207178  39.3844914   9.0426882   0.4740730   8.0980170
   8.8845356  -0.4641708   7.9935306   8.9830692   0.8273235   7.2103846
  73.5368681  76.5220356   4.7504342  72.9963684  76.8868017   4.0496916
  73.6253691  77.2365093   5.3812492  80.4909992  43.5187197   4.4358045
  79.8737621  43.6724186   5.1510817  81.3445282  43.4582233   4.8648277
  81.7397690  16.1829758  49.8894072  81.0392380  16.2094235  50.5411720
  82.4595070  15.7308257  50.3295898  11.9709599   4.7907576  31.0920310
  12.4649620   5.5617267  30.8131027  11.0811901   4.9494794  30.7768345
  53.3636189  77.8500986  32.5181055  52.9474068  77.1340418  32.9979610
  53.8026285  78.3675098  33.1932259  10.6329286   1.8509439  24.0667319
  11.0644197   1.6066211  24.8854852   9.7340935   1.5374126  24.1668558
   8.0788636  34.3490124  13.2615328   8.1331605  35.2534318  12.9528093
   8.6117285  33.8517308  12.6410508  58.1971312  73.1396198  22.5301433
  58.1076765  73.4589958  21.6322398  58.7435055  72.3574877  22.4528456
  76.8529367  48.1158352   3.1024101  76.6303253  47.2654295   3.4812132
  77.3957253  48.5395145   3.7673220  19.0986884  50.6532145  25.2913475
  19.2977262  50.3363180  24.4103312  18.7562001  51.5367985  25.1563740
  68.4815454  77.8545713  26.3613796  68.3306742  78.7940550  26.2572598
  69.2777300  77.6826811  25.8586097  82.9743481  43.2703733   5.4853785
  82.6055813  44.0097761   5.9686232  83.2685566  42.6632547   6.1644095
  52.4473429  14.1076469  15.7348108  52.7904129  13.9624488  16.6165447
  52.1966696  13.2360101  15.4287994  51.2886238  59.6915436  43.8169861
  51.4920568  60.0578547  44.6776009  50.8045912  60.3856421  43.3695745
  78.7360620  74.4493532  22.7052164  78.0835819  73.9596224  23.2058811
  78.2662725  75.2216864  22.3905253  70.4700756  53.9394903  66.0442972
  69.7501898  54.3189001  65.5402708  71.2610054  54.2658234  65.6151438
  61.3896751  77.3217106  24.1284108  60.8454657  76.5343332  24.1182518
  60.8064175  78.0119371  24.4440508  82.1531963  28.0737638  15.7139647
  82.3895359  27.5316191  14.9613309  82.6642418  27.7133608  16.4386570
  77.4600410  77.0963049  39.6443796  78.0988455  76.4410257  39.9250507
  76.6123819  76.7238235  39.8871994  63.6974907  75.4923201  51.9085789
  63.2960653  75.5998659  52.7708578  64.3205738  76.2159491  51.8425179
  71.6075182  36.2509441  36.0067153  72.2554445  35.9028363  35.3941417
  71.9939947  36.1084104  36.8707490  35.2713180  18.4297717  16.2193346
  35.3179097  17.5749850  15.7910824  35.9844398  18.4170222  16.8577111
   0.6659252  41.9152641  15.0800145   0.5614936  42.3891783  15.9050775
   1.4315632  41.3578987  15.2192044   5.2595496  19.5350587   5.1436311
   4.4796264  18.9802694   5.1309365   5.4128462  19.7538257   4.2244610
   5.2942359  12.4862683  25.7856393   6.1345702  12.9440498  25.7631540
   5.2051586  12.1060538  24.9117208  20.2441239  14.2621267  41.5917301
  20.9542465  14.8912406  41.4645529  19.4687665  14.8031366  41.7412663
  19.7283375  22.2624111  30.8535790  19.7019351  23.2166123  30.7826161
  19.3662894  22.0765591  31.7199564  23.3714581  42.2036743  20.2751756
  23.2385540  41.3037872  20.5731225  22.7032590  42.3343706  19.6023738
  54.1306257  70.2174187  48.5614252  54.2580414  71.1212873  48.2732821
  54.8747778  70.0425291  49.1375160   3.2154766  52.4991846  30.2845144
   3.3404592  52.0703077  31.1310816   2.7390924  51.8567801  29.7585845
  18.7445867   5.5315703  21.6730809  18.3032715   5.0537002  20.9708619
  19.4924283   5.9489274  21.2455559  54.0718031   7.7104533  18.4209669
  53.9998770   6.8729502  18.8788390  53.9956665   7.4839872  17.4940646
   3.6761877  20.3881860  13.1928515   4.4364256  19.8300850  13.3565378
   3.8693401  21.1997437  13.6622143  74.1970873  65.6079435  59.7267485
  74.8195648  65.7366133  60.4424334  73.8989782  66.4905977  59.5070076
  10.5073678   4.1875950  26.2817001  10.5783057   5.0983733  26.5675020
  10.1624680   4.2424032  25.3904819  13.0889559  43.9650249  55.1407385
  13.2506645  43.4043360  55.8994961  13.5987651  44.7562790  55.3146362
  61.5624714  41.5867519  48.7266064  61.4956903  41.1493158  49.5753860
  61.9216442  42.4504137  48.9298630  25.1591134  37.5114512  46.2799454
  25.9087563  37.9083419  46.7235041  25.4834604  37.2993279  45.4047155
  18.9010561  13.9177799  16.7228150  19.8534083  14.0129399  16.7370176
  18.6200225  14.1907859  17.5961530  58.9794540  51.4249372  67.7544117
  58.5266304  50.6001425  67.5786543  58.2766294  52.0542336  67.9164505
  30.3927183  10.8423829  27.8786588  29.6726966  10.9421337  27.2558832
  29.9926853  10.9980440  28.7342143  50.5975914  63.5117340  52.2865057
  50.4425383  63.1558847  51.4115381  49.9979687  63.0255890  52.8525019
  69.2965269  18.3486807  26.9856024  69.0246439  17.8554153  26.2116528
  69.5293427  17.6779056  27.6275468   4.9174058   1.5318157  67.0574093
   5.5433202   0.9943798  67.5428200   5.3162527   2.4016428  67.0338631
   6.3453686   5.0445986   8.3413559   5.5018836   5.4940748   8.3936656
   6.6070646   4.9194738   9.2535460  80.9858704  26.5589261  21.8031311
  81.8619061  26.3419127  21.4842129  81.1400032  27.1117425  22.5692058
  71.8815470  17.6130223  10.0520849  72.0140457  17.6457584   9.1046655
  72.6470232  17.1445286  10.3849363  24.3295741  35.0958252  14.0292156
  25.1481056  34.9833655  13.5459030  23.7134862  34.5036340  13.5979664
  22.0313096   7.3388332  27.7764988  21.9539070   6.3852853  27.8079247
  21.5421867   7.6441473  28.5405493  71.3196611   0.6983619  67.7909088
  70.7272387   0.1927887  67.2344351  70.7399702   1.2090808  68.3560276
  68.6694431  32.7797484  18.6377788  67.8442097  32.6290011  18.1768024
  68.9274693  33.6657381  18.3834672  23.5372305  30.4412794  50.4469490
  23.2493544  29.5711780  50.1707506  22.7492189  30.8528662  50.8017254
   4.6290573  31.6439605  26.7472196   5.2168238  31.3179255  26.0657048
   4.4761282  32.5595570  26.5137076  35.0208306  36.9713211  65.1596069
  34.5246649  36.2142944  64.8482227  35.6676960  37.1327162  64.4727707
  29.8199415  25.3612733  11.7708230  30.7155943  25.2421308  12.0868015
  29.3805075  25.8421421  12.4721742  43.0978394  73.9174509  60.9737635
  43.1058836  74.1414785  60.0431871  42.3984146  74.4561005  61.3437557
  30.0399494  47.2764063   3.8371757  30.9075975  46.8793440   3.9131138
  30.1963639  48.2151747   3.9395556   5.9492958  35.8140945  -0.1200558
   6.7300022  35.2648997  -0.1915737   5.5283970  35.5276608   0.6905191
   8.4149909  35.1632214  17.6445675   9.1944683  34.7251201  17.3029315
   7.8122908  35.1935983  16.9015586  42.5225067  27.0296550  49.6361637
  41.6148090  26.7280912  49.6733093  42.4554586  27.9778743  49.5238495
  55.0440693  54.3766594  18.4154427  55.6137657  53.6137009  18.3176088
  55.6461763  55.1129103  18.5232925  81.2009430   7.0001441  55.2790070
  80.4135609   7.4595553  55.5708981  81.9220543   7.4731517  55.6943226
   3.7948349  19.6761310  28.4978056   3.1678721  20.2703500  28.9101791
   4.0801385  19.0994871  29.2065501  24.8682213  23.2633376  30.4124689
  24.0254617  23.3104205  29.9610567  25.5153084  23.2243609  29.7082043
  60.5992556  31.5815639  16.3316882  60.9217834  30.7304525  16.6280222
  60.4196501  32.0638680  17.1387553  22.3966742  23.3823586  29.4337463
  22.0098042  24.1297364  28.9776874  21.6666245  22.7771115  29.5638800
  79.8100567  74.5610762  25.6001592  79.6450710  74.9009371  24.7206664
  80.5707932  73.9893246  25.4971862   8.3935547  31.6682076  39.2647815
   7.6876634  32.0425963  38.7377310   9.1957259  31.9964600  38.8585734
  52.3181105  32.2634101   0.3663450  52.4178791  32.6868200   1.2189897
  52.6765060  31.3847566   0.4918506  19.2080343  16.9231498  19.7789145
  20.0619316  16.5360081  19.5860088  19.2405176  17.7893305  19.3728244
  30.3310251  37.0657444  28.0795646  29.6568370  36.4137936  28.2710314
  31.1059713  36.7531300  28.5464263  79.3409920  58.0149031  11.7235005
  78.8155317  58.1087828  10.9289515  78.9929199  58.6772299  12.3204923
  82.1546745  18.5361624  52.2314358  82.0147705  19.2966270  52.7956629
  82.6753330  17.9351354  52.7642727  76.7414236   9.9123400   8.7999338
  77.1716213   9.0783232   8.6113161  77.3424625  10.3631163   9.3930483
  67.3963118   4.0334949   0.7739982  67.4153614   4.8513618   0.2770451
  66.5137291   3.6897385   0.6357640  55.4326105  20.9957647  26.4382792
  55.8554029  20.9721780  25.5798388  54.5671892  20.6147504  26.2895846
  13.3318269   2.2019076  31.5798640  13.2205057   2.0439938  32.5173616
  12.8390360   3.0051804  31.4121079  66.1704111  27.3117304  48.8716125
  65.2922535  26.9487309  48.9869595  66.0614586  27.9975200  48.2127857
  10.5610037  25.0881481  66.1968231  10.0072432  25.8166814  66.4775705
  10.9294844  24.7405648  67.0090055  10.4658210  56.9750547  14.2837369
  11.1579704  56.8697882  13.6309886   9.8833412  57.6366711  13.9106238
  -0.1041963  66.5630054  67.8801966   0.4801771  66.5256596  68.6373901
   0.4660246  66.3983154  67.1292257  17.5068808  13.4846222  14.4351244
  18.0174148  13.7822425  15.1881242  16.7771804  12.9975474  14.8179126
   0.0563042   9.4990140  13.9618194  -0.5062786   8.8941473  13.4782195
   0.7626062   9.7094601  13.3510149   3.4419668  10.3110647   4.9854758
   3.0673063  10.2235019   4.1090089   2.9424533  11.0205162   5.3896981
  63.1098747   4.5537069  17.2484136  63.0506229   3.6938837  17.6648569
  64.0427589   4.6683076  17.0672345  23.3120131  55.8719063  58.0847454
  24.0562725  55.9625053  58.6798096  23.6676717  55.4112577  57.3247814
  15.5978322  10.8129823  35.9621501  16.2382030  11.4064431  36.3545299
  16.1180663  10.0742435  35.6461525  37.2188425  69.7814941  63.6471510
  36.6249371  70.2015829  63.0250311  36.9032073  68.8798904  63.7081766
  27.8754997  14.5814908  34.3231201  28.5757256  14.4438088  33.6851859
  28.2562947  15.1721573  34.9729967  28.2128406  39.6077967  61.9493484
  27.9172468  39.2004633  61.1351395  29.0538645  40.0066185  61.7260742
  25.5834389  30.3776431  26.1183214  26.5081310  30.1940489  25.9525824
  25.1338959  29.5620990  25.8968997  24.5973158  25.6737542  26.7449403
  24.8052597  25.6151152  25.8124399  25.2103591  25.0707555  27.1654201
  80.2212238  22.1666384  20.8916306  79.9024916  21.2675357  20.9707260
  79.4519567  22.7095079  21.0641456  24.5131326  21.3912606  16.6329753
  25.4644370  21.3297892  16.5465391  24.2916226  20.7471633  17.3055112
  79.4142532  34.0756607  27.9580498  79.7407770  33.9892578  28.8536787
  78.4900904  34.3027592  28.0609059   2.6284620   8.4021300   9.4814062
   3.5338467   8.6712629   9.3262333   2.1037285   9.0270030   8.9809859
  22.5150681   1.3453057  38.4489322  22.1765327   1.1640105  39.3257189
  22.4973440   0.4973185  38.0052710  75.5106926  33.4623289  31.5056181
  74.8849249  34.0999293  31.1619496  75.6840563  32.8759599  30.7691741
  11.1835158  35.5313158   2.7500039  10.4039574  36.0862684   2.7733910
  11.1454141  35.1006651   1.8960007  37.9151654  21.4948297  54.2567301
  38.5845900  22.1678972  54.1339207  37.5792742  21.3276100  53.3761358
  58.1935263  37.1216512  64.9580908  57.5269794  37.3625016  65.6014681
  58.1607866  37.8214669  64.3058491  31.1930442  13.9306939  46.4316416
  31.8584418  13.2638443  46.6013145  31.4922786  14.3706155  45.6359291
  18.5424685   1.4862685  61.2696362  18.1759965   2.0784116  60.6129026
  18.4659970   0.6165569  60.8772278  44.0385580  74.3098593  15.5719292
  43.3194923  74.9396706  15.5217314  43.7884188  73.6119938  14.9664176
  25.0017619  57.5885773  54.3396616  25.1482415  58.5092926  54.5565891
  25.8512831  57.2782755  54.0261936  18.1971252  45.8577776  49.8348951
  17.6899421  45.6465816  50.6187248  18.3597040  45.0109100  49.4194269
  31.7636204  71.8762779  63.1119728  32.4431562  71.8047667  62.4416351
  30.9428668  71.8962097  62.6198387  53.6120367   3.7838668  25.7129002
  53.1553173   4.1897148  24.9760675  54.5403051   3.9229557  25.5252719
  32.9403424  28.9447999  28.6099911  32.2049546  29.5323777  28.7837410
  33.4461331  28.9473414  29.4226432   8.1270063  50.1692963  44.3507147
   9.0517908  50.2273941  44.1106510   8.0896771  49.4575548  44.9896669
   8.5080576  47.6482582  28.8816261   8.7086165  48.5221863  29.2166710
   7.6927245  47.7604151  28.3928680  28.7740636  73.4841871  52.2027397
  29.2946124  73.4720135  51.3995504  28.9368010  74.3484831  52.5805473
  46.8064356  73.0844736  58.0060387  45.9983969  73.4384584  57.6345539
  47.4697065  73.7466002  57.8113985  77.1495867   8.2162815  18.5363925
  78.0050087   8.5438657  18.8141847  76.8277788   8.8769126  17.9230070
  63.2169771  15.2065265  28.9155316  62.8200960  14.3375146  28.8560915
  62.4866438  15.7897627  29.1221285  41.9638014  20.2046466  30.1776624
  41.8021679  19.2650008  30.2623415  42.8522778  20.3259754  30.5125022
  32.4006557  45.4458141   3.4773082  32.1027303  44.5900440   3.7857428
  32.8920484  45.2547026   2.6784062  14.7456813  38.5927296  14.2733085
  15.3749740  38.9897537  14.8754692  14.0585911  39.2520165  14.1759396
  32.7073598  38.2543302   7.1012187  32.3677754  37.4635577   7.5202584
  33.0733061  37.9475045   6.2716562  59.5600414  68.4360504  28.1740665
  59.5227194  69.0295362  28.9241409  58.9859486  68.8378048  27.5219631
  52.0175314  38.5351038   5.6133986  52.1487188  39.4730854   5.7520038
  52.7438164  38.2726812   5.0478184  34.0638947  64.6816301  62.3626804
  34.1741228  65.1173019  61.5175343  33.1161261  64.5973063  62.4668646
  82.9787922  10.0793731   2.7729547  83.5648823  10.5425143   2.1744327
  82.1036434  10.3872740   2.5372806  25.1707458   8.5623318  45.0771427
  25.9616256   8.6281675  44.5419741  25.3042889   7.7758408  45.6061316
  76.9356298  19.3577206  48.5423660  76.8952274  20.2579093  48.8652611
  77.8262472  19.0706956  48.7439775  43.7836838  73.9721632  57.8661585
  43.8384342  73.0240440  57.7465868  43.1443548  74.2592716  57.2141933
  23.2146621  16.8691230  44.2915392  24.1030860  16.5848303  44.5062780
  22.8923583  16.2066901  43.6803675  46.0794497  15.9449339  57.0148611
  45.3436327  16.5544844  57.0719099  46.2359238  15.6730676  57.9192066
  18.3440745  19.7521830  14.3629456  19.0989721  20.2549195  14.6689153
  17.8957307  19.4817090  15.1642334   7.4917537  24.7981954  51.0768557
   7.2579420  25.1226640  50.2072096   7.4248844  23.8461757  51.0032606
  12.9416144  34.4010639  34.8036194  13.7695730  34.8465395  34.9832487
  12.8328109  34.4710684  33.8552046  25.5880833  38.8505101  27.4095654
  25.1362133  38.0554676  27.1268106  26.1203074  39.1045213  26.6556120
   2.8125238  27.8480339  31.9755387   3.2972947  28.6733770  31.9818258
   3.4621722  27.1905756  31.7266655  70.7622766  24.4390059  37.2563910
  70.3132629  25.2494049  37.0158243  71.6814137  24.6026468  37.0451093
  83.1952381  33.6018777  10.2936304  82.6866436  33.8515615  11.0651410
  84.1031742  33.5966468  10.5966902  61.2852144  15.4403365  16.9621503
  61.6399813  16.2830937  16.6790736  61.8388939  15.1828182  17.6992762
  16.2081087  61.9679499   4.9295038  16.0278058  61.0279274   4.9205789
  17.0625925  62.0439100   5.3541434  76.5228462  16.8043220   2.8937781
  76.0800791  15.9778261   2.7011931  76.7687178  17.1499419   2.0356831
  41.2553406  21.2879992  58.5911465  40.7119179  21.9043326  58.1001711
  40.6285906  20.7355714  59.0583134  76.3754606   5.7610309   3.8456821
  76.8701077   6.5677857   3.7017956  76.0146904   5.8552867   4.7272670
  18.5439253  14.4396400   3.2043383  18.2753170  13.5580313   2.9457900
  17.7908099  14.9912238   2.9926682  34.4768858  31.1780739  40.5864716
  34.4913340  30.2714896  40.2796745  34.9697781  31.1611891  41.4068413
  22.7153683  25.2364254  23.5393834  21.9580078  25.5294132  24.0461302
  22.9975319  24.4316101  23.9739943  80.9107685  23.2126403  28.8068533
  81.6063881  23.4923458  29.4019270  80.2902889  22.7456045  29.3664265
  45.7714319  71.7995930  18.6327159  46.6049910  71.7120028  18.1703937
  46.0151052  72.0805311  19.5147181  13.4756434   0.3634071  45.3895044
  12.9352951   1.1529779  45.3606415  14.3581915   0.6693801  45.1804066
  28.6769867  38.9648032  13.5588074  28.8836050  39.6524215  12.9257798
  28.8117385  38.1482029  13.0779362  20.5279660  41.2553549  21.3236213
  21.1826873  40.6094646  21.5889478  19.8496521  40.7423019  20.8844209
  83.0702686  31.8279171  35.7401276  82.7140141  32.5789833  36.2146997
  83.9244652  31.6730452  36.1433649  45.2820396  53.0451059  36.9111562
  45.0618267  52.2168636  37.3374748  46.2385321  53.0487585  36.8745542
  37.6114297  34.8511887  29.6998453  36.9482279  34.1964579  29.4813943
  37.4979043  35.0033164  30.6380367   6.0353255  22.4376011  32.1573973
   5.3192157  22.1191120  31.6078663   6.0511297  21.8366575  32.9022789
   4.6357062  58.1254721  55.0424242   3.7340000  58.1241417  54.7212458
   4.8477545  59.0518236  55.1570654  31.2528658  57.9838991  58.4025621
  30.9633708  57.4001932  57.7013397  30.4631877  58.4601974  58.6590433
  17.3660731  31.5059233  42.0507145  17.6900816  30.8371115  41.4474392
  16.5347159  31.7892218  41.6701603  15.4191661  49.2551804   5.8994997
  15.1060653  49.1661787   6.7996544  14.6826100  49.6430254   5.4269606
  17.7192628  57.4794102   7.7136117  18.2756948  58.2567501   7.6650679
  17.7526772  57.2180271   8.6338258  18.4041345  38.9791155  15.9632146
  18.5372937  38.5214782  15.1331139  18.7509120  38.3806992  16.6249359
  70.6934071  77.5649405   2.0443057  69.8397684  77.8803444   1.7475629
  71.1513805  78.3528852   2.3369360  62.7863646  33.5368514  63.6502647
  63.7028790  33.4255099  63.3975983  62.5806141  34.4410324  63.4128714
  50.0206661  78.4102535  60.0041866  50.9663153  78.5418987  60.0723743
  49.6704769  79.2812109  59.8170090  61.5180159  73.8289404  33.0246544
  61.5422583  73.7001896  33.9728475  60.7403088  74.3667507  32.8757787
  21.8638587  49.0734863  18.2256329  21.8489218  49.2106867  19.1728318
  22.6704240  48.5829401  18.0673635  56.1752367   4.3748054  35.5185795
  55.6990194   4.5419034  34.7052360  57.0355701   4.0669549  35.2334785
  66.1410093   9.3626344  45.0700712  65.2658415   9.6895093  45.2785540
  66.4225912   9.8913497  44.3234730  78.9183187   3.3056551  17.6830983
  78.4824848   4.1292810  17.9020071  79.1835451   3.4105042  16.7693734
   7.8884965   0.6474987  24.2106462   7.0545167   1.0019782  23.9023376
   7.9534125  -0.2107729  23.7918520  52.3432446  57.6556540  63.1620312
  51.5591764  58.0965185  63.4892988  52.3389816  56.8038797  63.5987186
  32.7937222  72.8610706  46.0121822  31.9809079  73.1550980  45.6009483
  33.1814027  72.2614479  45.3746939  57.4248648   3.1889650  64.7916222
  57.6695299   3.5713124  65.6343460  57.0805311   3.9249283  64.2856312
   6.3364935  49.2915440  32.5709033   6.3071424  48.8661623  31.7139196
   5.4623449  49.6650982  32.6829410  43.4758139  11.4993477  21.6600204
  43.7030792  12.0817268  22.3848772  44.2025089  11.5893984  21.0435486
   4.2754948  28.1262708  14.6322346   3.9774734  28.9928102  14.3556070
   3.4751078  27.6042628  14.6880949  45.0698233   2.6387325  26.3289618
  45.5878830   3.4165946  26.1221361  44.8608828   2.2565266  25.4766154
  78.8812780  22.5819111   2.9666004  78.6233854  23.4054708   3.3806926
  78.2570267  22.4684143   2.2499005  79.5223236  19.5684361   1.5366839
  80.2114487  20.2176452   1.3957119  78.7069654  20.0634933   1.4570636
  17.0566058  15.9464931  30.4236746  17.8916776  16.3960946  30.2942729
  16.9291651  15.9463167  31.3723516  71.8726110  27.1010900   4.0877986
  72.1242762  27.7717328   3.4528685  72.3833847  26.3310623   3.8379976
  32.0568871  54.0583944  49.8080111  32.8105140  54.4857836  50.2149725
  32.2744036  53.1263256  49.8207140  54.1239500  51.9108152  57.5902653
  54.3209505  51.2099552  58.2117319  54.3364143  52.7160645  58.0621338
  40.4853058  25.9708238  10.1690805  41.1949873  25.5403090  10.6457746
  40.7302713  26.8960929  10.1590800   9.0198570  15.3693962   5.9851545
   8.9060307  16.1845767   5.4965270   9.5197773  14.8046696   5.3957528
  51.6763210  31.3061643  16.9903243  51.2167931  31.2252736  16.1545467
  51.9497204  30.4132962  17.2007275  15.9955060  40.7605743  15.6066978
  15.9659421  41.5198994  15.0246429  16.7803776  40.2831411  15.3378761
  63.9538336  50.1420546  67.6989889  63.1511402  50.6413746  67.8493023
  64.0352345  50.1005983  66.7461586  49.4155645  45.4381227  15.6909275
  48.7497091  46.0814476  15.4480338  48.9172125  44.6586227  15.9363914
  23.0974293  47.8277206  58.7040377  22.5904369  47.4398947  59.4173241
  24.0099812  47.7159166  58.9704609   3.9505136  50.7423496  32.5555658
   3.2306609  50.1122808  32.5230074   3.5762811  51.5115833  32.9850531
  58.4834719  74.0569019   3.3020470  58.5303116  74.9163580   3.7208188
  58.4244919  74.2493343   2.3662463  38.7014842  14.9991202  14.4920576
  38.1192327  14.2460263  14.3917465  38.2948422  15.5263412  15.1797426
  73.4005356  73.8443184  27.2255039  72.5647593  73.9812469  27.6715517
  74.0510798  73.8536692  27.9275966   4.7852570  78.6218405  48.3889866
   4.5314735  78.0778456  47.6434040   4.6530101  79.5201588  48.0860615
  11.2762117  53.1430006  18.3913338  10.7679307  53.1114197  17.5808489
  12.0477760  53.6644745  18.1700063  10.1069367  17.5889146  46.2477684
  10.2087259  18.5043716  46.5081692   9.1655922  17.4820244  46.1111021
  20.1696181  15.6879771  25.4448605  19.2844665  15.9151924  25.7296634
  20.4833770  16.4701533  24.9910021  63.4175777  38.0598855  46.2003565
  64.0788889  37.8139067  45.5535221  62.5942755  37.7335525  45.8371544
  76.1361694  59.0205908  34.6198273  75.4190588  58.7477112  34.0475321
  75.8464289  58.7778330  35.4992318  42.0264101  10.8080459  56.1328697
  42.1455479  10.0480473  56.7024660  41.9855881  11.5528679  56.7327070
  68.9310980  10.5465114  36.6621542  68.2021332  10.2768981  36.1034489
  69.6937037  10.5334687  36.0837936  17.7452350   5.1405340  62.9165888
  17.1559978   5.2253079  62.1670294  17.4185872   4.3772107  63.3929014
  16.5350437  28.9567256  54.1447258  17.4636674  29.1289735  53.9890957
  16.0779846  29.5661592  53.5651398  72.4109793  27.7861786   0.2277708
  71.6388035  27.2345519   0.1025039  72.4353218  27.9537749   1.1698699
  62.3543167  41.5026093  67.7051306  63.2048273  41.0811424  67.5817537
  62.5555182  42.4368811  67.7588129  22.8457379  19.4078159  15.6104612
  23.4473729  20.1004076  15.8835638  23.3421755  18.5982537  15.7304204
  14.6150911  41.2680864  43.3581829  15.0933075  41.6954708  42.6476336
  13.7121487  41.2199259  43.0441666  26.9542742  49.0644026   2.1601741
  26.1447001  48.5981703   1.9517313  27.6511621  48.4565353   1.9130337
  72.5608301   8.1691736   2.6790023  72.1917200   7.5628632   3.3211699
  71.8496275   8.3210760   2.0566261  21.9373870  26.2361050  19.5259356
  22.8119898  25.9978414  19.8334002  21.8185186  27.1396732  19.8186195
   7.6926637  33.8831067  28.8318801   7.1493131  34.4801402  28.3175325
   7.0698160  33.4004354  29.3753147  18.3773112  75.8658981  35.2076054
  18.9254630  76.5948486  34.9171066  17.5902557  76.2829208  35.5581284
  72.1488857   5.4419822  39.6396971  71.7375565   6.1569101  40.1254129
  71.5016031   4.7370332  39.6571565   7.7985680   2.9770213  63.4806395
   7.3233736   3.2772923  62.7058744   8.1744987   2.1361741  63.2200909
  31.8833137  28.2647419   7.8115070  31.5949750  27.8871083   8.6424613
  32.4958920  28.9561462   8.0623829  10.8559823   2.8127894  66.4593220
  11.6601300   2.7447540  66.9740582  10.4662991   1.9398208  66.5073299
   8.7167263  77.4318314  43.6575222   7.9048043  77.1237183  44.0601158
   9.2600858  76.6472912  43.5834455  53.1855011  63.3855772  50.6930017
  53.9071083  63.3590651  50.0646591  52.4239349  63.0871010  50.1958513
  70.2810335  11.5105236  61.8234110  71.0070324  11.5514779  62.4458933
  70.2848816  10.6060517  61.5101290   2.1788554  10.3532410  40.6061125
   1.4916849  10.9559596  40.8902979   2.8963000  10.5002201  41.2224770
  69.0223360   9.1616750  25.2150631  69.8975611   8.7759334  25.2527547
  68.6183786   8.7640899  24.4437146  25.9231448  45.2590227  20.0432730
  26.1465597  44.5570517  19.4320846  25.0089598  45.4647684  19.8479080
  68.4430790  65.9139299  60.4912663  68.1064892  66.4441347  59.7688913
  67.6710653  65.4706097  60.8429670  14.2334664  71.1375713   9.7306848
  14.6150243  72.0154047   9.7379708  14.8590398  70.6004572  10.2168918
  47.5360107  59.0383339   2.0134643  46.8606758  58.3929062   1.8047073
  47.9740763  58.6847830   2.7876312  12.8488469  30.5110717  10.8185530
  13.1803918  31.0400510  11.5441501  13.1429398  30.9714723  10.0325680
  42.7109146  47.5815725  21.6079283  43.1879282  48.1659412  22.1971726
  42.9822779  47.8521919  20.7307959   6.2242270  21.1424017  23.8333130
   6.1732322  20.2876854  23.4054255   5.4377377  21.1852670  24.3772149
  29.1651249  46.7905712  25.7934284  28.7142444  46.8792200  24.9537373
  30.0567055  46.5317202  25.5603862  15.5974436  48.4810734  38.2581019
  15.7424331  47.6132393  38.6350274  15.7455873  48.3625126  37.3198986
  74.0893841  75.7579517  55.8708382  74.3067360  76.6192007  56.2275553
  74.8209238  75.1987982  56.1324215  77.5299120   1.5616544  62.1976376
  78.4050941   1.9225293  62.3392487  77.2814703   1.8707345  61.3264418
  64.8620129  42.1396780  49.1637802  64.4705963  42.1065664  48.2908964
  65.7923746  42.2974348  49.0032482  26.3652635  14.3535221  23.3457494
  25.4206514  14.2722464  23.4774137  26.6537952  13.4673238  23.1274915
   8.3753264  55.6245422  57.0058918   8.4447896  56.4094019  57.5494003
   7.4901980  55.6617928  56.6434097  11.3765931  62.1841240  54.3698931
  11.6638720  62.5249004  55.2169895  12.1842515  62.0820761  53.8664007
   3.7829629  33.3522630  16.3647139   4.3104506  32.8969550  17.0209789
   4.4115296  33.6146569  15.6921923  29.3823385  48.4435415   7.2612929
  29.9359226  49.1896629   7.0308894  29.9833131  47.6990461   7.2893661
  69.4765806  20.9008956  18.9981246  68.9226246  20.1983738  18.6577892
  69.0983248  21.1119795  19.8517060  16.3711822  19.5845759  42.0701551
  15.5412745  19.6665514  42.5400114  16.1334932  19.6722507  41.1470890
  11.3241601  38.7750268   9.1507882  11.7546177  39.5956874   8.9110959
  11.8849659  38.3998036   9.8297101   7.7681174  78.4146160  35.2882600
   6.9514861  78.5039457  35.7795525   7.9322709  79.2891523  34.9354553
  39.3378615  38.3072376  19.3015277  39.1274381  38.9154840  18.5930145
  38.6748028  38.4796143  19.9700117   6.4287311  47.5906849  27.0955610
   5.4798239  47.4779272  27.1511793   6.6959643  47.0197248  26.3752675
  78.6356068  32.1583176  44.9060965  77.8847027  31.5663791  44.8615885
  78.6448956  32.4656868  45.8125591  37.1539998  37.3290944   8.2943958
  37.6289678  37.1998477   7.4734610  37.0794225  36.4512825   8.6687171
  44.9383163  41.2875748  17.6165092  45.1896667  41.5270281  16.7244792
  45.2926159  40.4065418  17.7368522  67.1680069  33.3503985  51.2904787
  67.9139376  32.9524827  51.7393398  67.3152399  34.2928171  51.3704967
  24.6199063  57.0711999  67.8766943  24.4086674  57.6287572  68.6255215
  24.0234832  57.3611109  67.1864313  30.8016825  47.4071789  16.9773781
  30.6887460  47.9855871  17.7316487  29.9790597  46.9207716  16.9232571
  63.8036394  23.1719208  18.8156974  63.9611387  23.9878082  19.2908335
  63.4063816  22.5901961  19.4637811  44.3313694  43.8159132  31.6343689
  44.0849400  44.1724443  30.7809091  43.8260078  44.3303490  32.2638130
  11.9996166  14.4740212  65.1188517  12.5664306  13.8697040  65.5981779
  12.5997615  15.1177526  64.7424650  17.0006633  53.4215355   7.0221490
  17.6197028  52.7036762   6.8891251  17.0411909  53.9263630   6.2099057
  39.5004702  46.7693186  20.1776743  40.1163530  46.0656977  19.9731302
  38.6576271  46.3274574  20.2806783  27.5872731  53.4216595  37.1591187
  27.4435234  54.0380239  36.4410233  27.2005415  53.8495302  37.9230523
  15.3034961  21.9432378   4.5366243  15.1744568  21.4083052   3.7534094
  15.4869926  22.8203273   4.2000595  76.7840481  18.7873662  12.3794103
  77.1501923  17.9048979  12.4378955  77.5486994  19.3617165  12.3386085
  38.1389284  27.7989411  10.6682074  38.7522316  27.2606158  10.1679122
  37.2839856  27.3991656  10.5085623  35.2566695  18.0932975  57.7617407
  34.4701099  18.5193694  58.1023598  35.4403424  18.5503900  56.9410324
  72.0685244  66.8422985  64.5461035  71.3346243  66.5057182  64.0319633
  72.3682833  67.6110220  64.0608788  30.8624244  32.9196191  10.8247817
  30.3358865  32.3695922  10.2447283  31.2169743  32.3122501  11.4741111
  27.8356004  32.5356722  30.5518723  28.3814692  32.7181339  31.3167024
  28.4019899  32.7227497  29.8032475  10.0026274  53.8286734  46.2421465
   9.2011988  53.4075212  45.9313774  10.0030231  53.6751223  47.1869469
  55.0574112  76.6638231  57.0701170  55.1024961  76.3761330  56.1582851
  54.8110962  77.5873184  57.0179987  83.6507847  78.3418560  58.9463711
  83.5942728  78.5518360  59.8785448  83.1674268  77.5206041  58.8561201
  49.5855665  69.6535730  37.8972292  49.9673986  68.7816763  37.7960968
  49.5282078  69.7815752  38.8440967  25.4454350  45.5773830   5.0140417
  25.9469175  46.1161995   5.6259465  25.9635115  45.5837440   4.2091885
  29.4534278  40.0951052   6.1704165  28.9770722  40.9241915   6.2144256
  30.3740335  40.3506279   6.1119044  82.7791882  17.5049448  62.5646114
  82.7412128  18.1844831  61.8915462  81.8897438  17.1530128  62.6001072
  13.4151256  60.1867962  25.4320431  14.0687144  60.8136177  25.1219678
  13.8211489  59.3306398  25.2965140  21.2532725  22.8830345  68.1521776
  22.1241297  23.0398138  67.7871271  21.1407198  23.5716541  68.8074390
  38.2599664  21.3864231  17.0438850  38.0247235  22.0136857  16.3601947
  37.4543715  21.2670326  17.5468671  24.9388194  69.9261618  20.6319904
  24.2252088  70.4826593  20.9439230  25.7340240  70.3625631  20.9376621
  45.2420187  61.5403891  11.9063842  45.8345747  61.8513441  12.5907910
  44.6871567  60.8953381  12.3448741  16.1322021  54.2036819  47.1685791
  15.4286492  54.8522902  47.1451044  16.9250739  54.7159863  47.3270941
  41.3398886  43.4846687  13.6110544  42.2880507  43.6077785  13.6564863
  41.1207676  43.6485434  12.6937962  33.2638907  62.3667431  13.7184155
  32.8545237  63.2195139  13.5720110  32.5938797  61.7324877  13.4634030
  44.3513298  63.3242559  52.7653503  44.0338135  64.1286850  53.1756020
  44.9677563  63.6234426  52.0969677  26.7786074  17.0293272   4.5409930
  25.8552790  16.8224323   4.6855223  27.2215319  16.7099309   5.3271461
  23.7834501  43.4900618   5.6665820  23.7389231  43.0344868   4.8259270
  24.4367266  44.1767263   5.5325764   3.8778380  12.9082382  59.1535473
   4.7768563  13.2363284  59.1723824   3.9248127  12.0558882  59.5865917
  39.8216867  40.6406641  10.3138709  39.5102978  41.4588022   9.9266845
  40.5032921  40.9110355  10.9291339  49.6573496  50.3716421  10.6244397
  50.4173136  50.0742483  11.1246872  49.9927568  51.0839701  10.0800788
  39.5397210  40.8957005  23.0375862  39.6223617  41.8458557  23.1188512
  40.4180622  40.5983114  22.8002882   3.1515065  12.1680331  62.2380447
   3.3456528  12.5643528  63.0874395   2.2171143  12.3289001  62.1066523
  28.2196832  36.9630909  21.4528942  29.0404987  36.6421151  21.0794401
  28.1513166  37.8654528  21.1409593  14.7535396  32.0965028  19.3732512
  15.5359590  32.6475191  19.3940485  15.0259423  31.3115740  18.8979447
  69.5624208  21.7244768  65.9541988  69.2174292  22.4142790  65.3872871
  69.8260736  21.0288978  65.3517962  12.5342381  48.2212591  50.1971769
  12.3818243  49.0447426  50.6607246  12.7237177  48.4848213  49.2966938
  19.0093577  29.2586827  64.5357466  19.5015419  29.9752331  64.9364233
  18.6987579  28.7379217  65.2763987  76.7320204  70.1968098  13.0508983
  77.6524258  70.0761652  12.8173804  76.2786913  70.2650738  12.2106218
  33.8331461  71.2281418   1.0718922  34.3637800  70.4317474   1.0514374
  34.4716620  71.9408226   1.0966635  40.3561354  58.5650682  42.5271511
  40.4188871  58.2119894  41.6396666  39.4337988  58.8010502  42.6263762
  45.8299303  15.1712191  67.7966261  45.8628750  15.5323410  66.9107723
  46.3433552  14.3649638  67.7458477  62.3849010  54.1353369  -0.2724280
  62.8104687  53.7876272   0.5112947  62.0410013  54.9862862  -0.0006790
  27.3332930  72.5729752   9.1105098  26.6433930  72.9850531   8.5904503
  27.0502234  72.6876020  10.0176835   6.5179116  29.2511845  16.3978255
   6.3204813  28.6401129  17.1076453   5.7732272  29.1741395  15.8013856
  12.6773822  25.3133702  27.8173423  12.4137735  24.4374871  28.0994296
  13.3032835  25.6008244  28.4820604  30.9437108  50.5382442  11.0907447
  30.3702736  51.3038921  11.1252117  31.3504934  50.5824327  10.2254081
  27.9208112  39.8337102  20.5330133  28.6169744  39.6706533  21.1694098
  28.3250952  39.6534204  19.6843183  36.6456079  46.5852833  20.9775305
  36.4570022  47.3305798  20.4072738  36.4041066  45.8187437  20.4576039
  28.2385302  42.6304245  21.2508821  27.8880906  41.8317747  20.8564425
  28.9162636  42.9214239  20.6407762  28.6757755  63.8641262  37.1996427
  28.6304665  64.6862841  37.6877379  27.9194355  63.8915014  36.6136122
  42.2413063  41.0742950  16.8785167  42.5101995  40.1797819  16.6692936
  43.0161285  41.4701986  17.2774446  11.1704528  10.1811445  60.5339622
  11.7984140   9.4699258  60.6607151  11.6950524  10.9788632  60.6023216
  66.5809059  65.8494616   6.5204203  67.0963430  65.0429249   6.5125191
  65.7029533  65.5700970   6.7799997  30.1033974  26.1420655  61.8090153
  30.0085187  26.9952798  62.2324038  30.4028535  26.3462782  60.9230947
  75.0608873  30.0979972  55.6189632  75.1544952  30.0829840  54.6664715
  74.5978737  29.2864585  55.8269501  63.4171295  47.5482988  61.2103558
  63.9166069  46.8107414  61.5607357  63.5635567  48.2563066  61.8376589
  68.1785536  57.3094893   9.9815446  68.0112457  57.9950953   9.3348730
  68.8799143  56.7836332   9.5970958  26.3077354  48.1375742  26.0577011
  26.9670296  47.5413036  26.4127040  25.5426025  47.5837231  25.9026074
  25.8672357  16.8005645   0.4136662  26.0108590  15.8605480   0.3042397
  26.5278959  17.0711720   1.0512626  68.5823679  19.4611728  13.6974430
  68.9378738  18.9942527  12.9412460  67.7364779  19.0439320  13.8605738
  56.5947914  74.6420288  45.7623148  57.4239445  74.9805927  46.1001110
  56.7817402  74.4161367  44.8511314   8.7100977  51.0011196  15.2897859
   9.3126720  51.6453409  15.6614268   9.1408986  50.1587105  15.4346716
  28.7440777  65.6861353  44.5279408  29.0983582  66.3637877  45.1037025
  29.4155836  65.0040483  44.5193577  79.9806070  29.6750975  31.8913627
  80.0783539  28.8933563  31.3477087  80.8754730  29.9877286  32.0244193
  50.5692768  61.0726786   8.3916086  50.1775122  60.4651928   7.7641457
  50.3360176  60.7154655   9.2484725  29.4653368  58.8301325  47.6004934
  30.3883219  58.9034081  47.8433132  29.2420864  59.6904993  47.2453022
  24.3433475   2.3675953  11.8549442  24.6740341   3.1759614  12.2466338
  24.6691418   1.6732270  12.4276054  33.0151987  45.8160877  14.9613738
  32.2623873  45.4547071  15.4292512  33.4920645  45.0484848  14.6457601
  26.9431686  63.9330626  39.9780774  26.6134453  63.0351400  39.9427509
  27.8036523  63.8888168  39.5611310  80.4966640  14.5632648  33.3191037
  80.7876396  14.0429199  32.5702310  81.2578297  14.5954800  33.8986063
  12.6552403  27.7673268  21.2966251  13.1838858  28.3152699  21.8767309
  12.4798572  28.3225012  20.5368519  38.6563921  43.8017130  31.0876131
  39.3517089  43.9408684  31.7305756  38.6787176  44.5846844  30.5374408
  55.5185699  76.3782501  54.2405748  55.7695913  77.2947121  54.1251707
  54.7969484  76.2482691  53.6252689   6.8007410  43.7498093  19.0079200
   7.5970334  43.7602282  19.5389962   6.4520580  44.6381903  19.0816081
  47.5757360  18.2199204  11.7960489  48.3967733  17.8616905  11.4587009
  47.3581743  17.6596844  12.5410545  27.0727539  32.5504732   5.5295390
  27.0379949  33.5062528   5.4906994  26.3808036  32.2612715   4.9347302
  60.2513742   8.2583046  17.7207768  59.9474525   9.0896457  18.0851030
  59.9299192   7.5966215  18.3332098  83.2033634  41.7083168  10.1746535
  82.3181343  41.8960476  10.4866886  83.5558605  41.0882521  10.8130074
  60.9381342  74.4206429  62.5200796  60.0627136  74.7283459  62.2851467
  60.8133650  73.9496946  63.3440161  40.4492569  13.1419706  30.7249641
  40.2375507  13.5989511  31.5389538  41.3739491  12.9110038  30.8134794
  11.1705637   1.7948140  44.7983551  10.3550124   2.0202447  44.3508196
  10.9315515   1.0768165  45.3845167  80.0321388  50.3937769  34.7441506
  80.6152916  50.9102774  35.3003740  79.3726969  50.0471830  35.3451920
  19.5150161  65.6246233   9.3318105  19.2943704  66.5536690   9.2653239
  20.4338312  65.5771685   9.0676957  60.1234388  65.6448936  55.9026623
  60.5379057  66.4475489  56.2192011  60.6942415  64.9420595  56.2132025
   2.4857347  62.4290419  23.5901213   2.5913525  63.2877779  23.1806707
   3.2768989  62.3159313  24.1169024  47.6396513  53.4515715  12.3644626
  47.7424479  52.6812124  12.9232192  47.7528095  53.1185627  11.4742196
  32.9335332  75.4265881  65.4937363  33.1692791  75.3172541  66.4149904
  33.3540177  74.6901035  65.0498724   3.8651243  69.9173498  13.9861071
   3.3002004  69.2883301  13.5372996   4.3499520  69.3921423  14.6227622
  11.5464830  77.3900509  26.8594790  11.2722397  77.6157045  27.7483559
  12.5021744  77.4376917  26.8843198  38.8123631  47.1512365  17.5346994
  38.5222459  47.9937220  17.1850145  38.5830808  47.1856260  18.4633970
  50.3927422  67.6969767  67.8341770  50.3468752  68.4266520  67.2163582
  49.8324060  67.0225239  67.4502945  22.2795796  39.2716312  18.6732030
  21.5967894  38.6758876  18.3647931  22.1841908  40.0499678  18.1242681
  21.4424109  30.5557990  22.0000076  22.3060155  30.7139182  22.3813462
  21.1686659  31.4095521  21.6647482  32.5775719  54.8531675  58.0897141
  33.2836986  55.3578949  57.6861477  31.8197608  55.0083351  57.5259066
  12.1102202  15.3285587  30.4033947  12.2300804  16.1730063  30.8378768
  12.9986072  15.0347149  30.2017593  64.5863485  73.7796545  26.9752479
  64.0884304  74.3051720  26.3490367  63.9267778  73.4375620  27.5787115
  34.5403934  34.9019408  12.4137187  34.6226692  34.3081760  11.6674590
  34.1548848  34.3647528  13.1058478  75.9629917  34.2623258  10.6287205
  75.1439619  34.1241264  10.1529896  76.5596342  33.6026430  10.2750719
  71.3825083  56.6650295   9.7719425  71.7679167  56.0868979  10.4303157
  71.3949108  57.5319004  10.1776743  71.9931602  74.1651154  11.4262748
  71.8470478  73.2279634  11.5552211  72.5531864  74.4231749  12.1584034
   2.5799316  34.4317222  48.6157131   2.4991433  34.1329861  47.7099180
   2.0420037  35.2224445  48.6560106  42.3569059   5.2682400   1.4805867
  42.0005274   5.5627662   2.3187277  43.0083275   5.9309888   1.2511456
  29.2819595  79.0980387  45.0146008  29.6539879  79.4722843  45.8132076
  28.9107823  78.2607460  45.2928114  13.7647307  26.1455512  44.9761868
  13.3928204  26.3710523  44.1235018  13.0040479  26.0161829  45.5426264
  34.3046546  73.4269571  64.3301296  34.8295832  72.7931547  64.8189783
  34.6182346  73.3531809  63.4287691  44.5902538  51.7804003   3.1464690
  43.7041235  52.0027494   3.4320664  44.5086956  51.6349649   2.2039041
  26.3291454  14.0124059   6.2727696  27.1855426  14.4192433   6.1412477
  25.9811449  14.4352305   7.0578480  25.3850269  51.5994549   9.1073328
  25.4667115  52.1609735   9.8782122  25.4624891  50.7091475   9.4502360
  57.7980757  51.1599493  51.2169743  58.1837416  50.6020641  50.5415058
  57.0577335  50.6538725  51.5516567  49.6623898   5.3805208  15.6739450
  48.7773228   5.2599478  16.0179710  50.2130938   4.8311818  16.2317848
   6.2669450  23.5207486  20.0761700   6.7137760  22.8893781  19.5123041
   6.7342055  24.3435669  19.9317086  19.8182476  29.1574311  36.9813490
  19.0810919  28.5602689  37.1087575  19.8787081  29.6423221  37.8044271
  67.5404739  70.7602406  46.4697409  67.3481226  70.8699942  45.5385113
  68.2494164  71.3797426  46.6425085  10.8310592  69.3630934  28.4598112
  10.8600354  69.7016573  27.5649524  10.7582366  68.4144688  28.3547473
  25.9730244  64.8555899   2.7537659  25.4270887  64.1277981   2.4562749
  25.4758024  65.6392860   2.5196147  34.7776866  56.8971062  24.8256087
  34.6923280  57.7278662  24.3578672  35.5728149  56.5016842  24.4683313
  52.2430849  66.0444641  50.9905958  52.4979210  65.1361561  51.1526489
  51.7810440  66.3091516  51.7860174  33.5554028  39.9036455  13.2319605
  34.5023775  39.7855544  13.3062756  33.2048249  39.5475030  14.0483499
  71.2236643   2.8931823  50.8314610  71.6146898   3.5922354  51.3555336
  70.7632780   2.3458335  51.4676094  38.3487415  34.6955752   6.7846835
  38.1789517  34.4325876   7.6892507  38.2598758  33.8873625   6.2795812
  17.8595328  36.0250950  34.7169089  18.6457980  36.3808990  35.1309395
  17.5832534  36.7055941  34.1030502  55.6449080  49.9322319  52.7269936
  55.3234529  50.1334572  53.6058617  56.2954378  49.2431355  52.8618431
  12.5577235  60.5245590  30.5627155  11.8605626  59.8852491  30.4161429
  12.8976572  60.3131294  31.4321828  24.7804379  47.7214193  16.4052641
  25.4390931  48.3104849  16.7732418  25.2871943  47.0085764  16.0163128
  47.9752541  22.4609184  14.5852494  47.7732420  22.0023513  13.7696898
  48.0724764  21.7639852  15.2341437  26.0480642  71.1447001   4.1615909
  26.7684412  71.5531254   3.6815095  25.8346868  71.7718649   4.8525092
  52.0084238  74.7693443  65.7708359  52.7949762  74.5124388  66.2520504
  51.7373943  75.5926561  66.1769533  21.2011099  11.6190660  48.1598711
  21.9021106  11.1990285  48.6582661  20.9968591  10.9962690  47.4622774
  38.7174821  61.3596869  41.6293478  39.0066338  60.5167389  41.2799740
  37.8886747  61.5324640  41.1827421  29.0123248   2.6817462  58.6727142
  29.7633743   2.3010795  58.2174683  28.9793015   2.2181360  59.5094967
  10.2880788  41.6236830  28.3565950  10.3104782  40.9515285  27.6754642
  11.1427879  41.5611744  28.7829709  16.2919712  28.3489704   0.5902031
  17.2289777  28.1549740   0.5653878  15.9129620  27.6346183   1.1023415
  35.8931184  32.9179215  58.2809544  36.4856982  32.9971242  59.0284872
  36.1891842  33.5910988  57.6682472  65.7050180  37.4916458   3.4313747
  65.0283146  36.9139051   3.7842521  65.4414988  37.6426911   2.5236434
  10.5274725  15.9609616   8.2866329   9.8638785  15.6868637   7.6535887
  11.3608694  15.7402539   7.8707355  41.1520004  20.2981019   3.4633622
  41.5626001  20.4644871   4.3118644  40.7231474  21.1238575   3.2387710
  12.4283719  48.8578176  24.4550443  11.6128516  48.6794281  24.9233770
  13.1170785  48.5798073  25.0588846  72.7337360   0.3337572   0.8055377
  72.5431108  -0.5926721   0.9525833  71.9155979   0.7831956   1.0174038
  41.2681484  68.7064981  28.7362885  41.2577629  69.0488911  29.6300960
  42.0079994  68.0993557  28.7209654  16.5227318  23.7347364  55.0807905
  16.3439798  24.1563892  55.9213209  17.4556148  23.5227489  55.1127672
   7.1491784  69.4515753  28.7603593   7.6529139  70.2466583  28.9344907
   7.8000295  68.8161659  28.4622335  11.1849213  40.6572437  58.3622646
  11.3005328  41.6049433  58.2934952  11.7166257  40.4052496  59.1172647
  47.6647234  59.4641685  19.7262847  47.2403574  60.3129768  19.8514390
  48.4770584  59.6685076  19.2630470   7.4991661  38.6117816   7.3827678
   7.6126999  38.9074445   8.2860529   6.7874491  37.9732680   7.4274141
  57.4599934  52.3038912  45.5644512  57.2492933  52.3615932  44.6325159
  56.6475725  52.0090437  45.9758806  12.8527868  43.3749533  28.2680249
  12.5297129  42.6543665  28.8089585  13.3693004  43.9123535  28.8685656
  22.2082639  75.0000429  10.2558267  21.3621902  75.3435135   9.9687409
  22.3241687  74.1955280   9.7503042  39.1473722  35.6415248   4.0367135
  39.6401381  34.9967241   3.5291234  39.3585491  35.4407167   4.9484771
  55.7018852  67.4175644  53.8353968  56.1803865  67.7562618  54.5920658
  54.9487829  66.9625854  54.2123127  41.1910391  77.7504778  56.9846487
  40.3182745  77.5922966  56.6248035  41.1688423  77.3476505  57.8526735
  44.8858643  60.4242086  35.1623273  45.4860258  59.8593760  34.6755004
  44.5078182  61.0007286  34.4982982  39.4755578  67.9847527  21.4753318
  39.3786120  68.2043505  22.4019432  38.8110614  67.3141479  21.3173199
  25.0931287  54.0802670  14.7544491  25.5146980  53.5488796  15.4298294
  25.2476192  54.9839640  15.0295854  45.5584049  72.2513819  34.8246670
  45.9517193  73.0032015  34.3816090  46.1513901  72.0652246  35.5526400
  47.6493216  48.0311251   2.0056087  47.1377754  47.2226334   1.9757913
  48.3280897  47.9097080   1.3417095  36.0021186  70.3387117  18.4536123
  35.2254176  70.3390169  17.8941774  36.3176894  69.4354868  18.4247994
  56.3842344  55.0969267   6.2609255  55.8298588  54.7838068   6.9756651
  57.2672987  54.8177814   6.5028107  50.8977365  43.6220312   1.1205043
  51.1939478  44.5263100   1.2242486  51.1701488  43.1866026   1.9282329
  59.5662785  44.0856600  65.3539896  59.9980688  43.2665443  65.5965519
  60.1363850  44.7699261  65.7046843  24.7010636  75.5140734  58.1260395
  25.3627515  75.6804276  57.4546766  24.5914388  76.3559818  58.5680866
  38.3494186   6.5781581  66.5322018  37.5651503   6.4643788  67.0690489
  39.0656519   6.6387308  67.1643209  20.4416442  51.5111351  11.0383832
  20.7967806  50.7436466  11.4867938  19.6915174  51.1758518  10.5473363
  30.6380725  53.1929398  22.7016878  30.4290676  53.4834909  23.5894537
  31.4715457  52.7307796  22.7909231   4.2446807  50.5655956  24.8573470
   4.2511499  51.0827637  24.0519118   4.6170691  49.7213173  24.6028733
  66.0208273   0.3140701  21.2653685  66.7738247   0.3552828  21.8548870
  66.3960838   0.4123052  20.3902888  33.5213017  33.3476853  14.2431772
  32.7689075  33.0959868  14.7786975  34.2225838  32.7598667  14.5240796
  38.8071465  48.2671309   5.9344333  39.0017819  47.3849964   5.6179154
  39.1248083  48.2731342   6.8373656  47.2429180  68.9534330   7.2865242
  47.0196438  68.1616783   7.7759117  47.2337770  69.6508074   7.9421329
  12.1696103  76.6878939  18.0647016  12.0706081  75.7488775  18.2218170
  12.3925960  77.0518827  18.9214504  27.1747279  61.9760609  15.0734532
  28.0817223  61.7021084  15.2096260  27.0668912  61.9831467  14.1223729
  75.5760574  76.2217522  50.8118105  75.6734324  76.4342546  49.8835897
  75.1646662  76.9973373  51.1932039  78.8324261  47.6437330  38.4232473
  78.4583807  48.3331203  38.9719439  79.6280861  48.0322742  38.0596542
  60.7664633  54.8629093  51.2770033  60.7353783  54.4155788  50.4313326
  60.0933361  54.4298077  51.8019390  49.6718407  56.8340445  10.9122086
  48.7627172  56.6452599  10.6796467  49.6723747  56.8674326  11.8688262
  44.4803381  75.2607250   9.3831730  44.9835014  74.4558334   9.5064896
  45.1319981  75.9138823   9.1283059  35.9215569  36.5452814  27.9984999
  35.4457474  37.1459675  28.5720968  36.4635301  36.0258365  28.5923624
  82.4668694  48.9321709  48.8636780  82.8600121  49.1397333  49.7113752
  83.1073761  48.3643579  48.4352112  45.8303308  70.7831383  13.4433377
  45.9658289  71.4685249  12.7890289  46.0562325  69.9710274  12.9898226
  47.3720598  70.0362253  15.7197309  47.9938459  69.7071362  15.0706482
  46.6564226  70.4037523  15.2010560  50.3309774  56.2792158  31.7023611
  50.8923006  56.6776991  32.3674655  50.7159233  55.4162073  31.5498352
  61.7152452  56.6861773   0.5889012  62.6164770  57.0075846   0.6156018
  61.1843443  57.4722052   0.4603195  55.3969383  26.2482166  48.8116217
  54.7254229  25.6702542  49.1739082  56.1407566  26.1536312  49.4066191
  17.5536060  45.6250572  15.2653837  17.0372045  45.0099182  14.7446465
  17.6631176  45.1900196  16.1109495  70.2443504  17.2898090  58.9719200
  70.8156157  16.9725692  58.2724619  70.8340359  17.7387547  59.5776844
  42.1243238  70.7747173  53.0396175  42.6598978  70.8100557  52.2470617
  41.2222242  70.7830954  52.7196646  48.8854790  72.6282072   2.3576070
  48.1440639  73.0328512   2.8079429  49.2168474  71.9786644   2.9777038
  58.4562778  11.6542530  45.8767176  58.0658340  11.6745770  45.0030088
  59.0707445  10.9208989  45.8474684  72.6830959  46.4684868  67.4521208
  72.9151392  45.8261156  66.7814875  73.4144545  46.4453220  68.0692196
   9.1710573   4.4584540  67.7348566   9.7551757   3.7726086  67.4113512
   8.6592501   4.0324888  68.4224892  47.6656103  49.9760056  30.9110880
  47.5108194  50.9171677  30.9916186  46.7973709  49.6025705  30.7596326
  63.6587095  78.0097294  64.5490932  62.8307009  78.3500814  64.2102861
  63.7689114  77.1666241  64.1094780  58.6349964   8.1356579  31.5901279
  57.9182911   8.5369807  32.0815611  58.6409473   8.5999787  30.7531071
  36.1099195  24.9278736  14.3868721  35.5388212  25.2154064  15.0991952
  36.8818641  25.4894638  14.4572318  33.0951715  79.0038729  48.5765266
  32.3792815  78.5792112  48.1038809  32.7798676  79.0722513  49.4777155
  74.8682928  74.5694017  64.6897650  75.7369518  74.9526596  64.5681953
  74.2770147  75.1655722  64.2301989  43.3296585  57.1278524  25.6451583
  43.8449717  57.8308630  25.2496028  43.2076406  57.4025202  26.5539503
   7.4551570   9.3158406  20.9712052   7.1457708   9.5539856  20.0972486
   7.0037079   8.4954858  21.1698055  64.9988031  59.6246195   8.7744772
  64.9709225  58.9643574   9.4669443  65.8609915  59.5148659   8.3734649
  21.0668254   2.6351023  54.9476147  21.8665028   3.1608695  54.9653530
  20.6977224   2.7308249  55.8255863  52.1544123  52.3292446  28.8096595
  52.4436855  52.5173283  27.9168129  51.2776375  51.9598579  28.7045527
   8.2067204  55.6670809  19.6149004   8.0432898  56.1160994  18.7855017
   7.5252056  55.9936142  20.2023888  35.3248143  65.6196928   8.0457646
  35.0158834  66.4807320   7.7639693  35.6752586  65.7666874   8.9242935
  30.2316642  25.3822494  58.6846781  30.7455683  24.7424579  59.1774273
  29.9550629  24.9124575  57.8979015  41.3449621  52.7963829  28.7458539
  41.0067320  53.2960272  29.4889474  40.6071472  52.2547340  28.4657025
  40.7713032  31.5815306  19.7319579  40.8400393  31.4286518  20.6743670
  39.9077368  31.2422490  19.4966376  44.5719337  33.8344073   3.7476090
  45.3847933  33.3521271   3.8989207  44.5325613  33.9453864   2.7976796
  67.0524883   4.6547839  58.0166101  67.1545315   5.5948734  58.1651020
  66.6482782   4.3278381  58.8203192  45.5991507   1.7641020  11.5460932
  46.2129498   2.1358743  12.1795475  46.1540174   1.4406545  10.8363497
  54.4399118  58.9371014  44.4591999  53.7866831  58.4038210  44.0062714
  54.5459127  58.5136509  45.3110695  33.8332725  57.6081038  51.2020588
  34.1232181  57.4068356  50.3123093  34.3540287  57.0304871  51.7600918
  47.0267391  77.4670172  11.0652900  47.5778246  76.7048359  11.2430942
  46.4013577  77.1622658  10.4078257  83.8606862  42.9588223  20.8301950
  84.3118699  42.2218657  21.2419748  83.1675635  42.5541306  20.3086209
  66.3741064  18.1759357   1.4117900  66.7278528  18.3274245   0.5353521
  67.1465302  18.0602205   1.9651411  45.6815958  77.8814602  31.0963106
  46.5910292  78.0169964  30.8302426  45.7389784  77.5932693  32.0072937
  71.1046696  62.0280218  65.1541090  70.2021742  61.7294073  65.0420046
  71.4530945  61.4790249  65.8565569  23.0045748   9.2340887  60.5658627
  23.2826328  10.0856638  60.9031105  23.7091804   8.6360753  60.8151484
  80.2098274   4.1817281  66.9707823  80.9866905   4.0547010  67.5153732
  80.5545712   4.4665462  66.1244583   9.5553893  62.3764133  38.6138058
  10.4627264  62.0715904  38.6210513   9.5890480  63.2385635  39.0282893
  43.9915562  77.1923304  23.5136962  44.6429396  76.6382980  23.0835986
  44.2202568  77.1540737  24.4423866  26.4479733  61.4153385  39.2081141
  26.9307756  60.6008291  39.3485022  25.8845210  61.2332010  38.4560633
  24.2033267  48.4896517  38.0100536  24.1537952  49.3688393  38.3852983
  24.9097252  48.0620480  38.4941888  22.6191848  35.1579388   0.1217253
  22.5465435  35.4790314  -0.7770794  22.4269384  35.9220131   0.6652910
  48.3043003  32.3357224  65.5902481  47.6313543  32.0646429  64.9658346
  47.9011679  32.2051954  66.4485455  54.8069382   3.2549948  21.0443020
  55.7595348   3.2835975  21.1335897  54.5333052   2.5439537  21.6237664
  82.1889305  14.0246868   8.6503226  81.3197803  14.3688989   8.8560683
  82.7834415  14.5264530   9.2080134  41.4485788  76.2938023  24.1003013
  42.2946978  76.5473795  23.7314963  41.5569162  75.3727245  24.3371749
  44.1339922  29.6336555   9.1107488  44.7781229  28.9364934   9.2344129
  44.4496584  30.1189423   8.3484590   1.1230270  31.0486460  16.2508881
   1.0215426  30.9122300  17.1928668   2.0094593  30.7428050  16.0587144
  15.7504606  50.1375341  10.6313336  15.7018375  49.2066956  10.8490610
  16.1516488  50.5427074  11.4001727  47.1240377  64.8290062  52.8410530
  46.3071728  65.2424097  52.5616598  47.5077057  64.4868469  52.0336151
  49.4963360  49.4016790  40.1947927  50.0105762  49.6489573  40.9633303
  48.9133453  50.1463270  40.0469828  50.5788708  57.6035309  21.0271001
  50.4744148  57.6495314  21.9774699  51.0925484  58.3800125  20.8047414
  31.3385344   9.1040111  60.3827477  31.3927531   9.4392514  59.4878149
  32.0683050   9.5221162  60.8397579  40.5492210  56.1035967   1.7018840
  39.7835803  56.6674805   1.5920551  40.5633163  55.8982325   2.6366884
   7.9007345  16.7615664  65.8406782   8.2436389  16.5129507  64.9822855
   7.9839349  17.7148366  65.8649015  27.4674487  17.8599060  62.1300888
  28.2638192  17.4602342  62.4797869  27.0307302  17.1506524  61.6584253
  45.5467081  47.6183271  19.2186809  46.4121962  47.2128296  19.2709458
  45.5310297  48.2436371  19.9432302   8.4111458  45.9738111  25.8060908
   9.0122908  45.5076790  26.3871074   8.4691447  45.5036736  24.9743223
   4.3816164  30.0836086  31.3854504   3.6579511  30.6713104  31.1683178
   4.9501157  30.1091695  30.6157827  24.4381094  29.7586179   6.8295801
  25.0823092  30.3439236   7.2278935  24.8511791  28.8954854   6.8542755
  83.0284595  16.1694539  58.8348532  83.0166149  16.8815506  59.4743919
  82.1071911  15.9378719  58.7171602  79.4471264  58.1319141  50.7356739
  78.8476372  57.7084780  51.3501167  78.9150715  58.2971382  49.9573088
  47.8359985  67.0738173  23.8038850  47.6197577  66.2399101  23.3866715
  47.2564936  67.7092695  23.3836412   4.7203445  18.4586143  35.6678295
   4.8264021  18.8204324  36.5476441   3.8300669  18.1071019  35.6591272
  80.2605820  26.9008255  35.4681087  80.0928783  25.9948826  35.7276797
  80.7017040  27.2887659  36.2238503  72.9903889   7.3327559   8.2077873
  72.8075886   6.4851445   8.6132121  72.1870136   7.5503981   7.7350855
  19.9392998  44.2406130  14.8306918  19.5177257  43.8490152  15.5956471
  20.7016635  44.6980762  15.1853192   8.1559777  47.3197126  68.2222700
   7.5457805  46.8115902  67.6877546   8.8657445  47.5494432  67.6225281
  40.2618027  61.5022373   5.5621690  39.8328018  60.6466722   5.5761439
  41.0472918  61.3850641   6.0965031  70.6180606   0.4964224  40.1644230
  70.8443628   0.0435415  40.9767771  71.0651670  -0.0015339  39.4800448
  66.2343740  46.1963654   9.1176051  66.7194653  45.4406929   8.7861246
  65.5018663  46.2962389   8.5095847  20.7507253  31.9471788  50.1984262
  21.0341263  31.4250922  49.4478655  19.8126531  32.0771408  50.0592756
  13.2475948  38.1212211  11.3243985  13.7219834  38.8025641  11.8007994
  13.9001644  37.7420211  10.7356775  46.0104227  31.2618852  19.9987078
  45.0793982  31.4746714  19.9342620  46.1425257  30.5671144  19.3536687
  25.5292439  27.3002791   7.4120784  26.2260437  26.9374156   6.8652421
  24.8350954  26.6418052   7.3837632  11.6828394  15.5333138  57.9269171
  12.0458305  16.0076690  57.1789455  11.2642491  14.7633529  57.5419807
  45.5556679  66.4542913  20.7411909  45.8774137  67.2332144  21.1950469
  44.6027851  66.5133667  20.8101773  35.7817721  52.1135855  17.5126576
  35.7581925  51.9634485  16.5675998  36.6998100  52.3080063  17.7014542
  60.6983614  71.2591600  24.3794036  60.4947424  72.1644211  24.6144962
  60.9002018  71.2941265  23.4443784  13.9521325  22.6538920   9.7594732
  13.7350690  21.7555332  10.0086045  14.6107531  22.9270554  10.3980923
  38.4925461  49.6392488   1.5657434  38.2945514  49.7927952   2.4895695
  38.4137583  50.5013895   1.1574030  69.8582411  35.0214362   8.5805559
  69.7388792  34.1215920   8.2768041  69.2924500  35.0917220   9.3494326
  36.0823679  70.7334185  36.7564893  35.1992631  70.9361410  37.0651340
  35.9516287  70.0818777  36.0675526  27.9580164   4.8137462  62.8216076
  28.5181999   5.3897041  62.3013210  27.1074510   4.8475218  62.3838568
  40.5141401  46.1405230  35.7220435  41.1561966  45.4537010  35.5424094
  40.4453182  46.1603355  36.6765594  61.2458849  29.9346590  60.6610346
  61.5496922  29.8189402  61.5613365  61.1107445  30.8781981  60.5732632
  10.5348921  41.0744047  63.9885569  10.3577220  40.9904146  64.9254560
  11.2199521  41.7406273  63.9331245  59.2746973  11.1610663  50.2643681
  58.5476208  11.2531829  49.6486521  59.4081640  12.0432258  50.6110811
  16.3095129  54.5104599  22.5920200  15.5407441  54.3704462  23.1448507
  15.9632850  54.9215889  21.7999768  15.2694762  48.0626535  21.4192796
  16.0695326  48.0814838  21.9444346  14.8300397  47.2536278  21.6811967
  15.8894491  18.1556535  24.5256901  16.3241768  18.9718318  24.7728682
  16.2838829  17.9188788  23.6862898  71.4176893  78.1294012  63.2946301
  71.4100742  78.6362410  62.4826622  71.7545748  77.2709894  63.0379868
  14.1939545  14.0842366  57.6855421  13.6673665  14.4621968  58.3898735
  14.9349904  14.6829772  57.5927734  51.6406727  78.1278086  41.7560959
  51.0455990  78.4912777  41.1003447  51.3203859  77.2378397  41.9030714
   5.9213173  26.6537976  58.3038664   5.7757735  26.2751865  59.1708755
   6.5555966  26.0682845  57.8902292  48.1410456  54.8813963   7.3621702
  47.4249840  55.0354385   6.7459214  47.9771757  54.0028477   7.7050006
  71.6900921  32.9996085  17.3617005  70.9872627  32.7164030  17.9465580
  72.2198343  33.5933065  17.8937936  23.7318778  44.9353743  57.0722246
  24.4935560  44.3641853  56.9731236  23.3490515  44.9782848  56.1959600
  21.0572815  53.4722757  14.2084312  20.3760839  53.0160618  13.7143981
  20.6864238  54.3367577  14.3855393  25.2162170  49.8413563  55.3500795
  24.9879956  48.9127254  55.3077173  24.8119211  50.1506186  56.1607170
  76.7220879  11.8026352  39.7958589  76.7516804  11.0771918  39.1720915
  76.1582470  11.4880586  40.5025053  12.5503147  66.9924164  14.6172404
  13.4972477  66.9579315  14.4817388  12.3908019  67.8670883  14.9718332
  77.9099178  23.9100456  37.3630047  77.8620958  23.1832099  37.9840159
  77.0176554  24.2548919  37.3287296  45.2936840  48.2338905  11.3654244
  46.1659575  48.6272240  11.3397551  44.8217487  48.7407303  12.0261967
  19.7482729  19.9702644  65.6077671  20.4374170  19.6624649  65.0190639
  20.1612473  19.9884892  66.4711046  15.3143084  47.2400999  59.8865986
  16.2412834  47.3740673  60.0840855  14.8585999  47.8856182  60.4268456
  51.9003534  49.0796900  14.9851286  52.7164173  48.8276672  14.5529759
  52.1767473  49.4380713  15.8285725  50.4826164  56.0680294   6.9071943
  49.7643900  55.4878569   7.1597463  50.8098030  55.7007074   6.0860628
  35.8408737  67.7942371  50.7668591  36.7474866  67.7326822  51.0676861
  35.5384278  66.8867970  50.7305717  17.9684448  39.6842885  63.7141514
  17.6651001  39.8186040  64.6120214  18.8360524  39.2916369  63.8106680
  54.6734858   0.0586279  39.6419358  55.3443384  -0.4553070  39.1924286
  54.1659594   0.4594476  38.9362502  38.4329510   4.3174872  64.5944595
  37.9820919   3.6127940  65.0596142  38.6023545   4.9779084  65.2663088
  40.6841612  17.7719021   2.4786209  39.9859667  17.7683306   3.1334040
  41.1038971  18.6260867   2.5807133  73.4065723  72.0599508   1.5038063
  73.7736940  71.2009573   1.7125615  72.6097155  72.1144819   2.0313288
  70.8382177  71.1134863  41.4435720  71.6001892  71.6707850  41.2853003
  70.5100965  71.3934135  42.2980928   8.7384588   9.7497129  59.3500853
   8.3491772   8.9395040  59.6791077   9.4474095   9.9413544  59.9640036
  14.4870162  74.0180302  22.3993039  13.9685810  73.7970829  23.1730199
  14.6468437  74.9584484  22.4786401   9.7917861  49.9599409   0.6892630
   9.5851791  49.0545321   0.9211725  10.5532479  49.8918629   0.1132657
   2.2631258   9.4642639  12.1079886   2.9165131   8.9820409  12.6147211
   2.4376781   9.2208606  11.1988580   5.6642646  30.0563145   3.2672483
   5.6894201  30.6504893   2.5172105   6.4867455  29.5694780   3.2148311
  83.6299706  46.6233540  60.6423807  83.4280300  47.1811152  59.8911476
  82.7804565  46.4523554  61.0489607  27.5996208  29.6815634  47.3952436
  27.4283814  29.6246505  48.3352804  27.8024960  30.6047440  47.2442102
  56.8167305  60.8671570  27.4182153  57.3867559  61.2295055  26.7399764
  56.8183708  61.5280104  28.1106782  13.4170616  46.1611795  26.8105912
  14.3084466  45.9082460  26.5704036  12.8628874  45.7361889  26.1559868
   2.7024832  46.1036730  20.5748248   3.6274540  46.2968206  20.4220033
   2.4272940  45.6188965  19.7966909  56.5332699  71.7346907  54.8069334
  57.0895004  70.9792852  54.6166611  56.4003944  71.7017221  55.7542896
  13.1809998  51.9050694  22.8975201  13.0857444  51.0796213  23.3726954
  12.3128903  52.0715570  22.5302339  49.1435051  24.6603942   2.6524577
  48.8995266  23.8004804   2.3100278  50.0084877  24.8301673   2.2793449
  65.9956884   7.4828672  40.9673262  65.7167959   6.6330522  40.6263494
  66.0392618   7.3579657  41.9153404  30.5702639  45.3106308  31.4599848
  30.9604573  45.4102230  30.5916190  29.9017715  44.6350622  31.3461328
   7.5448042  53.9878368   1.4903826   6.8922770  53.8711691   2.1809107
   7.3473197  54.8467398   1.1168706  20.6989884  38.8910127  31.5790319
  20.1919556  39.5589995  31.1175728  20.0754380  38.4950781  32.1878457
  21.1168027  21.4553261  52.6598549  20.6955910  21.1410451  51.8598318
  22.0132136  21.1242461  52.6045227  59.7719526  56.8027353  66.8090534
  59.9577808  56.3175583  67.6129818  60.5015564  57.4167204  66.7257738
  33.6226678  39.9472380   3.1107658  33.9626026  39.2357969   2.5680619
  34.3381739  40.1522398   3.7126440  11.0895836  48.6258316  15.4252255
  11.8720448  48.9014769  14.9477267  11.4200139  48.3183670  16.2693310
   2.5296354  11.0064662  38.1234694   3.1400144  11.7256737  38.2859802
   2.3835696  10.6168747  38.9855099  15.3554535  65.6328011  24.5909381
  15.9704673  66.3047743  24.8849416  15.8070838  65.1935816  23.8702798
  17.5584364  14.0709805  46.8423939  17.8802264  13.2398009  47.1914244
  17.6123810  13.9686835  45.8922052  81.2446308  11.4922965  21.2359428
  81.0853195  10.9493279  22.0079780  82.1949863  11.4750528  21.1229634
  26.3823366  54.3571806  53.2109165  26.6419864  55.2673912  53.3535051
  27.1364450  53.9581680  52.7769279   7.0637578  44.9706697  33.5793018
   6.6310209  44.2103004  33.1909633   7.9346234  44.6540308  33.8192248
  35.4702258  51.6378880  12.0410037  34.8602486  52.3455906  12.2491241
  36.3348985  52.0460033  12.0859039  68.1164598  19.9849522  67.9696894
  68.2316303  20.9309459  68.0594873  68.6253166  19.7544360  67.1924114
  82.7295971  42.2655869  23.1898475  83.1529999  42.8929949  22.6039076
  81.8538857  42.1474886  22.8218699  14.3522239  15.8738852  64.2801332
  14.7526681  16.4293206  64.9489880  15.0721753  15.6540561  63.6888838
  46.7483950  53.5268688  23.7779760  45.8556986  53.2317924  23.5983801
  46.8099022  54.3796682  23.3476472  77.3520470  72.0602512  61.2742901
  77.7599812  72.9139280  61.4193916  76.4864206  72.1371365  61.6755438
  64.4991159  16.3357198  25.6733775  65.2924252  16.3540709  26.2086868
  63.8984251  16.9362378  26.1147165   0.0627769  69.0403461   5.2731216
  -0.1137212  68.1954479   4.8593241   0.2998023  68.8208818   6.1741686
   9.0764314  58.0506516  22.3495364   8.1957358  57.6811409  22.2857285
   9.0431982  58.8428974  21.8133712  53.9519405  59.7588921  15.1357317
  54.1152477  60.5377340  14.6037793  54.7597504  59.2497206  15.0692189
   2.4604248  64.6152401  21.7308450   1.6620016  64.7916842  21.2332296
   3.0028707  64.0961075  21.1371374  47.9168606  74.1256428  49.7789288
  47.6091766  73.9000225  48.9010620  47.6108646  75.0220537  49.9169493
  43.3961153  67.1607733  37.3864222  44.0075111  67.0005655  38.1052828
  42.7670193  66.4414978  37.4422479  65.4203558  56.4751720  29.6778941
  65.0742197  57.0167351  28.9685750  66.3472748  56.7088890  29.7272229
  20.8916521  47.2334814  29.4746542  20.1489449  47.3868418  28.8906169
  21.5133524  46.7338705  28.9454007   2.1735044  55.9536552  10.4215729
   1.8821755  56.3068676   9.5809776   2.7539346  55.2290249  10.1886630
  21.6527915  70.8524942  13.4904265  22.4140525  71.1552429  12.9953969
  21.1730933  70.2968931  12.8760743  70.3864622  39.4493914   5.8683139
  70.1587963  38.6266971   6.3014108  70.9624195  39.8955202   6.4891762
  76.8278217  48.8813972   8.5940635  77.3597383  48.2714748   8.0828941
  76.1108923  49.1233778   8.0078149  59.0702772  44.4708157  11.9299126
  58.6254454  44.8144531  12.7046835  59.8784113  44.0857124  12.2687995
  21.8679380  13.6028135   1.1442590  21.8680310  13.9105332   0.2378700
  21.6655612  14.3822038   1.6617793  15.6991577  28.4080243   9.4785154
  16.1827338  28.1250930  10.2546179  15.4620004  29.3169951   9.6622545
  47.0591593  32.6970410   4.0472618  47.5147438  33.3762455   4.5446092
  47.6298523  32.5251508   3.2982665  18.1670535  41.0445547  27.0630336
  18.7977445  40.6521082  27.6667261  18.4565926  40.7603979  26.1960530
  59.5449829  68.2469702  11.3012588  58.6452579  67.9214859  11.2732244
  60.0351048  67.6447296  10.7415092   0.9070003  42.9715633  64.1883135
   1.2131535  43.3133650  63.3482695   1.1767685  42.0531654  64.1858673
  21.7588234  78.5357618  42.9825068  22.2566724  79.1479158  43.5243940
  21.3123679  77.9681683  43.6107922  24.7665787  52.4154139  21.7693424
  23.8459492  52.4126720  21.5073061  24.9604774  51.5003586  21.9725990
  11.0391068  60.1590157  10.1846397  11.6926277  60.7338715   9.7862923
  11.3527465  59.2741680   9.9977964  71.3437033  68.4245920  41.9355011
  71.0745335  67.9369640  41.1570406  71.3516521  69.3394804  41.6541719
  33.1419969  48.5349560  12.3277724  33.4908485  48.1478167  11.5248656
  32.9050994  49.4285345  12.0795262  34.6636057  57.1704531   8.3368069
  34.9045491  56.6636562   9.1122651  35.0132179  56.6655779   7.6025724
  43.1730127  43.7846518   4.6732593  42.3588228  43.3650446   4.9512148
  43.8305569  43.4640741   5.2905869  27.9308033  47.2828770  31.2917757
  28.6297894  46.8388557  31.7718744  27.8621268  48.1418037  31.7086124
  66.7491674  30.3182769  13.1477463  67.0437622  30.1906037  14.0494931
  66.3750219  31.1992955  13.1404722  82.3437023  58.3495331  28.4967327
  83.0681896  57.7269316  28.4358144  82.0389366  58.4513426  27.5950766
  16.4253843  70.9871292  46.2008524  17.1712732  71.2697172  46.7300272
  16.7992532  70.8024359  45.3392601  60.0814486  63.4190369   6.5976298
  60.3579378  62.9996777   7.4124444  60.0070953  62.6992512   5.9710425
  41.8380880   7.1863902   8.4582007  41.7412186   7.9693639   7.9161680
  41.3705063   6.5031576   7.9777926  32.6881146  18.6270833  13.2788575
  33.3857703  18.9575303  12.7128935  32.9945874  18.8081110  14.1674161
  70.5011463  69.2231417  14.1128945  69.5564938  69.1820908  14.2617941
  70.7690716  68.3088207  14.0209031  16.6949618  64.6685696  30.0246835
  16.5421951  65.4882050  29.5544744  15.8578789  64.4748831  30.4465961
   7.5799185  13.3027220  65.7900476   7.2567856  13.7381291  65.0012302
   7.8880048  14.0165019  66.3484716  50.3361034  49.1625357  37.2587395
  50.2965069  49.8928261  36.6412163  49.9238396  49.4990301  38.0543780
  50.2934980  60.5118799  29.0492654  50.4187298  61.0847092  28.2926846
  50.0368881  61.1028004  29.7572160  80.4015350  51.9361925  22.0302963
  80.1535225  51.3763666  21.2945509  80.4442120  52.8167725  21.6574860
  51.4988852  70.1000690  35.7954121  51.6517019  70.9248638  36.2564826
  50.7931042  69.6786976  36.2858772  28.8566971  55.6236362  41.7612600
  28.6326313  54.7339487  41.4883423  29.6990561  55.5325508  42.2066402
  33.7063885  73.8192511  22.4853921  34.1144824  73.8631296  21.6206574
  34.3886995  74.1160011  23.0875754  72.5984526   1.1747364  29.5741487
  71.7397881   1.0499898  29.1699624  72.9062796   0.2878802  29.7611308
   3.3196774  20.2174926  19.1754842   3.2553118  20.3600621  20.1198149
   2.4220483  20.3130293  18.8571024  73.1519270  26.3725185  13.2489836
  73.9131451  26.2374783  13.8133812  72.5821114  25.6256461  13.4326065
  54.1790771   8.3017159  62.9804802  53.8646126   8.3073729  63.8845348
  53.4222698   8.0221534  62.4653912  76.5407991  77.0123148   5.4880828
  75.6758499  76.8208456   5.1255375  77.0656824  76.2405252   5.2757919
  43.4603548  38.8676667  16.0642457  42.9938173  38.2774115  16.6560030
  44.3793678  38.7848783  16.3187838  46.1706543  77.4224615  20.2953410
  46.3141918  76.4982557  20.4989862  46.6959763  77.5792122  19.5106792
  17.2202539  67.6938152  25.7660556  17.8062546  67.5623274  25.0207067
  17.1704817  68.6443949  25.8668184  48.9746475  40.3541279   3.3224291
  49.8023033  39.9135995   3.1296787  48.4914351  40.3280544   2.4965614
  55.6149769  13.6854875  48.4873104  55.8535862  14.3251252  49.1582489
  56.1025095  12.8965843  48.7243223  67.2665882  63.4920025  56.4247847
  67.6791954  62.6286554  56.4496708  66.6291332  63.4323931  55.7132149
  73.4349442  49.0610743  30.0599980  74.3137407  49.0964365  29.6822476
  72.9084873  48.6100721  29.3999410  74.2472649  50.2269793  61.4604998
  74.2373228  51.1829185  61.5086269  75.1652956  49.9900723  61.5921354
   2.9748121  34.8047328  32.4813056   2.2588038  35.3256249  32.8449464
   3.7656289  35.1839542  32.8647518  51.4495625  79.2201515  51.4216375
  51.9048037  79.3340508  52.2559118  51.8019738  78.4043727  51.0659075
  49.0343809  28.0530524  16.9074929  48.7590981  27.7919698  17.7862918
  48.3337831  28.6269903  16.5976667  28.2252073  57.7820301  55.5071402
  27.4698973  58.3674669  55.4523706  28.9544582  58.2992935  55.1652861
  39.4401979  41.1752272  14.1101587  39.8664498  40.3984642  14.4723427
  40.1539278  41.7981768  13.9731979  74.5935965   4.3250880  16.9362473
  73.9747858   5.0507754  16.8545091  74.5172405   3.8507980  16.1083281
  44.4775105  41.3859320  62.2365236  45.4094744  41.2510014  62.0648623
  44.3612337  41.1210680  63.1489706  83.1545830   1.7561071  16.4733338
  83.2085419   0.8404470  16.7469883  83.3370304   1.7364733  15.5338883
   0.5760089  50.8000135  35.5509400   0.4526085  50.1588917  34.8509622
   1.1332627  51.4744234  35.1625204  43.9123869  43.9139080  12.9837835
  43.9898586  43.6068392  12.0804918  44.1289616  44.8452377  12.9395616
  53.3533239  70.9468126  11.3383830  54.1964388  71.3903284  11.2451899
  52.9922056  70.9301424  10.4520726  32.8633189   6.5182346  31.2988019
  32.0012331   6.9160777  31.1772966  33.3723187   7.1855098  31.7591214
  34.6437955  62.7110481  16.0162532  34.1078138  62.6116943  15.2294350
  34.0401721  62.5434589  16.7399812  38.3053827  35.6704760  22.9114723
  38.2831860  34.8653865  23.4287453  38.4296656  36.3664317  23.5567904
   5.4501820  69.4919920  16.1346483   5.7221073  70.0670624  16.8499005
   6.2653309  69.1047955  15.8155215  77.7326632  12.8962910   8.7567317
  78.6671400  12.6890349   8.7513936  77.3706341  12.3888552   8.0303186
  57.2306538  58.9067507  18.2338989  57.9755116  58.7774181  18.8210022
  57.0549726  58.0370665  17.8747129  38.2292080  78.6830997  27.5948906
  37.7295208  78.0132723  28.0616593  37.7979040  78.7536812  26.7432880
  70.6389332  31.5130019  25.9464097  70.8374739  30.5841827  25.8276200
  71.4349508  31.8809128  26.3301134  68.0591631  75.6792974  57.3373222
  68.1451559  75.8083057  58.2818794  67.2199965  76.0830164  57.1158648
  67.1644068  16.8985105  22.5556993  67.4226713  16.3178492  21.8399024
  66.2076855  16.9045174  22.5259233   2.3763779  52.1595335  18.6437714
   1.8103397  52.8983402  18.8673770   2.0489070  51.4364386  19.1786754
  15.4457259  41.5018177  33.8171172  15.6983376  40.5923700  33.9762521
  16.0617447  42.0162821  34.3387270  13.8771367  20.4744124  35.8786392
  14.7584009  20.5446625  36.2456107  13.8572347  21.1253119  35.1770926
  35.3157163  56.8849421  37.0452452  35.7067871  56.1717510  37.5498772
  34.3725371  56.7738342  37.1648288  52.4272299  52.6573849  13.3171475
  53.0951881  52.4758530  12.6560056  51.7253590  53.0943871  12.8348172
  20.0866914  47.4211693  50.6680012  19.3658698  46.8317652  50.4460621
  19.9577630  48.1813812  50.1008320  54.6871567  38.2835746  63.3240175
  54.0830135  38.6112928  63.9902306  54.3749523  38.6708951  62.5062466
  41.1227894  56.5427637  28.4672737  40.6812382  56.8576622  29.2560077
  41.3788128  55.6449270  28.6783934  61.4770269  25.5489373  65.0351906
  60.9768343  24.7328496  65.0285721  61.4422798  25.8585000  64.1300964
  19.7783995  66.0008812   4.7902679  19.0000677  65.4991770   4.5479360
  20.0086164  66.4840174   3.9966613  11.4627111   9.9546081  28.0461574
  10.6226766  10.2503073  27.6952505  11.2337685   9.2550111  28.6580253
  73.7815857   8.5487217  21.4683557  74.2810535   7.9888374  20.8739710
  73.1343269   8.9761961  20.9075069  62.9399204  15.0381184  18.8899982
  63.6768579  15.3530741  19.4134104  63.1505489  14.1226268  18.7063122
  60.9992552  38.6549592   1.7015155  61.1235571  39.3513894   1.0567169
  61.3698244  37.8758144   1.2869722   9.0741158   3.5443577  20.1008415
   9.4096285   3.1091407  20.8845830   9.8437673   3.9550757  19.7069144
  10.6991839   6.1386532  53.0047989  10.0226927   6.3166642  52.3514175
  11.4423704   5.8124739  52.4973392  12.1927655  52.1470833  65.9947824
  11.8942380  53.0551100  66.0457802  12.9489791  52.1761322  65.4086733
  60.4981136  70.3124762   1.6081366  60.9739017  69.5703125   1.2352364
  60.0129080  70.6812048   0.8700012  55.7872868   1.1268810  60.7774830
  56.5980911   0.6224739  60.7111359  55.9935713   1.9669038  60.3675556
  77.4687529  15.6401157  58.7292767  77.0263720  14.8659277  58.3811951
  76.7919874  16.3169026  58.7427473   2.7424392  15.7560134  53.3421135
   3.5552433  15.3355408  53.0614328   2.0795041  15.0695908  53.2674599
  18.9845574  71.1016417  65.7645655  19.1685569  70.4934406  65.0486994
  19.2412460  70.6262302  66.5547085  68.0331707   1.8265732  40.0244188
  67.2834587   1.2852177  40.2715826  68.7859678   1.3891059  40.4221058
  22.6162291   5.3613579  62.5510979  22.9159570   5.5272555  63.4448910
  21.7464495   5.7591265  62.5124407   9.5993757  56.6715288  65.1236439
   8.7479389  56.9744682  65.4391050   9.4564480  55.7537127  64.8925161
  19.6819317  28.7930274  42.9228878  20.2320957  28.2496595  43.4870720
  19.7582924  29.6736455  43.2901955  38.1484866  75.1058483  56.5526295
  38.8268638  75.2806997  57.2049046  38.5636520  74.5099497  55.9291124
  66.5885639   7.5879771  67.6487684  66.0288191   7.4484706  68.4126091
  66.1451864   8.2733893  67.1489048  37.8505622  52.2230617   0.7881529
  37.6835040  51.8255405  -0.0664251  37.0999632  52.7984981   0.9354813
  77.5379896   8.6026114   0.0715280  78.2246113   8.3184642   0.6748873
  76.7520714   8.6633807   0.6145475  10.0907278  52.8847504  12.4443579
  10.5420923  52.1241570  12.0783007   9.1830027  52.7856970  12.1572077
   5.0571579  66.5532207  20.6423569   5.6893349  67.1283102  21.0734653
   4.9231309  66.9478607  19.7806573  17.8301704  53.2307243  42.7027988
  17.4259877  52.4249887  43.0247593  18.3161664  53.5715294  43.4537268
  81.4822292  62.4638414  35.6844664  82.3153496  62.7877235  36.0268593
  81.1014843  63.2155085  35.2302933  72.7434778  69.3710661   5.1178342
  73.5989809  69.7404814   5.3366476  72.5216150  69.7642183   4.2737722
  32.8122759  65.5378771   9.8795980  32.4895835  66.2616158   9.3426555
  33.6814022  65.3469515   9.5268971  10.3479159  47.5107384  63.4839535
  10.4366708  48.3757544  63.0838299  10.0075603  46.9559622  62.7820873
  71.3657475  17.1469879  55.8086681  71.4806318  16.9570076  54.8775721
  71.4924860  18.0932641  55.8774567  52.8371954  56.2156725  19.7967052
  53.3599138  57.0173836  19.8127675  53.4698248  55.5208826  19.6143019
  61.8625927   1.3779530  12.6052225  61.7155504   2.0785990  11.9698441
  61.0955667   0.8118128  12.5192606  51.0079718  47.2235727   9.2375201
  50.7449484  48.1291246   9.0731210  51.3303232  47.2276545  10.1388001
  67.2686863  19.5010734  28.5263538  67.9696703  19.0969062  28.0149770
  66.6062880  19.7398639  27.8779411  56.8178988  55.0422144  35.8710408
  56.1507654  54.9866629  35.1868773  57.5035763  54.4379282  35.5865908
  25.5453300  31.4643168  64.1097975  25.5592799  31.1594272  63.2025623
  24.7022009  31.1650586  64.4501066  78.4130859  17.4734902  30.1157022
  78.1606388  17.1300542  30.9727621  77.6424837  17.9544830  29.8139620
  59.3334293  69.3639421  15.6082630  59.5933914  69.0830851  16.4856303
  58.4735441  68.9653921  15.4741585  18.4495831  68.6126423  36.9692826
  17.6276457  68.9130449  36.5814590  18.1811011  68.0082750  37.6613021
  23.6214042  52.9239321  27.3446870  23.1515455  53.7426567  27.5032687
  22.9344487  52.2889519  27.1418858  65.5973053  47.4481153  46.1571026
  66.5516043  47.4769783  46.0884666  65.2947474  48.1560755  45.5883455
  64.7026968  19.6159363  16.0212672  64.9153709  20.5465460  16.0917354
  64.1085672  19.4499373  16.7531705  39.3125486  71.7459583  17.5101149
  39.5156837  70.8733892  17.8471422  39.2891526  72.3036098  18.2877457
  20.0520754  56.4407110  14.1531289  20.1826429  57.3002148  14.5536816
  19.1052151  56.3757849  14.0287375  82.9511929   1.5474936  10.0682712
  83.4982300   2.2490598  10.4215312  82.2309494   2.0022041   9.6315569
  64.6021795  19.5680404  56.3968420  64.2180920  19.8933995  55.5826855
  64.2253923  18.6950827  56.5073299  74.8079872  59.1891718  19.4763792
  74.8832178  60.1218987  19.2748880  73.8687944  59.0096474  19.4324732
  47.6961374  55.5345392  25.9701800  46.9579124  54.9423933  25.8265805
  48.0474234  55.2770567  26.8225455  28.9396644  70.5525684  67.1825647
  29.0947533  69.8921061  67.8578186  29.5443654  70.3209686  66.4776325
  -0.0921935  72.0318699  16.3962626   0.4456259  72.0106936  15.6047237
   0.5370407  71.9715786  17.1150553  56.7767239  32.8586602  47.7039051
  56.7282438  33.5090590  47.0032930  57.5739622  33.0827045  48.1839561
  72.9701328  21.7413950  64.0997171  72.8552580  22.5621152  64.5787287
  72.4605083  21.8586516  63.2979870  58.8481426  70.2364254  52.9123354
  58.9843845  69.3092203  53.1071758  59.6850920  70.6507730  53.1222439
  20.8780336  50.7723761  44.3388748  20.5320454  51.5319157  44.8075151
  21.8262911  50.9029198  44.3381786  38.1235433   0.4916605  11.0397935
  39.0438461   0.6600759  11.2420559  38.1204033  -0.3815222  10.6476533
  72.4755430  57.8934336  23.9777470  71.8210363  57.5186014  24.5671153
  72.4622726  57.3215342  23.2102919  59.3387079  67.7175951  54.0100813
  58.7221575  67.8361082  54.7326088  59.6603203  66.8220615  54.1141081
  29.1331291  12.2973979  30.4728436  29.1882968  11.3461339  30.3818297
  28.1966043  12.4759245  30.5581927  66.7009115  75.3325939  10.6534183
  66.9684839  76.1379623  11.0961628  67.4295759  74.7281742  10.7946885
  32.5864768  78.3383799  32.2814012  33.0640244  78.9538431  32.8376245
  33.2693124  77.8131676  31.8641233  18.2907152  13.0764794  10.3739941
  18.6881125  13.8571632   9.9881959  18.7831736  12.9313684  11.1818671
  34.2882943  62.0531273  34.1681576  34.6195889  62.9324389  33.9857054
  35.0747228  61.5225649  34.2956996  60.3070307  26.9000220  62.7548933
  59.8485327  27.5543284  62.2277355  59.6580172  26.6120362  63.3968258
  80.8929062  13.4668803  11.1644113  81.1233902  13.6212409  12.0805347
  81.5142727  12.8009331  10.8700418  46.1309290  69.5278549  54.9340963
  47.0405626  69.2528868  54.8192453  46.1602783  70.4828548  54.8763180
  72.2252941  60.4519987  67.1333361  71.6015625  60.3835773  67.8561831
  72.3071051  59.5576668  66.8021154  33.8737440   2.5720015  52.6672029
  33.0491877   2.8454673  52.2652674  33.7608814   2.7621672  53.5985088
  43.2901764  52.6242924  26.8779302  42.6578569  52.9114389  27.5366807
  42.8563786  52.7905798  26.0410309  46.7450142  38.6294365   1.1965654
  46.2624359  39.1735172   1.8189189  46.1440039  37.9144621   0.9872081
  70.0945282  32.1133351   8.3955419  71.0455370  32.2077513   8.3416498
  69.9341631  31.8106008   9.2893350  71.4135790  66.6521597  20.4818845
  71.7684984  67.2508955  21.1389852  72.1814966  66.2062693  20.1245046
  45.4851818  36.3109565   0.5283050  44.5455742  36.4452839   0.4044819
  45.5965090  35.3605628   0.5040170  80.1569176   4.7810158  15.5769885
  80.8464146   4.3233931  15.0959361  80.5594063   5.6072736  15.8444440
  64.9077606  69.7287607  57.3329496  65.6340504  69.1901159  57.0189428
  65.2994823  70.2948570  57.9980183  68.3436966  76.0524178  47.9971695
  68.7968826  76.8581295  48.2455254  68.4277153  75.4845190  48.7631035
  14.6596253  76.0922050  52.7574587  14.4691813  76.5091133  51.9171333
  13.9465427  75.4657364  52.8810835  73.4564734  27.3113060  20.1600599
  73.1015921  27.5609326  19.3068433  74.3786049  27.5647879  20.1193786
  60.8195448  73.6407137  17.3859954  60.6094027  74.5737553  17.3471117
  61.7761993  73.6109877  17.3985922  63.8085794  21.4020371  30.8568621
  62.9546642  21.2236738  30.4628444  63.7559319  22.3150325  31.1395240
  37.0087719  41.4211512  13.4538257  37.2077227  41.8877268  12.6420617
  37.8284717  41.4396429  13.9477706   8.5865062  49.8505688  56.1090088
   8.6935222  49.5314455  55.2129364   9.1263431  50.6400442  56.1481714
  53.2314014  68.4742594  12.7264893  54.0467978  67.9978323  12.5703609
  53.3078003  69.2624426  12.1887541  80.2080250  48.2791376  13.3610642
  80.9409809  48.7811852  13.0047607  80.3263664  47.3979902  13.0063784
  31.7286825  62.3296881   5.6352997  31.6819453  61.3741875   5.6678855
  31.9769406  62.5877571   6.5229928  23.1660223  50.3353214   0.5482779
  23.8621473  50.9112263   0.8644648  22.4381995  50.4858160   1.1514809
  27.3728251  65.5573130  21.1904001  28.3216000  65.5209684  21.0690022
  27.1506333  64.7181082  21.5936375  47.1217489   5.2859217   4.0653419
  46.3124466   5.1977491   4.5688182  47.7960825   5.4544520   4.7234461
  73.6969423  27.7235007  56.2035131  74.4336653  27.2328544  55.8391809
  73.5104370  27.2916865  57.0371723  39.5764136  45.7933521  12.6961505
  40.2558851  45.8091688  13.3701670  39.9211431  46.3469601  11.9954991
  51.0099459  66.5273666   2.4045229  51.7679119  65.9571791   2.2756584
  50.7782125  66.4130974   3.3261913  33.4428930  57.6840591  30.2739739
  32.5852108  58.1055164  30.3286338  33.7081289  57.7982092  29.3613672
  12.5270677  14.1112745   6.4433098  11.6717756  13.7062299   6.2996185
  13.1462884  13.3821893   6.4082259  27.1152282  68.5865068  18.9743757
  26.4449286  69.0772533  19.4498718  27.2734189  69.1018152  18.1833875
  63.8731146   1.1800258  29.2242336  64.4916201   1.6722982  28.6844635
  63.2159185   0.8615417  28.6054540  15.4649723  19.5065641  10.3537142
  14.5942557  19.8703825  10.5140913  15.6165457  18.9144444  11.0903633
  25.5605412  49.5875740  22.0306730  25.5155659  49.7047567  22.9796100
  25.0540781  48.7927914  21.8632150  79.4103575  -0.2399213  21.0175872
  79.0493631   0.4346076  21.5928507  79.4021845   0.1581738  20.1471376
   2.4310736  36.1153412  60.1550770   3.2044739  35.8981705  60.6755781
   2.6809222  36.9030380  59.6720266  71.9152117  24.3287277  25.5823684
  72.7418184  24.4126558  25.1070690  72.1741486  24.2427444  26.4998603
  70.1624393  78.3059978  40.8655071  70.7149601  77.5243664  40.8654690
  69.4474268  78.0938482  41.4654922  44.7563314  56.4565134  33.7880611
  44.8638678  55.5656052  34.1211510  43.9352608  56.4310360  33.2967067
  58.0842543   5.5181211  28.8527369  58.8233185   5.7783377  28.3029151
  57.5493622   6.3086396  28.9248443  81.4704609  48.0893135   2.4344347
  81.3602066  47.1647978   2.6565737  82.3203850  48.1306028   1.9960642
  66.6816998   1.3253212  44.0576839  67.4848366   0.8050594  44.0807867
  66.0086489   0.7426012  44.4093513   7.8467572  18.2148421  48.2315874
   8.7210625  18.1431973  48.6145878   7.2691989  18.3662069  48.9797497
  70.8055639  66.2711954  14.1069829  71.2296152  65.4238462  13.9712870
  70.1786613  66.1149263  14.8132455  72.7481794  51.8112993  17.4276960
  73.1729078  51.5117073  18.2314897  73.4601021  51.8787146  16.7914176
  74.4174337   0.1731782  22.5600529  74.2621660  -0.6266121  22.0576000
  74.8961449   0.7442993  21.9593143  64.2271614  74.7917843  49.4430304
  63.6628437  75.5583668  49.3423986  64.2855167  74.6599007  50.3893042
  67.7991819  59.2517376   8.2126814  67.9625177  60.1898766   8.3098692
  67.2827148  59.1804409   7.4099284  76.9932365   1.0069881  16.1641037
  76.8952894   1.9462967  16.0080981  77.3877001   0.6704172  15.3595257
  15.3444052  53.8585567  50.0547600  15.6200552  53.2372761  49.3807745
  15.6817091  54.7026396  49.7547913  43.0731010  61.6095066  18.9819539
  42.1225452  61.7105007  19.0316999  43.3946514  61.9559288  19.8143172
  75.1696157  67.0739937  52.6375151  75.2594757  66.6482544  53.4900999
  74.2513752  67.3415375  52.5989962  27.5895071  63.0369425   7.7733886
  26.8840742  63.5534906   8.1629705  28.0187058  63.6382771   7.1647674
  50.9578276  55.5184937  14.6543980  51.3959360  55.9256363  13.9070511
  51.6710138  55.1706409  15.1897418  59.8252916  78.3401775  15.0233591
  60.6212473  78.0319643  14.5901287  60.1379061  78.9426947  15.6982505
  63.3893394  69.9611473   8.7282538  63.2017040  70.4155827   7.9069662
  63.5003376  69.0447569   8.4749860   0.5328105  16.0278153  51.1562061
   1.3208166  16.1420679  51.6874552  -0.0066362  16.7916703  51.3605404
  73.1796408  66.6271973  43.4394026  72.6561069  67.1299458  42.8153944
  74.0814447  66.7351675  43.1371927   4.5161748   5.5074942  60.4536772
   4.6134004   6.2949675  60.9890842   4.7797504   4.7911268  61.0312366
  33.2417440  58.8505173  11.9272137  32.7139568  58.0933142  11.6736031
  33.9671254  58.4794331  12.4295580  71.8068504  12.7369857  56.2975788
  71.0870838  13.1755304  55.8438778  72.1267843  13.3867633  56.9234085
  34.4665027  72.6996469  43.0992794  34.8804116  72.4611998  43.9287710
  35.1965451  72.9315805  42.5252771  28.0389810  36.5584159  56.9503736
  28.3275223  35.9869671  56.2387466  27.0844722  36.5664244  56.8790865
   8.9285326  61.4681339  22.9238296   9.7759706  61.0270834  22.8642106
   8.3944714  61.0533667  22.2463489  81.9758224   9.5537078  64.6003819
  81.6234112  10.0566590  63.8661671  81.8670368  10.1281023  65.3583193
  68.1524897  38.5248590  52.6206779  67.6065302  39.2388344  52.9499149
  68.0507040  38.5644364  51.6697264  73.9928055   2.1924402  65.8706045
  74.4201088   1.4401641  66.2801456  73.9016104   1.9445252  64.9505758
  64.9493504  21.3513136   5.5662161  65.3921843  20.9330702   4.8278406
  65.4710007  22.1333456   5.7465971  76.0657120  20.2272344  26.2329388
  76.4413691  19.3878067  25.9674716  75.2162409  20.2593446  25.7929397
  68.4251642  50.4931402  39.7988462  69.2009068  50.2422810  39.2973208
  68.5408115  50.0668812  40.6480598  49.8108912  54.0544176  23.2970142
  48.8561058  54.1215849  23.2868361  50.0084686  53.5713005  24.0993810
  48.7063456  63.4215927  24.9775505  47.9823017  63.6798382  24.4071984
  49.3449402  64.1291380  24.8892021  26.6872954  43.4997034  33.4220886
  26.3155413  44.3248558  33.1103849  27.4281526  43.3352709  32.8387165
  30.9861541  37.7255082  63.3900166  31.4188313  37.1131349  63.9850140
  30.0907731  37.7900267  63.7222195  20.7767916  69.7796059  36.5087771
  20.1863432  69.2221355  37.0155573  20.1990128  70.2754259  35.9286332
  46.3275242  75.1339674  27.8117514  46.7800665  75.2250576  26.9732189
  45.5186129  75.6340218  27.7029204  37.7689528  67.3411417   2.8222549
  37.5312304  68.1886864   3.1982768  37.2586942  66.7051077   3.3235779
  66.3647366  11.8224943  13.0587566  67.3092937  11.6899920  12.9782438
  66.0024261  11.4616656  12.2495794  35.3646612  30.9795523  68.0063105
  35.0681806  30.0710726  68.0610323  36.3006854  30.9382415  68.2022285
  56.7040634  53.0987930  10.5389500  57.3117685  53.5684919  11.1101890
  57.2678947  52.6213121   9.9303973  59.7555971  13.4974635  27.7139378
  58.9009809  13.5930729  28.1343246  60.1251650  14.3804264  27.7190709
  56.8417883  61.6593933  17.5060737  56.9172859  60.7472944  17.7864516
  56.9180775  62.1656704  18.3148324  32.4322414  74.3143415  32.1599579
  31.6787243  74.5431089  31.6157985  32.1739483  74.5686817  33.0458617
  59.3721867  75.4675341  24.2106223  59.7390604  74.8219538  24.8146629
  59.1447401  74.9627876  23.4297705  12.3030615   8.8903952   2.2341560
  12.4668062   8.6492902   1.3224061  12.8932798   8.3313298   2.7394474
  56.4677954  54.8057747  32.3792911  56.0749912  54.2599154  31.6981316
  56.0712767  55.6678772  32.2536707  16.5929711  73.5849953   4.8879200
  17.2560704  73.3701181   4.2319024  15.9915459  74.1766119   4.4356936
  67.3581123  77.0490170  32.6643825  67.0358849  77.9189730  32.4286199
  67.2099161  76.5184546  31.8815851  19.5206094   1.5105583  50.8799267
  20.4716945   1.5734638  50.9677362  19.1860557   2.2791368  51.3420868
  68.3043289  69.2362976  35.1887393  67.6219893  69.8925638  35.0474501
  69.0452623  69.5450592  34.6672821   4.0595832   5.8132046  12.5310016
   3.8393408   5.1714057  13.2061446   3.3919236   5.6897777  11.8562949
  37.8053880  25.5085754  55.6350994  37.5903535  25.3217530  56.5489340
  38.0087113  26.4438558  55.6232738  14.5052111   1.0043571  23.9346290
  15.1011980   1.0255670  23.1859088  14.4694030   1.9114950  24.2380261
  30.9976459  62.7054644  32.1764636  31.1281681  62.8785515  33.1087899
  30.0881958  62.4139547  32.1120000  32.7308297  10.8481061   5.1663214
  31.9521761  11.4011145   5.1022047  32.3993015  10.0013983   5.4653317
  83.1364155   1.2520710  19.6781087  83.0844593   0.9386925  18.7751544
  82.6293468   2.0639242  19.6794236  59.2705584  63.9256668  18.4758055
  60.1388788  64.3278742  18.4538293  59.4415188  62.9941702  18.6147940
  30.2662492  41.3947773  66.6655874  30.6543374  41.2293100  65.8063745
  30.9565616  41.1665392  67.2881651  48.5414553  72.7614737  11.3959396
  49.0017605  71.9238853  11.4487827  47.6473093  72.5280619  11.1464262
  69.0909815   6.7235410   5.2726561  68.2494497   7.1408540   5.0885391
  68.9009237   5.7854801   5.2603650  78.5384464   0.7237138  18.5838008
  78.3067608   1.4743754  18.0369353  77.7027559   0.2952513  18.7689388
   2.4402986  32.4733067  19.7098899   1.9881558  33.2078767  19.2949116
   3.3561260  32.5795603  19.4525909  54.0882254  77.2703505  28.2407522
  54.2371082  76.6135073  27.5605893  54.9517202  77.4141455  28.6279631
  15.1534176  28.1581020  37.6691103  15.4297483  27.4809456  38.2866311
  15.0617218  28.9467788  38.2037258  17.2484255  37.6237965  39.4422460
  17.5974393  36.7330432  39.4109058  16.3537812  37.5192404  39.7661471
  71.9183540  10.9971488  67.8230858  71.5679502  11.7344820  68.3228731
  71.8195248  11.2595987  66.9078922  16.8348098  72.8205109  59.4801474
  17.3917496  72.9518032  58.7128067  17.4321043  72.8921127  60.2246904
  68.5559797   4.0216824   5.1651508  67.9191303   3.6351582   5.7661957
  68.5967922   3.4075871   4.4320387  35.6635165  20.6865168  37.3401523
  34.8778033  21.0843992  37.7150846  35.5480838  20.7739687  36.3939714
  41.1923742  64.7671127  17.7293730  40.8000231  63.9335346  17.9890680
  41.6291142  64.5778561  16.8989086  71.0195541  30.5154634  62.0636034
  71.0840273  30.6818533  63.0040216  71.5300703  31.2177229  61.6605663
  21.8834114   3.4305951  67.2672319  22.2799444   3.5501805  68.1301880
  21.3186455   2.6642650  67.3672724  71.9690657  74.1186285  44.0180969
  71.6704130  74.7393179  43.3534288  71.1851740  73.6208534  44.2504072
  69.1001177  51.0170794  65.2816153  69.6071815  51.8129063  65.1210403
  69.5652437  50.5760860  65.9925413  20.2674365  23.4039354  62.3365068
  20.6797123  22.5561047  62.1708488  20.4800701  23.5994291  63.2490873
  50.0286055  26.0010767  61.2166739  49.8506165  26.8375397  61.6466522
  49.1626740  25.6315422  61.0439157  29.4322085  30.0797081  43.4562635
  28.9527416  30.8652306  43.7195110  30.3061414  30.1964068  43.8288975
   9.6504015  32.2205091   6.3104749   9.3338907  32.0150828   5.4307854
  10.4604244  32.7094531   6.1654669  80.9535885  73.1544495  22.2035170
  80.1217461  73.5301161  22.4918556  81.2540722  72.6364183  22.9502296
  77.8546238  42.8902006  37.6308537  78.7145996  42.5811243  37.3460007
  77.2789621  42.1337414  37.5185418  32.3866439  49.3322563   9.0267497
  33.2021952  49.8097754   9.1786784  32.5267529  48.4809494   9.4413328
  39.4933391   4.8724574  21.8558788  40.0182724   5.6723553  21.8269134
  39.9194622   4.3302387  22.5196934  33.6849785  23.0543160   9.4696379
  34.5073795  23.1931567   8.9999443  33.8507962  23.3948112  10.3487289
  23.6032510  26.2017226  12.6588821  24.1310668  25.8433390  11.9452989
  22.7405119  25.8039784  12.5417817  51.4127350  75.4306698   9.8068303
  51.6919994  74.6346331  10.2591205  52.1968555  75.7336330   9.3490076
  16.8604040  23.8230777  31.3282990  16.4931703  24.3013597  32.0716834
  16.9085002  22.9152036  31.6277695  26.0143209   1.0438385   9.5575470
  25.9752107   0.1135914   9.7796792  25.2331090   1.4199731   9.9630868
  45.0637770  40.8772516  20.7647395  44.4707346  41.3625479  20.1911354
  44.7324371  39.9793959  20.7473636  38.0506253   1.3338438  27.2372699
  37.1810055   0.9395523  27.1699786  37.9006338   2.1712148  27.6760674
  13.0950630  15.4324841  13.6820984  12.6978397  15.7781887  12.8827643
  12.3519206  15.1600862  14.2204022  55.6056547  76.3297939  66.6682720
  55.7223892  75.8233738  67.4721003  56.2942028  76.9938946  66.7014599
  66.3027334  32.7268958  17.3931122  66.3182878  31.9863033  16.7868853
  65.4213953  33.0898809  17.3052335   5.2039748   2.7599588  30.6986141
   4.5881885   2.9506573  31.4061975   6.0272330   2.5611341  31.1446476
  21.4857793  20.9044647  20.1056957  21.1035132  21.7548823  20.3222513
  20.7653165  20.4107738  19.7139871  35.2266312  29.0745068  19.7546041
  36.0314679  29.4535565  20.1078653  35.3538346  28.1288385  19.8305154
  40.1159239  40.5649996   5.9389549  39.2644048  40.4510641   6.3610578
  40.0367451  40.0945520   5.1091093  16.0251105  20.7418466  13.5639608
  15.7452548  20.8260298  14.4754565  16.7629325  20.1328540  13.5952163
  68.8243008  70.9089994  55.1286793  68.3256912  70.9754133  54.3143034
  68.7150383  71.7631149  55.5467463   6.0106945   7.4687761  22.5437522
   5.6390536   8.0001295  23.2478690   5.6935859   6.5828592  22.7193260
  42.8853989  53.3011055  21.0881305  42.2803640  54.0314293  21.2177062
  42.3217630  52.5290442  21.0385346  36.2071824  38.6544776  21.0280275
  36.8313861  39.3017530  20.6999469  35.4386091  38.7569761  20.4667616
  31.3473582  11.5611529   2.2691306  31.3602042  12.2141874   2.9688543
  30.6727958  11.8709147   1.6647770  32.5083137   1.2986621   1.7012136
  33.1886387   1.7567296   1.2076902  32.9534221   0.5367491   2.0721586
  66.0011387  50.5588531  56.5266514  65.8999443  49.7501230  56.0247087
  66.7990255  50.9578609  56.1796570  83.7383366   8.5938078  52.4515438
  83.4487438   9.2213333  51.7892885  83.6442566   7.7397799  52.0296192
  44.3197727  63.1653833  40.2215481  44.5386505  62.7998066  39.3644142
  45.1537561  63.4853649  40.5655146   7.5396734  67.1495056  56.2199736
   7.7168393  68.0894279  56.2572336   8.2973230  66.7807865  55.7658291
  44.5881176  46.0981703   9.9207211  45.1410341  46.3995457   9.1998261
  44.7317314  46.7392302  10.6168890  37.0029545   7.5036961  55.8592272
  36.9465494   7.2716057  54.9323034  37.6506519   8.2077712  55.8908558
  12.9653680  39.6043444  47.6859331  13.6163664  40.2715349  47.9033947
  13.4431434  38.9679074  47.1540403  33.9696765  38.3020353  29.0538454
  34.4911575  38.3956194  29.8510480  33.3690810  39.0471506  29.0716672
  49.6738148  48.4529161   4.3409583  49.0291071  48.7911224   4.9624091
  49.2167521  47.7487516   3.8810956  81.5685081  13.2368457  62.5538731
  81.5561676  13.2118666  63.5106707  82.4668789  13.4819067  62.3322535
  31.0179210  68.9137602  61.4632511  31.0064197  68.3669043  62.2487736
  30.1591134  68.7766838  61.0633850  15.1013529  53.5292339  26.7502904
  14.7611082  54.2291927  27.3075390  15.6985617  53.0408812  27.3169351
  80.6803417  28.1569290  29.5212221  80.4839039  27.2802091  29.1910601
  81.3468361  28.4944487  28.9228106  54.6422148  54.1991568  59.2168760
  54.3765545  54.6071291  60.0410223  54.2911720  54.7771358  58.5394239
  10.2399588  29.1833925   0.1890565   9.5933467  28.6284590   0.6251447
  10.3613186  28.7797594  -0.6703519  28.9207649  57.2962856  25.6337047
  28.2362795  57.7771997  25.1684809  28.6530519  57.3270464  26.5521884
  43.2247019  69.4298983  55.0608063  42.9458666  70.0550032  54.3916845
  44.1799116  69.4915867  55.0630093  14.1894448  34.1389441   6.9141024
  14.7674632  34.8744822   6.7113394  14.0798092  33.6833262   6.0794622
  19.3344700  32.6428914  29.3245482  19.1509187  32.7705145  30.2552748
  18.4844995  32.4286985  28.9399695   0.8254481  76.2846136  42.0520639
   0.9990884  75.6374407  42.7356243   1.5623184  76.8932009  42.1056795
  54.5914125  61.2850714  55.2167082  54.1593790  60.8607101  55.9579849
  53.9744520  61.9602633  54.9343824  12.7740729   0.8052682  58.1401491
  12.4643040   0.2466092  57.4272871  12.3584700   1.6522627  57.9785776
  67.7520561  19.8923945  24.7458291  68.5229540  20.3201199  25.1186442
  67.9363203  18.9563382  24.8237896  33.2897520   1.1313864  68.2353067
  33.1862617   2.0733458  68.3703375  33.8519096   1.0603549  67.4638367
   2.3376103  21.3105440  58.5209179   2.1161479  21.3305473  59.4519329
   1.8004598  20.6041932  58.1620741  33.7708640   8.4257984  47.7644300
  34.5576072   8.9391357  47.9481459  33.2728791   8.4499735  48.5815334
  40.4303169  38.7364435  14.6718276  39.7228956  38.0916286  14.6720278
  41.1962652  38.2517648  14.9794638  74.5540428   3.2994157  48.3458424
  74.7807503   2.9392731  49.2032385  75.2638912   3.9100850  48.1472635
  83.5176591   6.1155146  46.3320398  83.1096686   5.2574205  46.2160635
  83.9455611   6.2924623  45.4942894  66.0253477  74.8834753  47.2570944
  66.7282772  75.5023193  47.4549627  65.4568100  74.9127531  48.0265951
  57.1519375  44.6222305  49.8771286  57.8100586  45.0146818  50.4507971
  56.6480970  44.0447187  50.4505873  54.0751362  58.4031153  60.8031654
  53.5837793  58.5148096  61.6170025  53.8708210  59.1853666  60.2907515
  35.2656889   8.4366882  17.0679104  34.8570538   7.5953180  16.8645763
  34.8114967   9.0653443  16.5069008   2.5615120  37.8739190  18.0352390
   2.8448936  38.4754753  18.7237573   1.6058268  37.9255390  18.0505049
  64.8018217  23.3419037  28.1261897  64.4263840  22.8628516  27.3874140
  65.7308626  23.4243035  27.9109573   1.2749968  23.4748721  10.8400369
   0.9817330  22.7428961  10.2974164   1.6591978  24.0941739  10.2194822
  37.7473354  32.2759581   2.2010556  38.4892821  32.6549196   2.6723650
  36.9993615  32.8147483   2.4588789   9.8135942  29.4179535  10.2886498
  10.5959237  29.3410730  10.8348024  10.1480353  29.4328189   9.3919009
  53.2215071  29.8885012  12.2109687  53.8569546  30.3662777  11.6778946
  52.5658512  29.5818448  11.5846241  28.4172320  12.7492261   1.5675279
  28.0105209  13.3739352   2.1679920  27.8645515  11.9696355   1.6224466
  76.7769766  16.9123411   8.7724715  77.3402977  16.3969278   8.1951916
  76.4361191  16.2781477   9.4032222  21.4630151  31.0202718  47.6411676
  21.1301422  31.7620158  47.1359539  22.3587179  30.8986688  47.3262644
  35.3608394  21.4238858  17.5440109  35.3573489  20.6402183  18.0936337
  34.4352984  21.6085243  17.3842728  26.2936068  76.3470030  24.7255850
  26.0914302  75.9697866  25.5817747  25.9724998  75.7003736  24.0970993
  34.8448062  19.0613985   4.2371225  35.7011986  19.3235159   3.8993031
  34.3366671  19.8723471   4.2568254  37.8937912  61.1258316  33.8054848
  38.2972789  61.5402651  33.0428100  38.3565092  60.2930641  33.8983607
  25.3771973  73.2527161   7.3720872  24.9661660  74.1153383   7.4283463
  25.9933853  73.3280706   6.6434807  79.6486330   8.3503443  51.2400723
  78.9005327   7.7539104  51.2691784  79.2941427   9.1931814  51.5232611
  68.6048460  55.4018641  42.4524164  68.4582281  54.7108459  41.8064833
  67.9850435  56.0903597  42.2114801  77.3817825  68.7343121  53.0904627
  76.4367914  68.5827684  53.0743361  77.5149965  69.4788456  52.5038147
  81.7827511  58.2168055  25.7557416  81.4392567  57.5784063  25.1306963
  81.0636044  58.8348293  25.8865190  73.1174850  57.7055502  59.0931511
  73.9545059  57.3333645  58.8154650  73.2151413  58.6471081  58.9511490
  70.0051117  12.4691880  52.3261213  69.4888496  13.2749689  52.3466015
  70.9144831  12.7665603  52.3553133  80.8908653  62.9521513  44.1011190
  81.3263988  62.5021648  44.8250389  81.1941814  63.8577843  44.1648865
  64.2364502  53.8704014  65.1116610  64.4338036  53.4457207  65.9464836
  63.3931112  54.2999220  65.2549076  24.8128772  65.3252554   7.8657115
  24.5354009  64.5384121   7.3965383  24.2091680  66.0063171   7.5692010
  24.3253207  28.4608936   4.1040224  24.9722385  28.7622595   3.4661299
  24.2368364  29.1898322   4.7180676   2.6758355  75.3824997  39.1435170
   2.5010973  75.8547306  39.9575806   3.2696009  74.6764851  39.3988943
  75.7307673  40.2123547  14.2878926  75.7862329  40.4843330  15.2039611
  76.5836477  39.8192430  14.1027021  48.2707644  69.0800571  59.7183752
  49.1575050  68.9293623  59.3909407  47.8018236  69.4582462  58.9745331
  43.6442280  24.6488118  50.7884359  43.4322977  24.6952057  51.7207289
  43.3551693  25.4900765  50.4349518  40.9913826  28.1240249  22.5177336
  41.4809942  27.3117852  22.6472616  41.6637850  28.7858343  22.3561502
  15.3426838  68.7556410  61.4357042  15.6018984  67.8343821  61.4177179
  16.0357511  69.1897917  61.9331026  23.6153555  26.7223167  31.9944072
  24.5163512  27.0181441  31.8643022  23.6388016  25.7870078  31.7922187
  54.8799038   6.1851352   3.7843913  54.6809769   6.9829237   4.2744851
  55.3618860   5.6373447   4.4039482  53.2127714  33.2430959   7.5737917
  54.1658545  33.1546640   7.5801879  52.9876518  33.4745240   8.4748983
  59.3300486   2.0041937   2.9487440  59.1908455   1.1682094   2.5037903
  58.9810228   2.6586169   2.3436482  28.4905863  36.3208127  31.1253500
  27.5881505  36.4208126  31.4284015  28.7219572  37.1806526  30.7741022
   6.8304497  75.8787727  39.8833418   6.8143237  75.6886196  38.9453602
   7.3886222  75.1965332  40.2564716  47.8347015  32.6482320   0.7142659
  47.8395462  33.3374786   0.0500772  48.6608171  32.7625108   1.1840580
   1.5671632   6.0733384  23.1116724   2.3685093   6.4885497  22.7928066
   0.8645318   6.6561216  22.8237414  40.5160379  61.9658852  15.7456326
  41.2571096  62.5680208  15.6787276  40.9170437  61.1044264  15.8610070
  32.5350213  13.4708786   7.9008496  32.4835062  14.2022836   8.5161740
  33.2542562  12.9315436   8.2295585  16.2787640  34.0869427   3.8908812
  16.8182838  34.8559618   4.0746218  15.4906595  34.4403172   3.4782687
  57.3066854  76.9980383  58.7979317  56.9161272  76.5938663  58.0231142
  56.6513062  76.8803358  59.4855738  32.7075195  55.7922459   5.3551006
  32.4983191  55.9890747   6.2681854  33.6634874  55.7493925   5.3322786
  21.3241768  41.1476374   3.7617481  21.0308862  41.4140940   4.6330756
  22.1792817  40.7438278   3.9099503  20.0839686  33.1346917  58.9179611
  19.9119449  33.8853836  58.3495378  19.6910048  33.3746672  59.7571421
  35.8297491   8.8483340  61.1275959  36.6835618   8.4492856  61.2949181
  35.8781075   9.1453165  60.2189207  23.2166767  36.8700933   4.2273661
  23.3220339  37.1044135   5.1494431  23.9946628  37.2272229   3.7990823
  21.6623712  61.5318918   2.7570242  22.3720384  61.8464279   3.3170876
  22.1056724  61.1638737   1.9926432  82.8273201  31.2446451  63.9296770
  82.3988724  30.4640532  64.2808819  82.4613667  31.9681287  64.4384861
  14.6761608  56.3545370  27.8817177  14.2841482  57.1603870  28.2181072
  15.4224372  56.1922073  28.4587359  65.0717020  10.2065015  33.5912967
  65.0261641  10.1235819  32.6387811  65.1523352  11.1476362  33.7462020
  23.3921289  13.9759600  56.2996197  23.3045888  14.8167646  55.8506012
  22.5539064  13.5376751  56.1529160  29.1456318   1.3657916   3.1048924
  28.8912749   2.2698453   2.9199040  30.0286579   1.4349051   3.4678280
  45.9387159   0.3733948  20.6672287  46.0124254   1.3231042  20.7613087
  45.3376484   0.2514445  19.9323285  69.3534708  74.5058680  65.9994888
  69.2760706  74.9189711  65.1394939  70.0783682  73.8880873  65.9040785
  77.4096775  67.4875975  28.9956260  76.8012094  67.9093456  29.6023607
  76.8688297  67.2448492  28.2441068  45.5939627  47.4114180   7.6021516
  46.5160751  47.6333237   7.7313471  45.2466440  48.1295490   7.0731103
  11.5178764  69.1028452  12.2685134  12.4369061  68.8367701  12.2971916
  11.2993407  69.3076420  13.1776524  69.9265242  47.1937752  67.2636509
  70.8283854  47.2616339  66.9501734  69.8690319  46.3152981  67.6394272
  75.0460911  53.8076782  57.7714729  75.5919886  54.5243073  57.4479437
  74.5239449  54.2011452  58.4706020  22.9357457  32.9310203  19.5643878
  22.1543074  33.0661464  20.1004171  23.1977963  33.8118625  19.2966628
  82.2149181  76.7419386  55.5483675  82.3308754  76.4154625  56.4406729
  83.1034946  76.8000841  55.1972485  50.7496262  13.6801612   6.4786291
  51.3054800  14.3961871   6.7861468  50.1188326  14.1006494   5.8942300
  32.1204042   3.7664795  66.1004448  32.4746895   3.3808416  65.2991962
  32.7740145   3.5681581  66.7710352   8.8558698  13.8783312  45.2339411
   9.0104187  14.4367373  44.4720173   9.1199893  13.0039811  44.9476099
   3.7022573  28.6256075  59.7732496   4.5088506  28.8195109  59.2957115
   3.0374983  28.5291076  59.0913296  27.4977064  29.9628282   9.7940892
  26.9218802  30.2135420   9.0717328  28.3789468  30.1627684   9.4783825
  20.6596422  19.0998089   8.5361278  20.1674914  19.7414231   9.0483302
  21.4594054  19.5596802   8.2809228  34.4162393  31.7486644  31.1888599
  34.4977927  30.8020711  31.3052201  35.1141667  32.1175361  31.7302155
   6.6799498  56.8706846  52.8312397   7.4840301  56.4252996  53.0982971
   6.3114238  57.2093391  53.6471653  50.0704145  42.0422125  12.2017753
  49.9155760  41.2172079  12.6618004  49.8270178  41.8597221  11.2942040
  41.9228983  29.0968537  16.7340922  41.6203165  29.9528980  16.4310038
  41.5529442  29.0093017  17.6125574  41.6076183   4.8526499  15.0275373
  41.2413740   4.0537095  15.4067373  41.4750242   4.7529483  14.0848231
  62.8470230  77.0310593  48.9165449  63.4361982  77.7673912  49.0806007
  62.9999924  76.8015194  47.9999542  39.2072487  14.0186381  25.5169487
  38.5040712  13.8922453  24.8799276  39.2244339  13.2041442  26.0194802
  77.1287155   6.9607466  54.8600292  77.1405029   7.8931916  54.6440649
  78.0467653   6.7395002  55.0164509  31.8289971  42.9956484   4.3245596
  30.9653783  43.0710268   4.7304061  32.0815921  42.0833683   4.4666076
  17.4741840  44.7867250  44.7086191  16.6463327  45.0795126  45.0896311
  17.6827371  43.9801025  45.1798916  62.7050543  59.8752451  68.7888336
  63.3069754  60.4701471  68.3415985  62.3627281  59.3134975  68.0935001
  44.6491385  21.2585473  13.0302823  44.4121981  20.8870244  13.8800240
  44.0019417  21.9478965  12.8814125  76.4287233  57.0430851   3.0755249
  76.9255638  56.5348339   3.7166685  75.9502411  57.6862621   3.5985982
  82.6868820   7.5371093   1.2582400  82.7322483   8.4882540   1.1607823
  83.5137177   7.2194600   0.8953632  64.3799257  45.1698637  -0.0784339
  64.1075420  44.7959757   0.7595692  63.8791513  45.9822655  -0.1523191
   9.9966973  40.1419497  22.5014806   9.3116260  40.2258062  23.1647134
   9.6648210  40.6343699  21.7507410  79.8601055  65.9694958  66.0313606
  80.6714249  66.3486004  65.6933069  80.1316929  65.4704571  66.8017006
   8.4118032  -0.0335953  57.2376490   8.4735626  -0.0046830  56.2828827
   7.4954641   0.1703078  57.4246740  46.6160297  64.0335274  28.3873391
  46.7377758  64.9429512  28.6600232  46.3126850  64.0936613  27.4814701
   9.8157233   1.8128367  59.0013790   9.5315719   2.6625043  58.6643982
   9.4463110   1.1766101  58.3890200  14.3407071   5.7892638  48.8484383
  13.8328564   6.3757217  48.2877350  15.2039325   5.7520217  48.4365082
  51.5843725  63.0046463  64.1212654  51.6008282  63.9528704  63.9915085
  52.2747278  62.8387308  64.7632217  21.6927648  11.5008903   3.0838910
  22.2700286  11.7901945   3.7905043  21.7558575  12.1922112   2.4248561
  14.8943818  63.9996576  40.6452894  15.4585111  64.2425632  41.3794470
  15.1092052  63.0832815  40.4711342  77.5319052  36.7140102   9.5013851
  76.8803024  36.8499160  10.1892626  77.0823193  36.1779451   8.8481325
   3.2363474   9.2387265  62.6719570   3.0934894  10.1667321  62.4858665
   2.5833815   9.0247965  63.3383656  77.4293995  16.1098814  12.6572585
  78.0631924  16.3391089  13.3369613  77.8233051  15.3644371  12.2040653
  25.6848478  72.6124048  49.0211868  25.0975943  73.0447769  49.6412039
  25.1024437  72.1173859  48.4450006  52.3826456   8.6799425  59.3205547
  51.4266634   8.6328638  59.3314314  52.6593113   8.0945808  60.0255632
  37.4078512  31.8949842   5.9786928  37.1551681  31.6846108   6.8776506
  38.3597422  31.7948794   5.9678006  46.3080168  68.3204937  17.6766419
  46.9119883  68.8626480  17.1691847  45.7224894  68.9474154  18.1013250
  83.4539795  68.5379601  44.3949080  83.6539364  69.4665432  44.2766762
  82.5584698  68.4426022  44.0705681  74.9537230  16.3600421  34.7971940
  74.5536184  17.1702850  35.1128793  75.6348753  16.1629343  35.4401660
  81.9926643  66.4829016  49.9780655  81.2345409  66.8990040  50.3883600
  82.7041531  66.6092682  50.6057930   0.5479643  10.5084205  58.3778858
  -0.1361169  10.3436434  57.7289534   1.3669343  10.3540814  57.9070330
  35.7244277  14.7913659  20.3014541  34.9550390  14.7238767  20.8668900
  36.2876558  14.0677476  20.5760121  14.1660964  36.0516620  15.5335724
  13.2227349  36.1100149  15.6848943  14.3674815  36.8078756  14.9823761
  79.3848419  77.1564007   7.3688984  79.1230011  78.0003548   7.0009178
  79.7883320  77.3760796   8.2086432  61.6302681  10.1281869   8.2806164
  61.2508345   9.6796036   7.5249481  62.5666952   9.9371713   8.2272005
   6.7157054  34.8258090   4.7218385   6.7134154  34.0131855   5.2276772
   7.6232576  35.1279163   4.7580516  21.9205308  49.8107243  12.6828337
  21.4265752  49.3884611  13.3856380  22.4593925  50.4645634  13.1281996
  69.5205355  65.0785398  67.8765678  70.1575565  64.4298649  67.5771427
  69.9416256  65.4995584  68.6260080  13.6342132  27.5009537  66.6380167
  13.3502698  28.2172728  66.0701323  13.7914693  27.9156971  67.4862480
   7.2809374  56.9875050  40.4264069   7.2601354  56.0572910  40.6511497
   6.8940258  57.0313549  39.5519900  78.9275789  64.5008516  36.9365573
  77.9970598  64.7249460  36.9485927  79.1623831  64.4032192  37.8593612
  28.4839821  27.5145388  37.6629519  27.7661943  28.1164837  37.8596067
  29.2761135  28.0113244  37.8678012  10.3048730  43.9696693   2.3017669
   9.9463797  44.1880560   3.1620115   9.5750117  44.1035604   1.6971120
  15.2603877  47.3315382  11.7840123  14.9479866  46.5144539  11.3954103
  16.0478771  47.0812416  12.2671735  39.8350620  60.9369707  23.1490946
  39.4599342  60.7099867  23.9999700  39.1023183  60.8650446  22.5374198
  14.4598806  68.9935827  28.3735299  15.2180493  69.5699310  28.4696507
  14.0733516  68.9583445  29.2485070  23.3615780   7.5601125  56.5237856
  24.1638756   7.1012318  56.7727375  23.5665488   8.4865534  56.6499758
  38.6035872  40.0185680  17.0902276  39.4894624  40.1473427  16.7512941
  38.0309510  40.3077984  16.3798285  31.4848471  43.0400276   8.6335623
  31.4572024  43.4460831   9.4999266  32.3180032  42.5690937   8.6162448
  51.0096502  74.9837255  16.1331451  51.9328308  75.0511026  16.3769233
  51.0209513  74.8603296  15.1839995  30.0206351  24.7546768  20.9426761
  29.0991378  24.6660995  21.1860442  30.2747440  23.8811898  20.6448841
  73.5456800  72.8291655  49.4748974  74.0297985  73.0179977  48.6710310
  72.7420616  72.4035168  49.1761351  50.8991575  67.3594618  13.2268882
  51.6579580  67.9283810  13.0973375  51.2500858  66.4718819  13.1542301
  61.6407156  63.0934668  63.6391211  62.1222973  63.9052629  63.7981415
  60.7287788  63.3698225  63.5483599  45.1322746  33.5703349   1.1557047
  44.5580196  33.2026911   0.4839160  45.9886694  33.1815958   0.9776556
  59.5473194  59.9817419  27.3761559  58.7786627  60.0398779  26.8086910
  59.6047735  60.8426809  27.7905464  16.8457079   1.6304576  66.5995121
  17.4414909   2.3719390  66.4923716  16.5614808   1.4210789  65.7097912
  51.0193062   5.0579947   7.0769596  51.2944889   5.6747341   7.7552962
  50.1346111   5.3385496   6.8427974  30.6381965   1.5052696   5.5830157
  30.6150436   0.6867889   6.0787827  31.5540195   1.6011594   5.3216588
  80.1892948  71.7557621  45.5649662  80.6709385  70.9539032  45.3618050
  79.3140650  71.6065931  45.2072477  32.2866058   8.5556567   6.7929900
  31.9014883   9.2128843   7.3726183  32.7790546   7.9796624   7.3777592
  68.2367468  27.4748564  32.7133441  67.7314281  28.2591510  32.4994111
  67.7462339  27.0600796  33.4229875   9.0954775  40.8150101  32.7699709
   9.8296893  40.3043079  32.4288726   8.6742735  41.1785841  31.9911027
  45.0728273  52.0000362  14.9626696  45.8692932  51.7598391  15.4361439
  44.3803549  51.9584036  15.6222010  83.2225704   6.8225080  57.3866463
  83.9601326   7.3523140  57.0840979  83.4853172   5.9202015  57.2048807
  21.5284634  65.3993273  56.1372137  21.7524791  65.4610014  55.2086449
  21.6749024  64.4796038  56.3583517  31.6004419  54.3232822  40.7544947
  32.1352410  53.8468981  40.1194525  32.0163250  55.1828527  40.8209324
  26.6574502  64.8762989  12.6505053  26.8468857  63.9380503  12.6443112
  27.0056534  65.1854324  13.4868205  15.0704372  21.1663866  49.7532129
  14.7702718  21.7850089  50.4191208  15.9632015  21.4463949  49.5512247
  29.2093825  10.4798710  47.1428299  30.1197886  10.7359624  46.9951391
  29.0180373   9.8593223  46.4395952  76.8795061   4.9895427  57.5759840
  76.3899708   4.7710806  58.3689880  76.5124178   5.8262849  57.2907829
  21.2739706  33.8044620  52.1457529  21.1513352  33.1476688  51.4603233
  20.4699230  34.3234801  52.1267557  58.5106707  65.0083447   8.1712997
  59.0616751  64.3820047   7.7019119  58.8065577  65.8651447   7.8637707
  68.2696867  49.2271042  31.4064860  68.7296057  48.7888527  30.6904936
  68.6476326  50.1061773  31.4313865  64.8554230  52.8819942  11.9758666
  64.0037680  53.2068205  12.2681022  65.4651165  53.1596565  12.6595390
  32.1580076   7.6537544  67.8712320  32.2502732   7.7672309  66.9252682
  31.7439222   8.4632713  68.1703091   2.1003008  18.5121262  60.7328606
   1.1732502  18.6869454  60.8948708   2.5621083  19.1804123  61.2391806
  40.6544399   1.4458095  26.2344885  39.7581959   1.1178579  26.3081288
  40.5565882   2.3370042  25.8991861  23.0974197  60.3097153  52.2748518
  22.8246379  61.1418772  51.8884230  24.0237188  60.4339027  52.4816847
   0.6069750  12.9943490  52.4502802  -0.2375524  13.2985640  52.7826357
   0.6598924  13.3547103  51.5650845   8.7505180  21.9183230  12.2588539
   7.9960752  21.7246413  11.7024946   9.4164211  21.2863278  11.9879520
  60.4724836  57.5813818  26.4280796  60.2182388  58.4770823  26.6501451
  61.1102486  57.6816654  25.7213712  72.9158354  48.3767366   9.5177823
  73.5489702  48.9635706   9.9313045  72.1274233  48.4585524  10.0543880
  58.7808800  53.4449768   2.1982771  59.1190147  54.1398716   2.7630901
  59.4053316  52.7269554   2.3019198  23.8082004   5.5544782  44.9808693
  23.5312414   4.7812939  45.4725122  24.6758080   5.7611817  45.3283787
  56.1408615  57.4125099  30.9496951  55.7362413  57.8972483  31.6690993
  56.6602325  58.0667448  30.4822993   1.7576630  72.1560907  63.3051348
   2.3964350  72.6908445  62.8337097   0.9893810  72.1419191  62.7343702
  74.5329285  64.5017862   4.9034452  74.3753576  63.8881302   4.1859281
  74.2707396  65.3529119   4.5526198  80.3257792  78.8962851  30.1416326
  81.1687033  79.3294532  30.2760720  79.9902146  78.7457344  31.0253525
  46.3843393  34.6589065   7.5160837  46.3322783  34.0197659   8.2267320
  47.2799063  34.5794487   7.1876246   0.6199273  26.4961505  66.9428110
   0.5960126  26.9177818  66.0838079   1.5083790  26.6536856  67.2622919
   8.6928535  39.0191340  47.9510736   9.5082432  38.7288213  48.3598375
   8.0138010  38.4889078  48.3681822  78.8366795  22.2799611  51.8049002
  78.8253307  22.0918226  50.8664417  77.9367638  22.5343037  52.0090866
  48.0771208  11.3713431  38.7605357  48.9002800  11.8456125  38.6434650
  47.9294920  11.3776243  39.7062635  30.5825114  57.0290470  11.7507386
  30.0615168  56.4242983  11.2224591  30.4461336  57.8833914  11.3411999
  43.9190149  18.3745193  66.6217804  44.3298483  18.2977939  65.7606411
  42.9793739  18.3788180  66.4393425  48.8478279  56.1033440  34.0024638
  49.1812325  56.0068130  33.1104136  48.2394171  56.8406057  33.9522910
  23.3677316   3.6513209  53.9252615  24.0231705   2.9571581  53.8561916
  23.3038187   4.0093416  53.0398417  41.2002230  24.7378612  17.8192794
  41.9823885  25.2812958  17.9148293  40.7949638  25.0420594  17.0072079
  10.0182021  31.7029095  62.0761871   9.6204746  32.5420547  62.3083067
   9.5368284  31.4162254  61.3000917  74.4580412  40.0883722  27.2916269
  73.7443399  39.4505286  27.2874069  74.2742205  40.6484985  28.0457497
   2.0835808  14.9130499  43.2548857   1.6835004  15.7772720  43.3512592
   1.3789985  14.2986536  43.4605837  26.8192196  58.4675407  24.3053651
  25.9773469  58.0701780  24.5280480  26.5988493  59.1660166  23.6890864
  73.7758875  57.7911568  32.8525305  74.1453505  58.2337713  32.0884514
  73.7372875  56.8687820  32.5996017  80.8797455  36.3430882  11.3046062
  81.4734364  35.8064914  11.8297935  80.0169468  36.1944652  11.6915607
  76.5640497   5.3528136  41.5391445  77.4567366   5.1521611  41.2579203
  76.6717958   5.7932174  42.3821545  83.2415199   9.3739963  54.8941517
  84.0915680   9.3823981  55.3341246  83.4286022   9.0368575  54.0180445
  18.2488632  25.1764894  61.6385269  18.5958004  25.9369683  62.1049356
  19.0052795  24.6017075  61.5215063  53.5394621  33.5037327  18.0910575
  54.3678617  33.0993414  18.3488309  52.9077721  32.7846766  18.1036723
  45.0067139  53.7896538   9.9555326  44.5674801  54.2374277  10.6785822
  45.1164675  52.8896713  10.2624810  43.2301283  61.2154007   5.8455753
  43.8714170  61.6711187   5.3003174  43.7158871  60.9714556   6.6334587
  37.9130745  17.3519385  27.1391535  38.0585980  16.8155122  27.9184484
  38.3859944  18.1650639  27.3163652  21.1246037  38.1828189  38.4464216
  22.0276284  37.8812504  38.5455775  21.2059999  39.0887475  38.1482625
   5.5649281  14.7244871  64.1505241   5.4842627  15.1697862  63.3070564
   5.8580554  15.4067731  64.7545052  36.6093659  47.7815151   0.3864169
  36.2349439  47.8525400   1.2644804  37.4742055  48.1848145   0.4614788
  60.5567789  65.2677488  45.5369854  60.3088236  64.3464947  45.4592896
  60.2633524  65.5217886  46.4119673  58.8364029  41.8323183  10.3905284
  59.6170712  41.2786722  10.4067004  59.0741491  42.5969696  10.9149539
  26.2431812  52.6288462   0.1795512  25.8393192  52.2604895   0.9653254
  26.8762541  53.2654047   0.5115740  60.5204821  77.9327631  30.5761504
  60.9875393  77.4746418  29.8774266  61.2011862  78.1623650  31.2087321
  14.4733930   1.7632186  64.0070057  14.7605586   2.4396724  64.6203375
  15.1440871   1.0831270  64.0692711  32.4066710  18.4027934  58.6794662
  31.4988565  18.1315255  58.5433817  32.6182580  18.0973244  59.5615959
  22.0690632  73.0657148   8.0504167  21.6367459  73.7950563   7.6061291
  21.8166447  72.2934580   7.5443172  48.2362270  46.2752104  11.3106000
  48.6116409  45.8776379  12.0962417  47.3155785  46.0137033  11.3263750
  25.5431581  38.1239939   3.2310760  25.3344440  38.6272264   2.4440387
  26.4967847  38.1706333   3.2992983   6.6080362  55.3138113  27.9250097
   6.7921197  56.1850977  28.2760215   6.4696622  54.7680569  28.6991143
  53.5827971  51.6139364  48.5745382  54.3392324  52.1315193  48.8504887
  53.3873940  51.0554266  49.3269444  50.1495552  58.7814474   6.9251275
  50.9982586  59.1012287   6.6190588  50.2471685  57.8295708   6.9503289
  10.6979144  35.7129598  28.6922503  10.5075920  35.0065374  29.3094826
  10.8912814  36.4693260  29.2461014  77.3813915  14.9085069  61.7558098
  77.4749660  14.4067717  60.9460354  78.2018375  15.3956497  61.8319035
  28.5432839  10.9335256  10.4976809  28.9271402  11.6503763   9.9926949
  27.6063061  10.9818292  10.3080201  61.9460917   8.3644611  59.3563938
  62.6371956   8.0150843  58.7937737  62.0467281   9.3145341  59.2975235
  28.6285853  45.8273172  17.0054424  27.8057551  46.3155270  16.9765759
  28.4555197  45.1014853  17.6049864  80.8829784   0.9616168  64.3596745
  80.5005074   0.1389482  64.6649027  81.3237381   1.3210379  65.1295900
  45.4548740  44.5660353  17.3411441  45.9958029  45.1587343  17.8630018
  45.7421255  43.6900997  17.5989234  34.2430115  44.9870014   1.5056121
  35.1881886  44.8357630   1.5071337  33.8621020  44.1209126   1.3606092
  30.3861451  35.6749868   5.6203073  30.8425355  34.8339200   5.6437021
  30.5526757  36.0134649   4.7405732  42.9913044  43.0231047  19.4622922
  43.2539988  43.4754848  20.2638984  43.7498188  43.1011438  18.8836765
  52.1025896  19.1058671   9.6628851  52.9858637  19.3844545   9.4211173
  51.5245724  19.6654797   9.1442698  72.4021053  76.8437052  38.0375338
  71.6859007  76.2100840  37.9949999  72.4192762  77.2444582  37.1684361
  70.2869272  50.3405285   7.4492103  70.4272556  49.3971014   7.5297296
  69.5713902  50.5289316   8.0564511  52.2836637  68.3580112  64.4740009
  52.2838020  68.6195898  63.5532331  51.8562126  69.0835810  64.9290466
   2.6407611  48.2851219  62.4588919   3.5683256  48.3159971  62.2245789
   2.4154006  47.3555326  62.4227190  30.2364397  60.8023262  27.1127510
  30.7255840  61.6223669  27.1798825  30.5601430  60.2701712  27.8395629
  54.1652107  62.4529982  16.9662774  55.0844765  62.4737072  17.2322738
  54.0421391  61.5781641  16.5978253  44.3988371  50.7014894   0.6144680
  44.5181894  49.9842358  -0.0080580  43.4958982  50.9887171   0.4786967
   7.8323478  70.6205177  24.5912170   6.9352019  70.2938128  24.6592188
   8.3730143  69.9089289  24.9340749  48.7459183  75.6171083  11.0219967
  49.5435143  75.6767988  10.4961586  48.5092783  74.6900511  10.9938157
  37.2560978  71.6450500  20.4893279  37.9763842  71.0204172  20.4041481
  36.5515351  71.2718582  19.9596572  71.1407518   2.8508443  42.8868246
  71.4419985   2.2019081  42.2509289  71.7301130   3.5954574  42.7666759
  30.3597283  52.8544712  36.1613798  29.9056578  53.3637571  35.4900551
  29.8234868  52.9617548  36.9469786  71.0471678  72.1774530   0.0817733
  71.3431740  73.0398893   0.3729984  70.0954914  72.2048378   0.1807541
   2.2626601   5.5750549  59.3429422   2.0376824   6.4964843  59.4717264
   3.2008708   5.5295771  59.5271301  48.3294344  49.3239546   6.5348756
  48.0528593  48.9750814   7.3822391  49.1600037  49.7637415   6.7164779
   9.7898811  77.3815775  46.7121458   9.3267733  76.6838646  47.1757746
  10.6283355  76.9904947  46.4666224  17.6698017  36.9919538  65.0211477
  18.2132971  36.3170338  65.4277563  18.2966650  37.6085925  64.6429539
  12.9087567   8.5164577  58.4565067  13.4798765   8.1083947  59.1073036
  13.2963824   9.3783563  58.3044910  33.2702279  77.0159340  16.0421062
  33.9839315  77.6478815  15.9554732  33.2198358  76.5925741  15.1850998
  38.2781649  32.1366191  26.1780548  37.6431632  31.8373823  26.8287945
  38.5939646  32.9735327  26.5187573  61.8973494  66.7183018  60.4303408
  62.4978876  66.0805798  60.0444698  61.5682507  67.2194052  59.6841383
  59.0832376  77.1745539  66.9304895  60.0089693  77.4072599  67.0018673
  58.9320946  76.5682220  67.6555777  44.3215513  51.2210035  32.8079724
  43.9632654  51.2468195  31.9207311  43.7267160  50.6463814  33.2898569
  33.0127263   6.9427884   4.2203450  33.7937689   6.7812121   4.7495869
  32.4188042   7.4114400   4.8067346  27.5064874  66.8776417  55.9449625
  28.1932878  66.8640089  56.6115570  27.9801607  66.8980122  55.1134253
  33.2299542  73.4417915  16.8589532  32.5864482  72.7772665  16.6129065
  33.1890368  74.0875769  16.1536050   7.1733230  37.2210002  49.5186710
   7.8814197  36.5797448  49.5788574   6.6320723  36.9126368  48.7919044
  80.6335735  67.3872709  58.0219078  81.0237026  66.9450092  57.2679567
  79.7152424  67.5076151  57.7802086  16.9965184  26.2138104  64.6454144
  17.2576797  26.2377310  63.7248421  17.0810521  25.2934670  64.8945236
  14.5789552  38.4049439  45.1085663  13.8643146  38.8594532  44.6625376
  15.0520706  37.9565525  44.4076061  74.4948816  66.5449667  55.1276827
  73.7415600  66.1820078  54.6618509  74.6858501  65.9028196  55.8113527
  51.4818907  75.4350090  58.6326551  51.8719053  76.3073349  58.6889601
  51.3570881  75.2885151  57.6949978  17.5771415  30.6335449  57.4461842
  18.0161488  29.8666382  57.0782709  17.8124404  31.3499999  56.8566418
  15.0533950  12.6058578   3.4225541  14.6469378  12.1606922   4.1660947
  15.0733280  13.5282969   3.6773878  20.9494424  22.1080732   8.2917869
  21.1273408  22.2504187   9.2214763  20.3756857  22.8330708   8.0439723
  42.2764254  52.8512859   3.8488200  42.4173880  53.4294367   3.0990845
  42.2131252  53.4427118   4.5987797   2.6458868   0.9331319  68.1343412
   3.5525587   0.8428823  67.8410292   2.6520526   1.7076951  68.6966991
  24.8117971  66.8081474  20.6181455  25.6293488  66.3313198  20.7612300
  24.9246573  67.6271963  21.1004925  79.2783546  64.7838163  48.6807346
  79.7738504  63.9960480  48.4568357  78.3933973  64.6092606  48.3603954
  61.4105606  62.4420977  28.5402155  61.5484476  63.2958269  28.9505386
  62.2024345  61.9459724  28.7476373  45.7368994  64.8090839  14.5837224
  45.1249933  65.0338840  13.8828182  46.4890051  65.3830290  14.4382906
  26.1843681   0.2737878  41.7847586  25.9532475   1.1749727  41.5596342
  25.5667567   0.0335407  42.4754620  34.9934912   5.9083700  52.5619268
  35.5900216   5.6012040  51.8792629  35.4805160   6.5979522  53.0130529
  27.5952053  49.8839045  57.9614115  27.2629189  48.9872503  57.9185867
  28.5472345  49.7880268  57.9353809  73.1640959   6.6167265  16.5795672
  72.5445938   6.6933757  17.3052216  72.7252054   7.0437139  15.8438432
  56.9979906  53.4409237  22.4114442  56.8747663  53.4685326  21.4626122
  56.4268064  52.7318001  22.7066159  28.4568286  44.5317316  14.6492887
  28.8916135  44.3987179  15.4916084  28.9468288  45.2428770  14.2364860
  14.2116964  40.3172445   6.8130833  14.3849421  39.4577289   7.1970737
  14.6052897  40.2739859   5.9416217  49.3405008  77.3477125  20.7814312
  50.1662636  77.8309107  20.7518506  48.7600470  77.8291321  20.1919079
  16.7030621  22.4076343  43.7037611  17.4414217  22.9302764  44.0166521
  16.7773676  21.5797853  44.1785002   4.6760541  13.3198178  54.1533327
   5.1660025  12.8560734  54.8323917   3.8546306  13.5676920  54.5776606
  75.6156874  17.5132227  55.4096556  75.0808668  18.2998824  55.5162668
  75.0238609  16.8729627  55.0146294  46.8551540  35.9517264  14.6757913
  46.2508917  35.8508420  13.9403188  47.3816252  35.1523924  14.6646094
  24.0608001  14.8594344  11.4505672  23.5910583  14.0900099  11.7723763
  24.1101527  15.4437077  12.2071528  34.5131636  57.9110956  19.4969213
  33.9482427  58.5629225  19.9119091  34.0206671  57.0927048  19.5595038
  59.6834421  70.5051947  57.2759867  59.2630053  70.4617882  58.1348133
  60.5962086  70.7212400  57.4668026  51.0894585  24.2236400  58.7383842
  51.3443899  23.4684157  58.2083988  51.5846968  24.1238356  59.5514059
   4.8268738  55.0715256   9.0738434   5.2619517  55.5280161   9.7939533
   5.5003381  54.9933338   8.3981484  65.0514746  13.7699652  38.6830592
  65.9086704  13.3549142  38.5872507  64.6587563  13.7123239  37.8120351
  49.2493010  78.1455660   0.5657443  49.5191622  79.0166473   0.8566484
  48.3468866  78.2612896   0.2682720  23.2519722  15.0100696  66.4163494
  23.5463357  14.6342838  65.5866718  24.0450811  15.0642526  66.9495249
  12.2356820  51.7638636  61.0937309  12.2293532  52.3372221  60.3272820
  12.6043713  50.9404707  60.7738495  79.9351168  78.0934048  59.6989965
  79.9724627  77.1816349  59.9879837  79.5089293  78.5560703  60.4204798
  27.2185159  46.4742947   7.2647160  27.7858877  47.1054125   6.8219823
  26.5862465  47.0130777   7.7403075  69.5337772  60.9441757  11.1961687
  69.4484425  61.8547773  11.4785731  69.5382214  60.4404116  12.0100689
  62.4802065  70.4142332  37.7788544  63.3015156  70.7224989  38.1618118
  62.5620794  70.6115294  36.8457937  33.1992626  56.5318394  40.7644796
  32.8084636  57.1697950  40.1673841  34.1409636  56.6921282  40.7033587
  28.3903742  77.8453922  53.1671762  28.9484382  77.0795584  53.0319166
  27.7327681  77.7879763  52.4740028  41.7802715  39.3524075   8.1047696
  41.6836882  39.5822906   9.0289217  40.9787226  39.6748376   7.6927173
  61.4870787  36.9089532   8.3417135  60.8594227  36.9804239   7.6225644
  62.1968603  37.5040102   8.1001639  21.0081410   9.8770726  45.7743216
  21.6393423   9.5422417  45.1373672  20.1535106   9.6716124  45.3953457
  70.3837967   5.9831631  34.9487185  71.3156557   6.1791563  34.8514652
  70.2834034   5.7485282  35.8712697  47.4862146   4.9876258  18.1457949
  47.2427940   4.2464694  17.5911176  46.6563988   5.2988344  18.5074437
  60.1571751  60.2622080  51.5757895  59.3482208  60.6682062  51.8872213
  60.4688549  60.8478451  50.8857775  54.8514271  64.9718809  23.5380006
  55.2337551  65.8488989  23.5679388  55.5700302  64.4068956  23.2540321
  10.9231472  77.3979092  61.2610674  11.4465594  76.6178513  61.0772753
  11.3230693  78.0855846  60.7287121  36.3765812  43.0337381   1.8638510
  36.5739059  43.4964514   2.6782146  36.4838219  42.1079969   2.0823428
  65.2843428  20.9675169  24.2865491  65.1409435  20.7367110  23.3687282
  66.1446905  20.6026363  24.4936728  59.3165493  31.3567162   7.7097970
  59.1142082  32.2216797   8.0663413  60.2442503  31.4039135   7.4787652
   8.8826692  38.2411504  57.6374960   9.3369490  37.8548336  58.3862448
   8.4071976  38.9865184  58.0043554  32.6914215  64.9259806  22.1659589
  32.2761512  65.1606894  22.9958344  32.9828000  64.0228176  22.2909451
  34.4847059  22.3294616  55.1544333  34.4059134  21.7085075  54.4302511
  34.8554087  23.1167173  54.7556400  47.3208421  -0.1398174   0.3162319
  46.5550655   0.3231748   0.6560213  47.4537319   0.2264603  -0.5580729
  42.5784445  77.0436144  21.0791922  43.3503675  76.5330982  20.8347678
  42.8511143  77.5335455  21.8549848  43.0283928  31.3947058  58.4470177
  42.4962425  31.1264753  57.6979494  42.5585461  32.1407413  58.8197184
  26.0633421  75.6278276  61.6715288  25.9134340  76.4574957  61.2183094
  25.5832720  75.7146358  62.4950790  48.4326649  44.4466400  39.8401141
  48.4765816  45.3798580  39.6317697  49.2613745  44.2605162  40.2815151
  38.1045198  41.2569475  25.5533028  37.4219155  41.9067860  25.3859806
  38.5481787  41.1534262  24.7114706  59.0858650   4.5332608  62.0024872
  59.5772934   5.2362418  61.5775776  58.9331961   4.8516285  62.8921890
  48.2614231  50.9767962  21.7896080  49.0956354  50.5997944  22.0692420
  48.0171013  51.5707445  22.4993682  16.2857616   4.5249820  55.9293032
  17.0720863   5.0196850  55.6986618  16.6173708   3.7037978  56.2925148
  64.4754553  74.0201139  12.6294100  64.9474955  74.8290443  12.4318266
  64.8832703  73.6947441  13.4319389  22.3151326  17.6601076  50.8818054
  22.0578837  16.8645060  51.3477135  23.1111503  17.4147296  50.4102373
  70.7837915  58.1600523  60.3362274  70.7808781  58.8477993  59.6704769
  71.6929722  57.8625011  60.3692341  50.6875038   7.8945971  67.4481297
  51.5435076   7.7141511  67.8366184  50.7546759   8.7940949  67.1277809
  67.7140951  19.3368602  17.4427819  67.8321362  19.2569208  16.4962578
  66.8096638  19.6323633  17.5472474  16.0048854  15.2555144   2.3734617
  15.3764248  15.6804919   2.9571256  15.5020785  14.5643497   1.9425207
  44.8845434  59.2003822  24.3888187  45.3092051  59.7721434  25.0283360
  44.4060802  59.7977543  23.8139677  30.0903416  49.1645622  18.7342608
  29.5702481  49.0914631  19.5345056  30.6892061  49.8918724  18.9034212
  26.1295557   5.6051987  20.6069112  25.9485221   6.5407157  20.6978321
  25.4479623   5.1778305  21.1255813  33.9790392  37.4104357  60.5617428
  34.1100192  38.1966257  60.0316620  33.2967591  36.9219637  60.1011753
  28.4892750   2.3465611  68.2536030  28.5489869   3.2907426  68.3991623
  28.8504934   2.2160718  67.3768330  62.0000839   4.2425105  39.0627980
  61.1572218   3.7938401  38.9956689  62.2354317   4.4467866  38.1577492
  75.5829811   6.0783821   1.0663086  75.5228329   5.4130328   0.3807985
  75.6663418   5.5786699   1.8784478  47.9536295  17.2773802   1.5509677
  48.6706829  17.8843701   1.3675965  47.7020359  17.4697721   2.4542502
  40.5481291  30.7872653  66.5457487  40.5975342  30.4004192  67.4199009
  40.1810932  30.0938702  65.9973717  41.6940212  58.8232327   0.5979792
  42.0502710  58.6360264  -0.2705092  41.5677786  57.9618406   0.9958465
  63.9472103  69.8033571  27.7771640  64.1947556  70.0513077  26.8863916
  64.7746325  69.7794724  28.2578278   4.5090911  60.7675171  21.6855311
   4.6904132  60.3131914  22.5082946   4.1657650  60.0868511  21.1066890
  56.3064289  67.0093536  26.4607906  56.5491009  67.3495483  25.5996227
  55.6555080  67.6298428  26.7887020   8.6873472   9.4871980  53.0852795
   8.3681643  10.2272809  53.6016417   9.3672514   9.0906155  53.6299658
  25.9183955  24.8565555  61.3892412  25.8594441  25.4749537  62.1174812
  26.0060453  25.4089522  60.6124449  13.1533134  32.5352740  36.7900276
  12.8932893  32.9375339  35.9612894  13.2817101  33.2740498  37.3849726
  32.2944450  25.9796166  17.5088906  32.6330686  26.2013769  18.3762944
  31.4175415  26.3628602  17.4889350  21.6345739  50.7058525  27.1706676
  22.4080682  50.3115749  27.5737643  21.0229373  49.9774551  27.0631146
  50.1458406  73.6068249  19.9524546  49.9348354  72.7925920  19.4955790
  51.0993481  73.5946560  20.0355673  16.7731249  15.6505227  49.8188305
  16.7012072  16.6000855  49.7219324  16.7391908  15.5029619  50.7639790
   2.5311080  74.0185308  12.2923315   2.4240379  74.8464251  11.8239713
   1.6571675  73.6280727  12.2914231  63.0421734  48.5225344  13.4205163
  63.7608719  49.1219997  13.2196498  62.2517443  49.0099859  13.1884754
  26.2254930  12.5081921  56.1680460  26.0362339  11.7097080  56.6608286
  25.3672600  12.8248155  55.8862400  65.5253410  69.6010685  32.3463511
  65.9957600  70.4241371  32.2140718  64.6949244  69.7231913  31.8862081
  58.2919598   6.1485708  18.8696873  58.0556488   5.2625459  18.5951900
  57.5074196   6.4815933  19.3053687  57.4710321  55.9567213  24.3723083
  56.6702127  56.1991596  23.9073992  57.4808311  54.9998426  24.3495774
   9.6176130   4.8381341  64.4705677   8.9572406   4.2879865  64.0492868
   9.8141617   4.3892723  65.2928352  13.6185253  77.6505136  20.2992511
  13.6219537  78.5600996  20.5973649  13.9051330  77.1475410  21.0615540
  52.9960251  67.8319502  23.9373946  53.3747959  68.3652163  24.6362448
  52.0713711  67.7518988  24.1715813  80.6934357  17.2571623   9.6282488
  81.0555267  16.9990313  10.4758883  80.5019283  18.1901395   9.7237033
  32.0029759  38.6402702  11.3701200  32.0588207  37.7960706  11.8178260
  32.6117396  39.2047739  11.8465388  29.4717455  21.5540218  57.2469568
  29.6912050  22.4282479  57.5691319  30.2711129  21.2493777  56.8174982
  67.5465107  40.5391169  42.8298378  67.3449230  41.4746284  42.8096342
  67.8263092  40.3737879  43.7301731   1.0241345  48.3946419  11.4880073
   1.4969659  48.3959675  10.6557453   1.6810068  48.6465883  12.1370637
  63.1360435  66.0006762  45.0168753  62.2849321  65.6694412  45.3034544
  63.7729597  65.4463768  45.4677916  37.3588586  78.8064861   8.7457156
  36.9709611  78.8100719   7.8706425  36.6340399  79.0291500   9.3299145
  79.8512173   2.5731015  25.2932835  80.4772854   1.8952003  25.0388718
  78.9935780   2.1792474  25.1333833  75.7599735   0.6783464  34.5040202
  75.8921957   1.3385674  35.1843572  76.1205769   1.0756892  33.7113595
  77.4167109  76.0822439  68.2447386  78.2590961  75.7861710  67.8998375
  77.3338985  75.6379986  69.0885496  29.5940185  13.1720233   9.3732429
  30.5058217  13.3098805   9.6298450  29.5464826  13.4969592   8.4741384
  44.2992163  76.6782188   0.6648397  43.8888216  75.9786701   1.1732075
  45.2148008  76.4107418   0.5849255  74.5588732  78.7158871  54.6044159
  74.7766685  78.8562012  55.5258846  75.0455284  77.9285526  54.3604803
  34.4946408   3.7808290  46.1819553  35.2152467   3.3203766  45.7519054
  34.8517871   4.0460831  47.0294952  53.1330347  52.9037094   0.1720328
  53.3178425  52.2933674   0.8858653  52.7975988  53.6872578   0.6076585
  10.5711031  55.1355410  60.0852013  11.4057171  55.4104424  60.4647779
  10.1537538  55.9511948  59.8081493  29.9289203  43.5840368  19.3040085
  29.1678309  43.6924934  18.7337351  30.6448054  44.0087223  18.8313735
  55.0027752   5.5047768   1.1210082  54.1766310   5.1971543   0.7480589
  54.7815466   5.7574600   2.0173576  52.1317482   3.6512873  50.1377153
  51.6212273   3.6913013  50.9464169  52.7104092   2.8981560  50.2567863
  58.7915468  59.3656301   6.2701404  57.9739714  59.7719049   5.9824806
  59.3170071  59.2945004   5.4732305  54.0551996  59.6916008  63.3195543
  54.1499281  60.1007557  64.1797018  53.4524918  58.9625788  63.4661722
  12.7043653   3.3826727  57.0987082  13.4730816   3.7549561  57.5308084
  12.2788036   4.1311020  56.6803980  49.0556622  64.6908331   1.5847738
  49.5805597  65.4737568   1.7513503  48.6209869  64.5120144   2.4186282
  69.3131447  14.5594680  32.1137381  69.1384602  15.4969001  32.1970272
  68.6760759  14.2535496  31.4681482  55.8376360  19.1350961  15.7555687
  54.9731350  18.7245154  15.7384014  56.4001369  18.4911156  16.1858201
  57.4737787  68.9693928  55.9222364  58.2286978  69.4528246  56.2578249
  57.1213388  68.5145235  56.6871643  56.6260719  31.4435244   1.0332686
  56.2933874  32.0307183   0.3544772  57.1985960  30.8360171   0.5648876
  14.8573518  18.5863245  61.5774155  14.0015697  18.6733603  61.9972849
  15.3522742  19.3467176  61.8825150  30.7529497  55.4609203  60.4144764
  31.5570402  55.8124447  60.7967043  30.8720803  55.5629587  59.4702148
  81.8174267  67.2899532  40.4065084  81.8795300  67.7814341  39.5874691
  81.9039440  67.9533672  41.0910749  24.3050528  29.0124655  61.1281776
  25.1047397  29.0420699  61.6533947  24.6129799  29.0274119  60.2219820
  61.0283995  17.9573357  58.5821724  61.4571762  18.5121930  59.2337227
  60.0955582  18.0265307  58.7852669  41.4705849  33.4210396   8.1569034
  42.1600914  33.3651471   7.4953222  41.1627245  34.3259573   8.1061333
  60.5964851  28.9919043  12.7767372  59.7283792  29.3792963  12.8887546
  60.5051661  28.4146619  12.0186579  13.3898735  12.8103042  42.1871805
  12.6739252  12.9903138  41.5778780  12.9539037  12.5645089  43.0031109
  43.4045649   6.2093949  43.0620337  43.7768316   5.5486155  43.6460018
  42.9631329   6.8248880  43.6472988  32.0668840   5.8024287  23.6055255
  31.6409492   5.7279897  22.7515531  31.3754201   6.1089969  24.1921473
  57.1744347  47.9136419  12.2988153  57.1203279  48.7159061  12.8181195
  56.5813160  47.3038244  12.7376378  39.3679094  14.9796081  32.4562383
  38.8952184  15.5693698  31.8688941  39.2399311  15.3556275  33.3271360
  42.7498293  11.0971844   2.1141751  42.4487686  11.6626108   2.8254339
  42.6563358  11.6328597   1.3264289  56.0823345  57.2992468  58.5948133
  55.4476547  57.6329613  59.2288876  56.7912960  56.9431114  59.1303253
  51.9222927  23.4456086  63.5976362  51.7338753  24.2593575  64.0651226
  51.0987806  22.9583716  63.6234474  67.7678108  51.8639946  54.5839977
  68.5614586  51.9503021  54.0558815  67.1339560  52.4426079  54.1601229
  31.7960072  19.7828102  56.1062765  32.6506686  19.3549597  56.0540056
  31.2910247  19.2363524  56.7084455  58.1393337  40.7766438  66.4853907
  57.5822544  40.0141573  66.3288403  58.9879704  40.4071951  66.7294312
  12.5287569  71.7529345  57.4665117  12.6734495  70.8684158  57.1304655
  13.0996001  71.8145323  58.2323933  71.2044907  12.4295247  59.4847775
  71.1001348  12.0038927  60.3357649  70.4448843  12.1418631  58.9783430
  51.6870689  25.0783324   1.9466710  52.4294424  25.1556492   1.3473895
  52.0304537  24.5837617   2.6907942  28.0193377  22.1310806  47.5929451
  27.1229744  22.0343494  47.2713757  27.9201436  22.3150063  48.5270548
  43.3461809  38.8516283   3.5990044  43.1064701  38.6967945   2.6853320
  44.0676641  39.4790792   3.5543084  51.9079781  11.4728212  63.7802887
  52.5192404  12.1835017  63.5865879  52.4181604  10.8537447  64.3024874
  51.2443733  44.0841770  13.3334768  50.5878830  44.3927765  13.9579892
  50.8201027  43.3554745  12.8804648  14.9923086  48.2057571  66.3097858
  14.1027367  48.4408998  66.5736055  15.5570459  48.7141132  66.8919182
  28.3243179  70.1578665   0.3107803  29.2620897  70.3376961   0.3776716
  27.9769707  70.8859634  -0.2044429   7.5661707  11.8997788  17.6658607
   7.1185070  12.6997125  17.9414260   7.0979112  11.1962807  18.1153667
  77.7307415   5.4176116  66.6090918  77.3964357   5.0559360  65.7883215
  78.5277843   4.9173349  66.7842197  74.8640108  48.0756235  64.5115900
  75.3176785  47.3245668  64.8941231  74.9096155  48.7524033  65.1869583
  47.1744108  56.2843227  16.1489177  47.1388674  56.5496540  15.2299142
  46.2574434  56.1877012  16.4059508  65.6135273  69.7693110  64.9559450
  65.5224037  69.2888308  65.7787848  64.8119688  69.5700312  64.4721889
  68.8859463  60.4438972  41.8097353  69.4894934  59.7615767  41.5157938
  68.5373306  60.8197641  41.0013866  54.2222929   1.7292300   9.5833766
  53.6474800   2.4945810   9.5912802  54.2347670   1.4484961   8.6683547
  81.8149185  76.0574961  64.8323822  81.8965912  75.6209803  63.9844322
  81.1134624  76.6964674  64.7062540   7.8187692  67.5298023  42.5125170
   8.1876528  66.7491722  42.9257584   7.4991471  68.0592155  43.2431316
  55.3942490  56.2342310  22.2143245  56.0500288  56.1994123  21.5179276
  54.8352528  56.9751024  21.9800973  13.5878754  40.9330082   9.7115803
  14.1049230  41.0924149   8.9219713  14.2350197  40.7098436  10.3806341
  29.9919534  61.5983200  15.3901958  30.6004024  60.9750271  14.9933016
  30.0301433  62.3663664  14.8202145  82.2845078  76.9513035  48.1562901
  82.5392437  76.4095736  47.4093866  81.4161015  77.2822762  47.9270077
  26.9448471  70.6507206  37.8942060  26.3767481  71.3738155  38.1599665
  27.5482512  71.0402822  37.2614551  60.3578520  71.6944122  31.3462853
  60.5977392  70.8796501  31.7877007  60.3292131  72.3466206  32.0463133
  13.0169642  40.5760098  13.4696019  12.8515160  41.0964632  14.2557240
  12.4882197  40.9940147  12.7899456   5.3412086  61.0249186  27.4996328
   5.0070101  61.8705273  27.7987719   5.5527455  60.5525541  28.3048391
   0.5506291  52.1278191  43.8138294   1.2730181  51.7609358  44.3235159
   0.0878151  51.3637495  43.4699821  31.4683318  57.7236223  26.5790796
  31.7385030  58.5588837  26.1975288  30.6594062  57.5004387  26.1185837
  11.7674553  61.9931602  26.6796994  12.3770988  61.5147543  26.1178303
  10.9256780  61.5578365  26.5450382  58.1133842  26.0167551  64.0357780
  57.9871750  25.0696516  64.0931845  58.2961035  26.2889814  64.9350786
  73.1579733  34.2852783  15.3770566  73.9746332  34.7154164  15.1235306
  73.4187603  33.6504030  16.0442567  21.8067765   6.6738760  37.2117257
  21.2748742   6.7777085  36.4227200  21.6896248   7.4950874  37.6893425
  46.7995024   6.6654640  14.8884952  47.0742750   7.2310603  15.6101823
  46.5289021   5.8509272  15.3122139  41.7172480   5.0659186  12.3083019
  41.8496323   4.2867702  11.7682695  42.4774027   5.6174749  12.1234012
  27.8637362  28.9088535  52.7438736  26.9873190  29.2777991  52.6343298
  27.9704285  28.8221574  53.6911488  78.4600687  39.1051459  32.1578407
  79.1388750  38.4310031  32.1264601  78.3684635  39.3096662  33.0884385
  36.4718151  60.9288311  36.2429047  36.8198991  60.7310772  35.3734422
  37.2440434  61.1393499  36.7678595  19.8081017   7.3867303  49.2729759
  20.4639602   7.4572110  49.9666023  20.3184986   7.3407960  48.4645128
  45.5577850  10.5095887   2.5115910  44.6183395  10.5723691   2.3391594
  45.8229399  11.4048266   2.7224812  30.8241224  65.6728840  24.3941617
  31.3110471  64.9753428  24.8329902  31.2805080  66.4766550  24.6429563
  13.4916782  58.8001347  27.7152443  13.2498860  59.4408989  27.0465207
  12.6720607  58.6089039  28.1711936  71.3601875  65.5685139  45.2098179
  71.9901085  66.1523724  44.7872782  71.7445278  65.3809214  46.0661602
  36.0171914  17.8895438  36.1859107  35.8297777  18.1148410  37.0971441
  35.7335544  18.6553800  35.6866336  34.9700189  21.1918330  50.4290915
  35.6320381  21.8005037  50.1012468  34.1439581  21.6679072  50.3441858
  80.8691978  68.3367777  10.9724641  80.7377720  68.7175512  11.8407810
  81.8192673  68.3278322  10.8561528  10.6469476  59.5885181  43.8508034
  11.1485803  58.7733126  43.8445234   9.9773651  59.4629002  43.1784105
  82.2997570  44.3524790  38.3308649  82.5977135  44.8738956  39.0762377
  82.6267338  43.4707499  38.5093856  33.8123488  24.9574876  60.4032850
  33.8941312  25.5946493  59.6936607  32.9744363  24.5242190  60.2407694
  36.7138672   3.1902114  44.3029594  36.8815970   2.2613797  44.4622421
  36.1928177   3.2052764  43.5001469  17.5053740  71.2860584  48.9005899
  17.5872850  72.2389460  48.8614893  18.3649707  70.9835911  49.1935730
  25.2800369  31.5224314  30.7795930  25.9641552  32.1870971  30.6993818
  24.6756935  31.7129564  30.0621653   7.6808649   2.6453388  34.2901111
   8.2523245   2.7103797  35.0552487   7.3162371   1.7616013  34.3379307
   3.4569553  48.8988256  37.0822525   3.2825214  49.4546986  37.8417301
   3.7714091  49.5034313  36.4100885  43.2293987  20.0771737  26.3394284
  43.4432316  19.1737366  26.5724683  42.8383350  20.4430270  27.1328068
  68.5086775  65.0104189  23.9735222  68.9489460  65.5759668  24.6079946
  69.2207193  64.5570421  23.5222173  41.6912317  58.9142132   4.3404898
  41.3609695  59.6307993   3.7985799  42.1784592  59.3483829   5.0407302
  33.8004875  70.0532341  48.2084608  34.2899323  70.5803156  48.8400173
  34.4334555  69.8586941  47.5172710   6.8692631  69.1578674  44.5681715
   5.9230256  69.2872334  44.5038986   6.9732159  68.4755039  45.2313471
  70.3775740  14.7933221  60.8411884  71.1391592  14.4707978  61.3230562
  70.2088547  14.1204107  60.1816750  11.6405582  71.6374111  10.4096162
  12.2035217  71.0534143   9.9014342  11.7078567  71.3133144  11.3077605
  32.5283289  10.2371669  24.9923825  33.0613732  10.3215683  24.2018294
  32.8866720   9.4720638  25.4423165  42.4221849  26.1947060  65.4003048
  42.0395947  26.0173821  66.2596130  41.6737890  26.2115264  64.8037672
  40.7205820  22.2936487  28.0359888  41.5525723  22.0603490  28.4478092
  40.9369946  23.0232501  27.4554038   7.8972381  50.9476233  34.5709825
   7.8023541  51.5151978  33.8060713   7.6990044  50.0700665  34.2441320
  37.8889084  40.5396891  20.3256750  38.7000871  40.9532309  20.0303745
  37.3466110  41.2669945  20.6309080   4.3314213  29.7375488  48.6432457
   4.1722697  30.5367589  49.1454029   5.2799076  29.6148419  48.6825943
  48.1370068   7.9754627   2.5946474  48.8034248   8.5983008   2.8848007
  47.8866482   7.5048733   3.3896926  77.8838778  44.7176170  51.1739016
  78.1081772  44.6379757  52.1010351  78.7196875  44.8862553  50.7389069
  36.8101621  63.7170267  40.8368826  36.0513186  63.8712072  41.3995647
  37.4903083  64.2909002  41.1894464  79.4086266  54.6003485  33.2868218
  79.0755129  55.0961351  34.0347934  80.2314663  54.2224503  33.5972524
  36.6174722   6.4325547  19.8341048  35.6734204   6.3622826  19.9757349
  36.7741752   5.9518003  19.0213609  78.5764980  77.7818155  37.4358821
  79.4758129  77.4634552  37.3577213  78.2358932  77.3477602  38.2180667
  20.2656841   7.0988387  19.9267244  20.1602101   6.5844119  19.1264307
  19.5724130   7.7572805  19.8813200  79.1510153  14.0566802   5.6867856
  79.3290949  14.4400072   6.5456110  78.2305956  13.7969267   5.7266271
  19.8697913  51.4143562  20.2046204  18.9324224  51.2646961  20.3277993
  19.9197996  52.0338345  19.4766247  83.1394386  36.2365961  29.7386408
  82.4112320  36.0520434  30.3318405  82.7237988  36.3939214  28.8908672
  20.3522539   8.6502868  25.6650043  21.1999202   8.2164794  25.7624912
  20.0486231   8.7871403  26.5623951   7.6200110  33.8533950  26.0178471
   8.5273987  33.8525867  25.7130885   7.6745218  33.5786390  26.9331455
  71.2742186  41.1187077   8.8162488  71.4185905  40.3538799   9.3734133
  71.9046736  41.0179377   8.1030834  49.5425415   2.9750216  60.5548191
  50.1976681   3.2164553  59.9000263  49.3220425   3.7994555  60.9883165
  14.8282456  62.9177952  17.2171998  14.7464418  63.1837416  16.3013315
  13.9264750  62.8730154  17.5350618   7.8937157  40.8622837   0.1615745
   7.6286848  39.9451473   0.0919229   8.7621649  40.8308194   0.5628712
  58.6584711  22.0354795  32.2904372  58.2487583  22.4796438  33.0327892
  58.1300449  21.2478924  32.1611905  74.1438198  33.2722425   1.9559245
  74.6157217  32.7076054   2.5680751  74.8069096  33.5448909   1.3217264
   6.0276228  38.0494523  41.2248945   6.9147623  37.9245210  41.5619564
   5.4667628  37.9880238  41.9981337   7.2303939  14.1901660  49.0851212
   7.2407961  14.2854023  50.0375175   8.0334145  14.6211886  48.7925339
   9.7871345  29.3786860  28.5353827   9.0712929  29.6665359  29.1019034
   9.7486699  29.9684525  27.7824378  19.3796670  44.5282078  26.0522103
  18.5955584  44.0660667  25.7558441  19.5683992  44.1525936  26.9121671
  65.8604050  62.1052361  24.6349907  65.1282167  62.5557661  24.2140937
  66.0411453  62.6230192  25.4195070  81.5569782   6.9965434  63.2751513
  81.9081402   6.9644946  62.3852682  81.8787956   7.8252792  63.6299276
  31.7765069   1.3867846  11.9439745  31.2985992   2.0413202  11.4346409
  32.6911950   1.5051080  11.6878974  81.5627480  41.9319677  14.1888177
  81.2194157  42.7723265  14.4923878  82.5011730  42.0832539  14.0761483
  80.3580189  68.4404850  23.6057138  80.7364941  67.6591873  24.0089035
  79.4929647  68.1604815  23.3065271  11.6086054  55.6664324  57.3985672
  10.6692719  55.7057285  57.5784016  11.6834748  55.0850821  56.6418266
  54.9151278  22.8177691  10.1870298  54.6556234  22.9274392  11.1018312
  54.7704077  21.8889117  10.0067198  24.1386795  36.4070415  23.3113647
  24.5318842  36.1552000  22.4757838  24.5641017  37.2344065  23.5365677
  51.1562920   2.0350379  65.5008554  51.0989952   1.2426635  66.0347986
  50.7864857   2.7235317  66.0535336  81.1066437  46.1678553  11.8390930
  80.6345272  45.9129047  11.0464144  82.0138073  45.9136486  11.6697776
  78.3376265  63.6089611  32.1991134  78.3214617  63.8462257  31.2719250
  77.8981209  64.3360186  32.6400900   9.1529214  37.2342944   1.5304482
   8.8098961  37.5757647   2.3562588   8.6880636  37.7286196   0.8553334
  40.0841284  41.8196487  27.7941680  40.9003067  41.8006563  27.2944450
  39.3968534  41.7312908  27.1338010  76.7707825  76.0818434  42.9595232
  76.4664173  76.5558290  43.7334347  76.9763613  75.2042294  43.2816410
  66.8649244  60.4296541  49.6366310  66.5124226  61.2975454  49.4398022
  66.0957956  59.8608923  49.6709681  47.0322895  67.4754238  26.8773317
  46.1909580  67.6364803  26.4501858  47.1664715  66.5313625  26.7937970
  77.5414324  76.4960051   2.2906923  77.8773117  76.0500240   1.5131858
  77.0155907  75.8333111   2.7385259  77.3410416  68.4013510  19.6968353
  77.8991079  69.1077900  19.3716586  77.3763418  67.7336502  19.0118825
   9.0641069  54.8781872  14.7768295   9.5425266  55.7070684  14.7595537
   9.0682232  54.5802593  13.8671827  60.5140066   7.3393196  47.2328663
  60.4326439   8.1042725  46.6632557  60.7390213   6.6221851  46.6401434
  37.8404260  54.3981123  65.3587341  37.8480029  55.3103113  65.6486797
  38.7516403  54.1150331  65.4348040  78.1107235  59.7026110  13.8502240
  78.5736465  60.2891588  14.4484687  77.8733635  58.9485741  14.3899632
  65.0486708  44.7510529  35.2251101  65.0522375  44.6041107  36.1709571
  65.9739304  44.8211050  34.9901175   3.4449369  77.1456766  21.2236094
   2.5739837  76.7791080  21.3762498   3.8474423  76.5511608  20.5905461
  30.0102305  43.6629152  35.3043962  29.3090630  43.3590889  34.7279525
  30.7914782  43.6638594  34.7513294  32.6510215  66.9031811  32.7188468
  32.7742434  66.1292696  32.1691990  32.5593042  66.5549374  33.6057210
  82.3238373  52.7095318  54.1284990  82.1378517  53.2169294  54.9185562
  81.5795994  52.1132612  54.0460634  25.9362507  73.6671638  18.8066638
  26.5757012  73.1295252  18.3394611  25.0906181  73.4023476  18.4447157
  18.2287681  58.7456226  37.8552771  18.3330631  59.6545267  37.5737643
  17.7613986  58.3237123  37.1343136  37.1526933  34.5058823  13.4595120
  36.3066697  34.7464633  13.0818951  37.4904013  33.8257742  12.8767276
  83.3459822   1.0020906  13.7878013  83.6675362   0.6005524  12.9805827
  82.4295246   0.7310779  13.8415563   8.2077789  41.4619255  20.7760310
   7.7827960  40.8835983  20.1426578   7.4838251  41.8731260  21.2482953
  10.2458489  37.7032518  59.9219894   9.8570693  37.6994991  60.7966709
  11.0128868  38.2700682  60.0032473  39.8353148   0.2707321  59.6427631
  39.5906925   0.5341332  58.7556267  40.7277679   0.5989195  59.7525454
  41.7312336  28.5243511   2.9563540  42.1837234  27.9234147   2.3644397
  42.2753763  29.3118334   2.9601580   9.4565791  64.6736145  39.8270011
   8.5240424  64.8190165  39.6674204   9.8932576  65.3874159  39.3622088
  68.1953716  78.1314087  43.1102562  67.2964096  78.0955219  43.4370708
  68.6965179  78.5158825  43.8294697  20.2322984  71.0121918  49.1022968
  20.4252529  71.4352465  48.2656193  20.2521968  70.0753021  48.9071703
   5.3568864  24.4139266  29.7064185   6.1598253  23.8936019  29.6784258
   4.7025535  23.8246179  30.0816464  54.6249390  19.8198187   9.7044224
  54.5133829  19.7796369  10.6542504  55.5647564  19.6995687   9.5683432
  48.7694216  26.7332220  10.0955510  49.0986347  25.9228587   9.7067553
  49.4528532  26.9984937  10.7110083  13.3555639  60.7151604  33.6109066
  12.7131903  60.2024078  34.1014910  14.2017126  60.4395580  33.9634800
  22.9414177  53.5181713   3.8608125  22.2736835  52.8443336   3.9884862
  22.4715400  54.2473507   3.4561530  81.5620422  52.8984928   0.6249045
  81.8356895  52.6601219   1.5106413  80.7498932  53.3896208   0.7491510
   9.7066277  73.3676243  45.8602524   9.9715221  73.8178253  46.6623640
   8.7794602  73.1694508  45.9918547  21.2278295  36.4779949  45.5435944
  20.3164172  36.2146091  45.4163647  21.1905646  37.1473455  46.2268305
  82.4189281  67.7839136  37.6679349  81.5436077  67.6577902  37.3016930
  82.7204704  66.8999863  37.8776407  10.3922534  65.5822229  13.4925032
   9.6601248  66.1878586  13.6083722  11.0754538  65.9186220  14.0724206
  63.7912464  60.5668974   4.7311032  63.0443096  60.3940058   5.3041881
  63.8635397  59.7817326   4.1884068  49.8377466  39.3969727  12.1926284
  50.5054188  38.7134409  12.1358204  49.5452023  39.5216537  11.2897968
  69.4836140   7.7550387  56.9729090  68.8194466   7.6939893  57.6594830
  68.9854050   7.9138041  56.1711502  21.5734935  70.1169252  51.3326454
  21.2457156  69.3449879  51.7940664  20.8873153  70.3265572  50.6990480
  29.4547725  48.3769608   1.3001728  29.5800471  47.9750109   2.1598083
  30.3298473  48.3909893   0.9125128  13.1184053  45.3944921  59.1347456
  12.8102219  46.1607552  58.6509085  14.0544426  45.5507517  59.2598391
  17.7388942   5.0124639  58.3693695  17.6716828   5.5771321  57.5993967
  18.4192026   5.4191905  58.9060163  10.0144911  61.9152927  16.7057192
  10.2921867  62.4727535  17.4326015  10.7607532  61.3367271  16.5489316
  29.1899347  72.9211950  66.0300350  29.4509125  73.2655478  66.8841696
  28.7316251  72.1051455  66.2306499   7.2004122  77.3327780   5.8918458
   8.0198991  77.7662039   5.6534928   7.0859885  76.6542578   5.2264524
  48.3298159  14.6002638  54.3215704  48.7670994  15.4337585  54.4956350
  47.6507044  14.5411599  54.9935484  73.0065012  41.4287949  16.8344915
  73.4624529  41.1756325  17.6371419  72.8758621  40.6057978  16.3634920
  76.3534594  19.5576549  29.4897389  75.5310917  19.7900093  29.9209595
  76.1885881  19.7133160  28.5597825  76.8781757   7.5597841  51.4633846
  76.2055731   7.0765799  51.9433355  77.0845318   8.3060330  52.0262003
  64.7552967  25.4259372  16.5242743  65.5062628  24.9823737  16.1298990
  64.0001440  25.0991201  16.0352242  61.9939947   1.7991543  61.6425323
  61.7181349   1.2422734  60.9145117  61.2264490   2.3370750  61.8368149
  37.2234511  16.3554096  42.9701519  37.8615189  17.0180714  43.2346916
  37.2857928  15.6798458  43.6454010  47.9197598  33.7383914  16.6483998
  47.8974819  33.3537889  15.7721496  48.3412743  33.0724525  17.1916151
  35.4741530   0.2890459  17.4577379  36.0198389  -0.4876837  17.5808167
  35.7505391   0.8882538  18.1511295  36.8953347  59.1560411  10.0282943
  37.7529025  58.9421272   9.6608037  36.3265681  58.4419298   9.7405672
  72.2765970   9.1651016  63.8321114  73.0451488   8.6447871  63.5979557
  71.5348244   8.5810602  63.6743259  73.5154676  24.6751094  61.6397810
  73.7543631  23.9154172  62.1708441  73.6281633  24.3805599  60.7360268
  48.6173916  22.2851229   1.0056633  48.6506033  21.7087078   1.7691265
  49.0429449  21.7849731   0.3092510  47.3253870  65.4465961   5.3624940
  48.0719137  64.8516035   5.2923870  47.1964073  65.5591154   6.3042665
  14.2883444  46.3115501  50.9067678  13.8315833  47.0827770  50.5708933
  15.0282121  46.6669464  51.3992357  24.4603395   3.6123139   6.3222551
  23.7399244   3.2364500   5.8163273  25.2503848   3.3187288   5.8685309
  63.4926748  23.5600877  60.9912205  63.1597424  23.8223648  61.8494749
  62.9063702  22.8570700  60.7114935  82.9172039   1.2318999  62.3759508
  82.6407528   1.7629945  61.6291285  82.1339512   1.1595056  62.9213905
  40.2107239  23.1652164  66.4973497  39.2952919  23.3889294  66.6651869
  40.7104921  23.8058066  67.0034218  82.1352577  52.1238184   3.1152999
  81.9731808  51.6882467   3.9521053  82.8941822  51.6681433   2.7511281
  12.7387738  76.9601393   9.3261182  13.6920059  76.9141006   9.4000244
  12.5679994  77.8319693   8.9697808   7.9290724  60.1878881  28.0767107
   8.3626038  60.9183311  28.5179996   7.5550860  60.5743694  27.2848773
  28.3625960  70.3136396  13.2347882  28.0344772  69.7390604  12.5431025
  29.0687609  70.8089590  12.8197932  27.9869866  70.6827116  31.3988733
  27.4274564  71.2501955  31.9290829  28.0358171  71.1207438  30.5491829
   5.1626903  53.6482716   2.9432577   5.0500208  53.2007217   3.7818503
   5.4086053  54.5424986   3.1801504  81.0100937  21.5403175   0.6794924
  81.0485363  22.4822879   0.8451607  80.9302902  21.4674616  -0.2715884
  75.8319426  64.7999811  19.3826437  76.0187387  64.2329597  18.6344254
  75.6785822  65.6625652  18.9970791  14.0243721  69.9091721  36.9355536
  14.2163551  69.6104050  37.8244352  13.8428521  69.1063118  36.4469838
  82.5538921  60.2138948  18.1563318  81.8254089  60.2795362  17.5388896
  83.1555748  60.9097290  17.8917241  67.8552914  66.1001587  57.5715399
  67.3480940  66.7045641  57.0296144  67.6905107  65.2387428  57.1880817
  33.8980079  28.6023760  14.3385279  34.6176481  28.9945173  13.8439834
  33.3592749  29.3462658  14.6080196  38.6034727  65.9139824  25.2081323
  38.1033659  66.1307240  25.9949923  38.0410528  66.1882353  24.4837689
  71.4365864  34.0203357   3.3973822  72.3014402  33.9961720   2.9879001
  70.9622240  34.6977568   2.9153961  30.3901505   3.5351259  15.6696808
  30.8549261   3.8310972  14.8869836  29.8340368   2.8194815  15.3617489
  62.8888130   8.4736466  10.7330692  63.3010674   9.2085320  10.2789509
  63.2759190   8.4854406  11.6084218  55.4053116  74.1976500  64.7539091
  54.7045088  73.8143682  65.2813578  55.1964474  75.1311731  64.7200966
  42.6900148  53.0397081  12.2153735  42.3925018  53.3403587  13.0740535
  43.6437798  53.1109238  12.2539043   6.8159401  49.4068861  14.0269732
   6.1528558  50.0735140  14.2062950   7.5609934  49.6570969  14.5733452
   4.3158764  15.3400564  28.3462334   3.7483299  15.9756780  28.7822485
   4.9419516  15.0759363  29.0204024  26.3320827  63.5629892  63.0267239
  26.9572949  62.9083729  62.7155733  25.6650114  63.0560780  63.4896374
   3.6904514  68.0919361  54.5308352   3.4471792  67.9495478  55.4455900
   4.0813071  68.9656353  54.5201540  80.1933479  37.3246408   6.5150964
  80.6128597  37.9831982   5.9614348  79.7262573  36.7579269   5.9011781
  75.0088358  24.9807215   0.6447244  74.6832800  24.7972560   1.5259652
  74.5765162  24.3316436   0.0897229  74.8248816   7.4898243  63.8849735
  75.2562952   7.7092642  64.7107840  75.4190779   7.8175128  63.2098627
   7.9349869  62.6728916  42.1088219   7.8432244  61.8412447  42.5737667
   8.1918436  63.2987833  42.7859545  74.4612122  72.8977823  44.6729279
  73.6648035  73.3192539  44.3499327  74.2500114  71.9642544  44.6853399
  29.6482754  33.9004421  32.2378159  29.2594171  34.7750664  32.2450519
  30.5585814  34.0451741  31.9796944  24.1155529  72.4047804  16.8840170
  24.3380809  72.7667046  16.0262752  23.7250733  71.5525627  16.6904032
  56.1910391  47.1946716   1.0344128  56.2298918  47.3840189   0.0969320
  55.4433346  47.7019262   1.3504265  79.2319632  28.7553668  10.1682591
  79.7004223  29.1014242   9.4086373  79.0481615  29.5247579  10.7072270
  81.7845726   3.7545711   5.1783717  81.9273281   3.8252196   6.1222267
  80.8655453   3.9928707   5.0566345  58.0976915   0.9206797  47.5739861
  58.3064079  -0.0086141  47.4786854  58.9480352   1.3477109  47.6779032
   0.0517573  68.9736748  35.4199457   0.8298678  68.8731766  35.9682846
  -0.6702609  68.6716986  35.9710646   9.7951525  46.6185236   9.1189045
  10.5821753  46.8099976   8.6088407   9.4236523  47.4779749   9.3177933
  75.8430576  58.5943174  37.1761060  75.4737520  58.8874006  38.0091381
  76.6742468  58.1834650  37.4139333  80.3372574  60.2369928  47.3656178
  79.5229864  59.7581720  47.2109413  80.2852154  60.5082321  48.2821083
  73.9417315   9.9390084   4.0863079  74.4859886   9.1740018   4.2727980
  73.2199669   9.5966482   3.5589737  13.5351098  75.2599573  15.7968032
  13.8964939  74.4162750  16.0685313  13.8500571  75.8787966  16.4556468
   5.0817764  54.4536734  21.3944983   4.4657707  55.1186895  21.7019391
   5.3607571  54.7653723  20.5335426  82.2407436  45.4739380  16.2138748
  83.1545830  45.1954174  16.1541700  82.2279644  46.0999298  16.9378948
  59.2056751   1.7660691  31.2558460  58.9080381   1.5940522  30.3625059
  59.6968842   0.9815983  31.4998746  29.6219897   6.9604617  54.3654394
  30.4998589   6.9506341  54.7468567  29.0407276   6.7520118  55.0968170
  15.7092106  74.5355272  67.9920959  15.3941214  74.8983479  67.1642637
  16.6614628  74.6196938  67.9434824   5.0739431   8.0529106   8.2448220
   5.0933135   8.9660674   7.9584628   4.7246349   7.5736409   7.4934793
  83.3075142  71.2009287  38.2333255  82.6609802  71.1210489  38.9346409
  83.7331295  70.3441572  38.2012057  27.4503684  73.3314991   5.4541266
  27.8511190  73.8550901   6.1480159  28.0670357  72.6139355   5.3090310
  56.3263941   0.3781918  64.6747732  55.5080080   0.4297008  65.1685619
  56.7277622   1.2400552  64.7857904  56.8555212  50.3320408  65.7614470
  55.9018850  50.3528500  65.6816101  57.0191431  49.7995186  66.5398312
  70.6571388  20.9291506  62.3941851  69.7110128  20.8874750  62.2551012
  71.0302067  20.9011936  61.5131235   5.0661796  51.9249868  22.8130913
   5.0176400  52.7082968  22.2650957   6.0011625  51.7266750  22.8651714
  54.5382690  16.8494642  60.5553055  54.3234968  16.2147844  61.2388945
  54.1737318  17.6757240  60.8725452  15.9172583  72.7125549  24.9094772
  16.5528226  73.0531740  25.5389738  16.2687576  72.9627323  24.0550232
  22.0361590  37.1814895  13.1845689  21.5363979  37.9043388  12.8051519
  21.5207314  36.4010549  12.9808760  18.2640398  14.9603713  21.9566154
  18.9110827  14.8130858  22.6464510  18.7295389  14.7593820  21.1447382
  65.0881290   0.8017969  34.5676708  64.5001221   1.1295874  33.8872027
  64.5350027   0.7237785  35.3449702  15.1030016  28.6734056  41.6896296
  14.5294917  28.8122725  40.9359455  14.5575321  28.2069159  42.3229361
  72.7944183  21.3774204  20.8243012  73.2219458  21.9913459  21.4214158
  72.0018911  21.1056590  21.2872052  25.8231258  56.6466713  12.8257298
  25.9386277  56.3388872  13.7247062  26.4762568  57.3389578  12.7238083
  31.6664505  78.0940151  23.3057666  32.3165917  78.0098295  22.6082993
  32.0752239  77.6794434  24.0655470  28.3251810  68.8999653  44.6136951
  28.1976581  69.8368359  44.7628498  28.0434155  68.7608528  43.7095451
  43.4053659  73.0737209  31.4413786  43.1127739  72.8770447  30.5514669
  43.7318707  73.9722157  31.3930774  16.7499053  27.6244354  18.8922071
  17.5583601  27.1121287  18.9054060  16.6375434  27.8709745  17.9741514
  48.9627790  68.9394140   1.2543188  49.9187803  68.8993502   1.2805647
  48.7699366  69.7305775   0.7512232   8.7487519  49.3096113  41.3081455
   9.6707499  49.4332504  41.0826111   8.7641758  48.7311172  42.0705986
  39.7211576  13.3300114  44.0665531  39.9857450  12.4794936  43.7160587
  38.7665057  13.3313394  43.9967680  62.4038410  10.0130832  39.3487549
  61.5192747  10.0528347  38.9851689  62.8220797   9.2891735  38.8826394
  37.8757548  79.0782547  66.2717485  37.8175449  78.1636906  65.9953070
  37.6951551  79.5805836  65.4772186  25.2066565  34.3630195  44.2065048
  25.2669144  33.6558628  43.5642242  24.6176863  34.0245318  44.8808765
  22.3822474  45.9048080  15.6092334  23.0219436  46.5033245  15.9949780
  22.8601336  45.0829983  15.4975080  49.6196699  57.9628801   3.6573863
  50.5484867  58.0903482   3.4642881  49.3801260  57.1737337   3.1714919
   3.9995855  12.3378146  64.9414492   3.8296372  12.3966515  65.8816004
   4.7193062  12.9502726  64.7893667  61.3270092  75.1743793  12.9399383
  61.3875294  76.1081600  13.1414843  61.9083548  74.7543573  13.5738587
  24.6025538  78.1610775  46.8871117  24.4715023  78.0298567  47.8261709
  25.2500010  77.5004148  46.6410065  76.6980648  49.0855074  62.2945404
  76.2648153  48.3678532  62.7566004  77.0734835  48.6763430  61.5148783
  21.9768572  52.9416990  21.2695217  21.3834453  52.4958849  20.6650829
  21.9299316  53.8632870  21.0151577  39.9718475  11.2815928  28.1774282
  40.6957722  11.4532661  27.5751901  40.1577711  11.8316638  28.9384031
  47.9447842  53.9412403  17.0656407  47.4236107  53.7702513  17.8500998
  47.6656342  54.8102570  16.7773461  81.8207645  11.0403252  66.7848158
  81.9155121  11.6942620  67.4773598  81.2084293  10.3981888  67.1438837
  64.8391914   6.4200550  25.8193398  65.5842733   6.6076195  26.3902164
  64.8664427   7.1093225  25.1557136  23.3797741  72.1260357  31.8326950
  23.0560255  71.6184235  32.5768375  24.2397261  71.7509556  31.6428828
  80.1814270  69.1196394   1.5010613  80.5847168  69.9874353   1.4781821
  80.8925724  68.5316801   1.7556411  22.7894378  52.2431421   8.0562043
  23.6690712  51.9949579   8.3405977  22.3915863  52.6429796   8.8295585
  80.8837032  44.9627590  46.4586163  80.2025414  44.3688488  46.1431360
  81.6801357  44.4318390  46.4652014  81.8689156  63.7539768  10.3400707
  81.1344147  64.2558432  10.6934369  81.6685772  62.8454494  10.5651879
  51.9177675   6.7531955  35.4344296  51.9232893   7.2193003  36.2704587
  51.5598679   7.3847210  34.8104787  57.9105806   2.4148981   9.1920561
  58.0323982   1.6368216   9.7361058  57.6098967   2.0735794   8.3498442
  58.8892078  16.4415252  56.2728977  59.1467905  16.2317657  57.1706104
  59.4056416  17.2161138  56.0503244  62.3342276  72.7746058  10.9239864
  63.0872059  73.0827379  11.4282811  61.5947104  72.8509855  11.5269017
  63.6251879  28.8403869  64.4874620  62.6944637  28.7152529  64.6727276
  63.8882542  28.0408883  64.0315771   4.4700927  38.7477112  16.3176703
   4.1471809  38.3535957  17.1280003   3.9217111  38.3676076  15.6313539
  53.8202095  72.2059965  25.2669883  53.6957932  71.2792540  25.4716802
  54.7299576  72.2668934  24.9756336  71.9980812  37.3909926  67.1170044
  71.6379786  38.0619097  66.5369797  71.5565300  36.5838647  66.8527842
  82.4083900  52.6014900  19.9738073  81.8120003  51.8560600  20.0437045
  82.1581650  53.0326128  19.1566455  52.4620771  40.3027964  57.0278835
  52.2071362  39.7854829  56.2639332  53.1482172  39.7853422  57.4494076
  78.5382175  67.2664881  25.9824657  79.2442417  67.0625925  25.3691173
  78.3386612  66.4307785  26.4043593  25.6273389  61.4843607  49.5333767
  25.7876873  62.2930622  49.0470362  26.0210466  60.7984972  48.9941025
  48.2425356  23.1744814  60.5090427  47.8860331  22.7608418  59.7228909
  49.1877985  23.0388546  60.4433727  73.1365728  43.5426140  56.4636564
  73.9353800  43.0682325  56.6940928  72.9094219  43.2198095  55.5916262
  58.8388491  36.9982100   2.5473478  59.4844532  37.6867938   2.3883449
  58.0309296  37.3328757   2.1581167  36.4120293  66.8620920  23.3929014
  36.8923903  66.8465853  22.5651050  35.6625342  67.4330902  23.2242322
   1.7292029  33.3273101  12.0811045   1.7907774  33.7310505  12.9468036
   2.4650332  33.6956835  11.5921390  39.1747403  16.2780929  34.6790242
  38.8603902  16.5127909  35.5521417  40.1146221  16.4572132  34.7066879
  24.8205209  63.4277582  24.6869922  24.3897104  63.4045744  25.5414486
  24.1052389  63.5412836  24.0611196  58.0008459  76.5192652  35.7048154
  57.4885178  76.2139988  36.4535236  57.5090408  76.2200499  34.9400735
  48.5000563   8.2755476  40.4985285  48.1376028   7.9894960  39.6600580
  49.4393730   8.3625531  40.3362226   4.5304540  75.2142143   2.4217029
   4.4559345  75.4706669   1.5025117   4.3383893  74.2764902   2.4250688
  54.3468428   5.9776384  36.8167877  53.7761068   6.4169145  36.1862898
  54.8447943   5.3503382  36.2926030  27.7085114  26.2727046   9.7212958
  28.2867575  26.7167950  10.3414965  27.3612690  26.9755840   9.1721016
  35.3498316  69.2730188   4.5803043  35.5726862  69.3213701   3.6506644
  35.0822735  70.1631355   4.8090717  33.9265609  69.4390154  33.1220770
  33.6441588  68.5329628  32.9973841  34.5620537  69.3956423  33.8365698
  16.8882847  42.4438953  28.9798617  17.5776052  43.0071640  29.3317103
  17.2917795  42.0141792  28.2256937  26.2790537  65.3300333  50.4287434
  26.2461901  64.7398949  49.6758270  26.5624261  66.1683369  50.0638056
  50.7953978  52.7211189   6.0751969  49.9749804  52.5338030   5.6190580
  51.3333321  53.1726646   5.4248416  18.6119664  36.4654517   1.1370382
  18.1736207  37.2908854   0.9303002  18.3528912  35.8732963   0.4310191
  63.8087749  14.4312620  24.1380286  63.2866716  13.9033496  24.7421384
  64.2672729  15.0555933  24.7003651  36.2872171  63.0540323  38.2305956
  35.8744144  62.1920729  38.1772375  36.4253616  63.1958818  39.1670918
  17.3550320  72.8675985  13.2897103  16.9659758  72.1077824  13.7227809
  18.1909823  72.9966688  13.7377715  29.0540504  17.7540767  16.8104768
  29.5343304  18.5120642  16.4772820  29.6324062  17.3764539  17.4731517
  81.7869663  53.3092499   9.6599972  82.3677158  52.8173065  10.2404773
  81.1900997  52.6508951   9.3042469  13.0923259  49.6068001  40.3722000
  13.5384524  49.3076277  41.1644745  13.7793005  50.0267601  39.8545790
  29.6489239   4.6232763  32.8055048  28.9173818   4.2361563  33.2863522
  30.1235294   5.1336348  33.4616423  76.9444418  16.4977992  48.3587885
  76.9725800  17.4516392  48.4338140  77.8553247  16.2419987  48.2135487
  52.1589994  20.8169937  50.4748678  52.3715782  19.9936044  50.9142685
  52.9127455  21.3815284  50.6463289  11.4706039  45.4906368  24.6834683
  11.6105032  46.1509323  24.0047407  10.6841552  45.0222874  24.4035149
  32.9127502  50.8911753  29.9891567  33.0004907  51.5272665  29.2792845
  33.8127589  50.7055998  30.2570701  62.6848459  12.3949790  28.5265183
  61.7740202  12.3039734  28.8064361  63.0283499  11.5015769  28.5347652
  77.2987795   5.4820532  18.1754637  77.3672581   6.3930535  17.8897703
  76.3888264   5.2433628  17.9987049  50.2625990  61.6969013  13.3046997
  50.5434465  61.2386608  12.5126302  49.8424387  61.0208178  13.8363051
  52.8441143  16.1150944  19.8139644  52.2012281  15.6174672  19.3086982
  52.3589087  16.4270508  20.5778289  65.6470490  42.8773403  12.9570830
  65.5644083  42.3648024  12.1528995  66.2185097  42.3527002  13.5178137
   1.7161448  51.9576311   8.3194894   2.1957812  52.5752401   7.7674556
   1.5678971  51.1980629   7.7561885  79.5049858   8.1086272  46.8137836
  80.1357460   8.1197482  47.5336790  78.7504101   8.5928673  47.1489906
  54.6300316   6.4972061  22.9615688  53.9393187   6.0455275  22.4766612
  54.1612673   7.0697236  23.5687900  83.0164051  64.8074389  40.5166483
  82.5765610  65.6571579  40.4893160  83.4619617  64.7411060  39.6720743
   3.5136518  50.6951666  27.4536300   3.7875697  50.5692101  26.5451503
   3.6943153  51.6179848  27.6325107  16.4789891  62.7862072  23.3212018
  16.5549457  61.9071865  22.9500103  17.3584306  63.1559706  23.2431579
  30.5582952  77.6181459  15.1441407  30.2913928  78.4796095  15.4648829
  31.2854028  77.3654652  15.7130826  73.8739967  74.5394897   9.1361898
  73.6617613  74.3371820   8.2250041  73.1842804  74.1114902   9.6434748
  77.1772671  45.7501936  58.9015341  77.7897072  46.4809656  58.8171625
  77.5066900  45.0899839  58.2917452  38.6684608  34.7445059  26.6772580
  38.7397194  35.0419974  27.5842595  39.1214323  35.4168773  26.1683679
   9.4797838  59.6075392   7.1909070   9.4880521  60.2288580   7.9190028
   8.5681868  59.5923138   6.8993753  29.7795153  69.2083788  24.8642564
  29.3872118  68.5164976  25.3968239  30.7186174  69.1396952  25.0363088
  68.5240459   2.5291592  34.2575574  68.2564592   1.6395189  34.0269780
  68.2862043   2.6192239  35.1803541  13.6798811  46.6515446  40.2437258
  13.3179069  46.4964437  41.1161661  13.4167266  47.5469255  40.0309420
  77.4223423  46.1040020  10.5964851  76.7302275  46.5505934  11.0840988
  78.1119871  45.9535360  11.2429988  11.6693676  52.8691530   9.3451124
  11.4283180  52.2647762  10.0471485  12.5409603  53.1821012   9.5872307
  30.5084109   5.4182827  42.7934885  31.1081576   5.5198723  42.0544243
  31.0788250   5.2492213  43.5433435   4.6464443  49.5409775  46.1415005
   4.8892018  50.2077627  45.4990816   3.7355623  49.7386503  46.3593340
  16.6066325   7.6266319   7.8372520  16.1844444   6.8417501   7.4880397
  17.0550025   7.3258781   8.6276591  32.6468825  14.8116922  41.6684484
  32.7101803  14.2910874  40.8677006  33.4994769  15.2402723  41.7435122
  64.9193001   9.6901917  30.6936693  64.4277763   9.2744064  29.9853182
  65.8305120   9.4495779  30.5262709  77.1732330  26.3441229  58.4944677
  77.6698923  27.1446157  58.3248329  77.4513197  26.0704136  59.3685293
  43.4756674  78.8413667  56.3023615  42.7234520  78.4658509  56.7599535
  44.0626873  78.0993277  56.1573792  76.2680054  27.9047585  20.2291393
  76.7105818  28.0783582  19.3983412  76.9664907  27.9327393  20.8830261
  35.9594631   5.3635758  29.7983956  36.7811418   5.3951091  29.3084145
  36.0870171   5.9795958  30.5198407  17.4806118  67.1429396   2.3631465
  18.4366798  67.1882677   2.3525666  17.2539568  67.0823669   3.2911500
  16.1875510  72.3991632  42.8121185  17.0806134  72.6784611  43.0137730
  15.7074237  73.2151890  42.6713419  46.8598747  41.8775320  11.5802336
  46.9745207  41.4382029  12.4228930  46.5710402  41.1847162  10.9862542
  35.8996272  61.7547607  10.6670129  36.2271500  62.3149347   9.9633342
  36.4105392  60.9490633  10.5892277  69.9690580  59.3234396  36.0704803
  70.4114676  59.3487883  36.9189286  70.6716013  59.1709328  35.4384947
  36.6597462  76.3190317  61.7491961  35.8019114  76.3953400  62.1669626
  36.7593861  77.1334696  61.2562513  40.1189566  75.7338810   6.3969523
  40.9466124  75.2942085   6.5916425  39.8248100  75.3382874   5.5764556
  70.6429291   3.1968445  39.5331526  70.9035063   2.2785486  39.6043158
  69.7424889   3.2161120  39.8572946  54.5558596   4.1903701  14.7534215
  54.6530914   3.6468101  13.9715517  54.1613293   5.0016993  14.4335377
  47.2133827  30.4685616  16.1745262  46.3172102  30.7978344  16.1060846
  47.5748873  30.9153056  16.9400120  78.1529474  67.7370453   4.8357648
  78.5081720  68.5963488   4.6085006  77.3260832  67.9290485   5.2780986
  20.7338190  53.7617540  36.3737369  20.4254961  53.0288839  35.8407545
  20.0975919  54.4587421  36.2135530  39.0022326  52.7186108  33.3867025
  39.6977639  52.0929575  33.1841588  39.3977904  53.5758591  33.2289338
   3.9539766  62.7279282  44.3535757   3.1618077  63.0459642  43.9205027
   3.6395857  62.3282862  45.1645470  41.8094397  25.0096369  20.7292557
  41.2448692  25.3145862  21.4395380  41.2153292  24.8795509  19.9901056
  75.8055019  51.9605398  45.2584171  76.2651491  52.6089001  45.7918835
  75.0871325  52.4479818  44.8552084   3.6020428  66.0725737   1.2004906
   3.6589938  65.3119659   0.6221651   4.4440028  66.5159321   1.0967220
  38.6721468  54.8876715  36.3583970  38.6528921  53.9464998  36.1850309
  39.5955539  55.0830173  36.5177512  53.1901979  13.2016146  21.4641166
  53.8618565  13.4378064  22.1038985  53.2725430  12.2526538  21.3696575
  11.9368696  43.8334513   6.2775731  12.4070394  44.5621204   5.8723402
  11.7548525  44.1318369   7.1686780  50.8087969  23.4119391  14.5611358
  50.4027987  22.7401924  14.0132725  50.6150150  23.1389737  15.4578912
  74.3624926   6.1678445  26.4093208  74.0175438   5.3470999  26.0577202
  75.2284956   5.9387159  26.7466092  78.0948400  54.5728683   8.0348116
  78.1496048  54.6176958   8.9893913  78.4892368  55.3913641   7.7335763
  11.0035324  50.7082224  28.9182663  10.8166850  50.9852743  28.0212927
  11.3363802  49.8152351  28.8287044  14.4693506  53.3653641  33.6570978
  14.5383859  52.8782940  34.4782138  14.4883335  52.6921225  32.9769421
  65.1074982   2.5208372   4.4906467  65.2511883   2.7161771   5.4166210
  64.5715904   1.7277247   4.4935301  73.7824726  39.7728539   1.1887547
  74.1348314  39.4295216   2.0098498  74.1648006  40.6469250   1.1109541
  29.6992636  72.3786211  15.2006435  29.2682648  73.2154036  15.3746068
  29.7826886  72.3457336  14.2476535  57.4605179  10.7088768  39.8245049
  57.4040222   9.7743553  39.6252346  56.7796183  11.1104584  39.2847490
  28.6541557  71.8456602  36.3864899  29.2674565  71.1401701  36.1806202
  29.2076254  72.5590324  36.7043018  24.5143843  62.7656078  27.4035001
  23.5871601  62.5393295  27.4762201  24.9575782  61.9252396  27.2869205
  49.9061489  37.6707053   7.7900779  49.7871590  36.9351482   7.1892208
  50.6274843  38.1740832   7.4125600  67.3954439  65.6154823  10.1216066
  66.5573359  66.0092402  10.3640151  67.2091866  65.1324463   9.3164885
   9.0026301  62.4920988   7.7410817   9.4306642  62.6826954   6.9064009
   8.2033044  62.0244122   7.4990547  19.0398633  62.9714584  46.0793352
  19.0482461  63.9247227  46.1656666  18.2685018  62.6930332  46.5730095
  17.8311980   9.0499812  13.2537389  17.2650170   8.7678850  12.5353432
  17.2266114   9.3649900  13.9256585  60.2105713  13.4846354  38.0949879
  60.1811552  14.2809296  38.6253500  59.9058867  13.7611055  37.2307181
  22.8908300  75.9228897  14.4266057  21.9729733  75.9451008  14.6973002
  23.3284116  76.5402985  15.0127482  69.1462708  78.4229708  66.9819784
  69.9300766  78.3650827  66.4356041  69.4292068  78.1088448  67.8407574
  14.8575974  22.9080391  57.9767275  15.2397144  22.0697260  58.2364368
  15.0185049  23.4859419  58.7226295  58.2975626   5.4902053  32.2696948
  59.1495323   5.0888443  32.0985556  58.3578825   6.3589120  31.8722749
  42.4865437  63.7800789  15.0657356  41.7451382  64.1001940  14.5518470
  43.2530880  63.9722061  14.5256197  49.4524813   8.4288251   0.2802770
  48.7515068   8.3616900   0.9286290  50.0640821   7.7311361   0.5156659
  28.0420518  35.2592301  49.3662739  28.4016562  34.6093726  48.7624502
  28.6800289  35.9727740  49.3579531  80.5407047  44.7076702  14.2163670
  81.2399197  45.2014923  14.6447003  80.7681179  44.7277164  13.2867897
  47.8116179  13.0478406  24.5122552  48.7174225  13.0511165  24.8216796
  47.3124552  12.6704359  25.2365708  45.7966661  36.4674354  59.9537563
  45.1733208  35.8436275  59.5815516  45.2497721  37.1581388  60.3280067
  61.4016294  55.5604315  35.5371737  62.2022772  56.0663033  35.3982925
  60.8345747  55.8038330  34.8054385  56.4983034   8.3501017  48.4324169
  56.0827875   8.3775175  47.5705433  57.2520876   7.7716285  48.3166170
   3.8394788   4.6799392  28.7103224   4.6446526   4.1678625  28.6347961
   3.6017135   4.6173495  29.6354079  28.5728312  58.1776047  15.6899166
  27.7935052  57.7288437  16.0177839  28.4304833  58.2459259  14.7458291
  69.9985886  18.1439316  43.1192732  69.8574591  17.8357267  42.2241068
  70.7352734  18.7511802  43.0501604  31.2101316  70.3680420  37.3960233
  32.0244408  70.8608723  37.2947717  30.8759809  70.6311512  38.2535481
   7.7413064  44.6135616   9.0278649   7.8343034  44.0940952   9.8264509
   8.4838915  45.2172422   9.0469909  69.7431517  35.5493379   1.8457657
  69.5115614  36.4730692   1.9422746  70.5414295  35.5564642   1.3176206
  46.9028902   3.7149438  51.9940090  46.7686796   2.7937967  51.7710543
  46.3312960   4.1926062  51.3928843  53.6649609  51.9850159  15.8490562
  53.3340406  51.2308216  16.3368225  53.4952068  51.7702770  14.9318314
  12.1558535  37.2689772  19.7725105  12.4225271  37.7166343  18.9695656
  12.5901246  37.7552366  20.4733634   7.3213184  25.8516693   8.6206770
   8.2330203  25.8880281   8.3313507   6.8966740  26.5793753   8.1664127
  75.4312754  46.4996004  14.9695718  75.1012516  45.9545994  14.2552245
  74.7000408  46.5569448  15.5845833   3.3080664  40.6031942  12.2092438
   2.3531286  40.6113100  12.2745121   3.4884506  40.1350307  11.3940632
  56.2206984  68.9510298  12.3071277  56.4850187  68.5688734  13.1439805
  56.6149712  69.8232555  12.3069489  60.0070047  39.1453195   6.5482855
  59.3379354  39.7741318   6.2777793  60.5262566  38.9935184   5.7586229
  73.8974380  40.4459095  11.9290316  74.4769430  40.8052111  12.6008248
  73.2300425  39.9664712  12.4199009  57.0447588   8.4503716  67.3463345
  56.5259027   8.0750269  66.6349030  57.4783850   9.2075765  66.9528389
  23.4237242  53.0019188  12.9776597  22.5664973  53.2208586  13.3429837
  24.0423632  53.2074165  13.6785781  36.8130064  47.3000431   8.6735177
  36.6041446  46.8664885   7.8460884  36.3115096  46.8169641   9.3303049
  76.2263727  45.7757521  22.0368958  76.6705275  44.9298811  21.9781375
  76.1384344  46.0637283  21.1282873  13.7255609  25.2234507  21.4936972
  13.3336401  26.0901666  21.3867712  13.9875293  25.1908994  22.4137735
  40.7867384  43.4583235  16.3447094  41.0668945  43.3661413  15.4340792
  41.1427212  42.6860619  16.7841649  75.4572058  15.2861667  41.9783163
  75.9910488  16.0063446  42.3138523  74.9105263  15.6877255  41.3029432
  72.2058296  32.5497985  34.9053073  72.4252081  32.5816345  33.9741302
  71.4809799  31.9269872  34.9594498  69.4355965  23.6248755   4.9949974
  70.1311970  22.9733753   5.0839877  69.8738575  24.4640160   5.1364237
  16.1791301  52.4937820  66.8401718  16.9679916  52.7332878  67.3265553
  15.7526469  51.8330622  67.3858738   3.8164705  27.7683187   6.2258172
   3.4363890  26.9834423   6.6204536   4.7604510  27.6627588   6.3440961
  24.8554778  52.7934647  50.8322048  25.5098391  53.2873583  51.3262844
  24.5021200  53.4246016  50.2052784  81.8520927  28.2004976  23.8017440
  82.5078201  28.8172150  24.1271758  81.0238838  28.6762977  23.8643980
  83.8091183  38.7057257  15.0190961  82.9160690  38.8334990  14.6991491
  83.8265324  37.7988529  15.3248942  55.2022076  51.0479689   3.4267971
  54.4733429  50.6863642   2.9225862  54.8025894  51.3502598   4.2423689
  67.5344849  22.8249049  27.4910569  68.2405186  22.6761413  26.8620753
  67.9330492  22.6516819  28.3439159  66.4039230  16.8301439   9.1274583
  66.5214872  17.5600004   9.7355038  65.8077145  17.1685791   8.4594554
   4.5052707  44.4825649   8.8324451   4.4708630  43.7432003   9.4393981
   5.4181254  44.5152903   8.5463381  69.5010519  15.1453316   5.1746404
  70.2173233  15.1815891   5.8085728  68.7116337  15.2882588   5.6967723
  10.2743793  73.6074114  64.9183273  10.9904778  74.1440392  64.5785284
   9.5359051  74.2120028  64.9915457  18.9696658  26.6459036  57.1561623
  19.2839885  26.3329744  56.3079214  19.1465878  27.5865436  57.1449852
  13.0413282  61.3655281   5.7238334  12.3426378  60.8087730   5.3801996
  13.6570251  61.4537144   4.9962536  11.5546227  56.1125326  17.5354028
  11.5613258  55.8352041  18.4515238  11.0558081  56.9294882  17.5361109
  75.1759005  19.5197093  43.3355713  75.6601238  19.8162472  42.5649691
  75.8006239  19.5995927  44.0563822  41.9780302  30.9119773  22.1398044
  42.8909826  30.7140517  21.9310665  42.0280790  31.5762281  22.8271890
  30.5698776  33.9786077  23.1092906  30.2351165  33.3374500  22.4823284
  29.9438429  34.7016263  23.0698371  47.0764017  40.8932352  61.3782167
  47.2999716  41.7471647  61.7484283  47.9049683  40.5550671  61.0385942
  12.8395808  39.4050050  37.5947595  12.1731460  38.7268829  37.7054119
  12.3828363  40.1195192  37.1508121  47.7558756  76.1128902  53.4078121
  46.9412804  76.6155195  53.4025240  48.0838680  76.1788988  52.5109863
  71.0774374   1.6408719  59.0599394  71.2252331   2.2160123  58.3092070
  71.6638565   0.8988793  58.9123249  17.5286067  50.7895327  60.2424812
  16.7724824  50.3454113  59.8587322  17.3120260  51.7203951  60.1893473
  14.5720947   4.8689047   3.4050307  14.5692551   5.6716305   3.9264277
  13.8134634   4.9555528   2.8277937  12.0670569  63.2360077  12.7393150
  11.6197395  62.3937368  12.8212786  11.4087629  63.8825893  12.9939067
  76.7132664  34.9473906  40.5971718  76.4747381  35.3020573  41.4536428
  76.4890289  34.0184283  40.6517267  15.4814875  59.1341877   4.5519969
  14.5966506  58.7884712   4.4346312  16.0149729  58.6443996   3.9261118
  18.6572278  42.6439762  19.1851807  18.3369839  41.7861128  18.9063597
  18.4411836  42.6891518  20.1165867  20.7400346  36.5424252   5.1637560
  20.6084681  37.3353553   5.6835461  21.6523719  36.5917468   4.8783758
  26.9223237  69.0021086  15.1293731  26.9040346  69.7295904  15.7511997
  27.0759296  69.4165611  14.2803323   0.6940738  39.5580769  11.9844460
  -0.0851198  39.2690349  11.5095317   0.4866805  39.3977332  12.9050481
  19.1927719  31.4417601  44.0482903  18.6025274  31.6828561  43.3343458
  19.9221683  32.0571661  43.9742088  59.3674707  75.0994301  48.1027269
  59.6613646  75.7338715  48.7564373  59.5793104  75.5058193  47.2623682
  48.3134985   2.8135669  33.5203624  47.6734495   3.4993112  33.3297729
  49.1413355   3.2818651  33.6281085  50.7389116  59.0666676  65.0640631
  50.8774853  58.8526201  65.9866762  50.1498985  59.8210335  65.0790548
  17.7001154   4.5317912  66.2456322  17.4256396   5.1336235  66.9375086
  18.2985544   5.0463808  65.7040596  69.5435238  13.9666545   2.6767513
  69.5675945  14.4139111   3.5226905  68.7667179  14.3183613   2.2418885
  18.7129378  30.0580287  13.8332403  19.2713296  29.9143004  13.0691910
  17.8207004  30.0152612  13.4892714  24.3645883  45.6348228  10.1684725
  24.7097707  45.2837229   9.3476135  23.4183669  45.5046844  10.1055300
  70.4023170  73.0521011   5.9372360  69.8503351  73.8269615   6.0427934
  71.0567474  73.1278229   6.6316575   4.0069500  47.0596218  65.5047512
   4.0547743  47.3645020  64.5986605   4.6274856  47.6145315  65.9772396
  16.9902217  43.5455322   8.8906240  16.8951392  42.7024174   8.4475070
  16.9559431  44.1919231   8.1854773  40.3595066  52.5478172   7.9895705
  39.4441104  52.7921724   8.1258339  40.6094980  52.0964956   8.7958252
  42.7643681  25.2248573  53.2395315  43.0466843  26.1209798  53.4225464
  41.9226885  25.3250074  52.7948093  55.9568024   4.4834927   5.5661803
  56.5857220   3.7635592   5.5173266  55.3244257   4.2045704   6.2284005
  52.9034853  71.7699671  64.6324444  52.2675228  72.3991251  64.2919397
  52.6344490  71.6245222  65.5394745  13.8247824  16.8258405   8.8957793
  13.9832699  16.9137287   7.9558915  14.5157075  17.3468494   9.3049288
  74.7861671  61.0918522  66.1822844  73.9248800  61.2245083  66.5782881
  75.0828314  60.2509451  66.5302658  42.1248293  20.4300070  64.2166853
  41.9311810  20.1647472  65.1157808  42.5284052  21.2936258  64.3034124
  30.2184701  72.1007013  12.1428621  30.9219480  71.9487381  11.5117884
  29.8104024  72.9171896  11.8546498  71.2500429  14.3552387  65.1836252
  71.3423395  13.4032035  65.2202845  71.9485760  14.6411026  64.5949268
  75.5281258  11.1371624   6.8411273  74.6575260  10.7495642   6.7514133
  75.9820986  10.5656266   7.4603915  55.8558144   2.7163180  68.3790958
  55.3402676   3.2510193  68.9828710  56.2024464   3.3410652  67.7420908
   5.0658691  36.7192268  38.8556123   4.1564739  37.0150638  38.8142276
   5.4449451  37.2114110  39.5838237  13.0007052  48.9820385  12.7177298
  13.3888781  49.1468096  13.5770345  13.5812080  48.3379984  12.3121965
  21.2527156  56.1575747  11.6043913  22.0352197  55.6086683  11.5532243
  21.1639214  56.3618851  12.5353074   4.0659401  14.4276357  12.0123506
   3.4724891  14.5538604  12.7526999   4.4748825  13.5776865  12.1753979
  63.9062786  62.8627300  37.1593213  63.4797478  62.4761009  36.3945842
  64.7662687  63.1369543  36.8408108   4.1149107  63.9445162   3.2150990
   3.9034542  64.7278357   2.7072322   5.0682068  63.8755083   3.1631693
   9.0664500   5.7146734  46.2460709   9.2329013   6.6167712  46.5194702
   9.5971364   5.6015968  45.4575205   0.4065821  56.3126516  64.1325569
  -0.4249170  56.5085649  64.5643663   0.1871988  55.6460047  63.4816456
  76.7242575  49.8158455  19.4796896  77.2587490  50.5939007  19.3209958
  76.8237448  49.2908621  18.6855066  24.5643449  74.7084141  32.8345227
  23.6905026  74.7708511  33.2201791  24.5609999  73.8727379  32.3677611
  11.5255344  73.3373690  35.3976750  12.4123478  73.4839296  35.7267880
  11.5186751  73.7519407  34.5349383  19.2252517  35.4767179  19.7910690
  19.5555782  34.9872279  19.0377319  18.3547354  35.1120615  19.9506283
  34.2575860  26.0894227   8.2873076  33.3063030  26.0163736   8.3644831
  34.4674039  25.6340742   7.4719149   0.4185151  12.5697374  37.1023107
   1.0666298  12.0255494  37.5495672  -0.4245891  12.1890914  37.3483109
  50.5314159  68.2900000  58.2902288  51.3320208  67.8452301  58.5685205
  50.8082533  69.1871309  58.1037998  26.5493822  52.1668434  19.5186889
  27.3845577  52.1175528  19.9837542  26.0128021  52.7537012  20.0515246
  56.5234041  26.1009240  44.9633360  56.1313105  25.3912902  45.4721737
  56.9713402  25.6591988  44.2419052  58.0258131  32.7587271  12.6805842
  58.9796352  32.8340030  12.7085865  57.7985764  32.2930241  13.4853935
  49.2149591   5.2576172  62.0359802  49.6231794   5.1547319  62.8956366
  48.5654402   5.9495968  62.1605444  50.7562685  78.5702467  45.7290840
  50.2768373  79.2382240  46.2191677  50.3172874  78.5355139  44.8791885
  72.2263050  34.5899987   5.9068072  72.5103140  33.7185168   6.1826479
  71.7438459  34.4385934   5.0940716  62.8697205  40.7618380   8.2595909
  63.0979919  41.6470385   8.5433912  62.1313810  40.5147266   8.8163865
  60.1710939  53.9950418  14.2137980  59.4608927  53.6212063  13.6921740
  60.0300312  53.6474943  15.0944471  75.7371378  33.6556220  66.5398169
  76.5309858  33.1272554  66.4569950  75.8235502  34.3256569  65.8617163
  32.8004241  27.7947783  63.0897427  32.8338218  27.1946836  63.8347244
  31.8854618  28.0726933  63.0468845  75.7685566  17.9263937  58.2576609
  76.0163355  17.7443767  57.3511791  75.9074736  18.8679707  58.3594799
  31.9083524  62.6089001  48.8806629  32.5325727  62.8931904  49.5483160
  31.1178541  62.3848820  49.3717432  81.6291046  39.8099422  51.4981747
  81.6036034  39.2213130  50.7437897  81.2036324  40.6107187  51.1916351
  19.7396886  71.6709185   9.2288613  20.5630088  72.1034575   9.4553185
  19.8976588  71.2931776   8.3636492   3.4237555  22.7753973   6.1442918
   4.2322183  22.6448798   6.6398567   3.0000815  21.9170713   6.1467868
  69.6898270  13.5525882  41.9153738  69.5893431  14.3208587  41.3533306
  68.7943172  13.2566845  42.0789003   3.1262270  43.0965519  41.5288448
   3.1350777  43.3095169  40.5956793   4.0103263  43.3052921  41.8305492
  54.2471886  45.0842667  10.0743556  55.0693226  44.7814178  10.4598582
  53.7283754  44.2879629   9.9605078  79.7091436  57.1966362  41.8382454
  80.1749039  58.0326271  41.8587017  80.3947639  56.5438795  41.6966057
   5.8752286  70.6769657   6.9684488   5.6420094  71.6050577   6.9904596
   6.8113792  70.6604671   7.1674013  12.0660245  10.6780958  67.2205687
  12.0810473  10.5260861  68.1655025  11.1459398  10.5777311  66.9764280
  75.4118967   4.0816239  23.0882192  75.6952620   3.7985909  23.9576030
  74.5315981   4.4316134  23.2253838  18.7261367  39.2370391  29.0415692
  18.1466663  38.8076043  29.6708798  19.0015709  38.5351324  28.4519124
  78.9178658  59.7859144  44.5832872  79.7853613  59.3839550  44.6293116
  79.0702820  60.6385612  44.1758633  60.2756262  41.3813877  62.5500822
  60.6906080  42.1005869  63.0262899  60.9807062  41.0041094  62.0240116
  23.8866997  46.9335365  66.9870615  24.1802549  47.6791620  67.5106049
  23.1386495  47.2679758  66.4922905  62.4952745   5.2216405  65.7482100
  62.5007153   4.3606371  66.1663866  62.9309130   5.0822729  64.9073601
  66.1596966  12.5240290  48.7225342  65.3274870  12.6924026  48.2805967
  66.8250847  12.8172266  48.1000185  77.0131874  22.3168397  68.1978559
  76.1826134  22.4267697  67.7349329  77.0565414  21.3807535  68.3930302
  22.2111320  47.7438116  24.9055290  22.3166609  47.6097441  23.9636564
  22.4139380  48.6695814  25.0398850  21.1702538  51.4460850   4.2828763
  21.2273979  50.8858252   5.0568736  21.3545227  50.8600235   3.5488418
  66.9550133  66.2376928  29.1184831  67.5135851  65.6737566  28.5835028
  66.4134169  65.6300211  29.6221066  32.6916075  40.3934908  23.1138682
  32.9490376  39.5210958  23.4120178  32.5772762  40.8978271  23.9193511
  24.4582438  54.0669632  60.5646515  24.6757817  53.7210846  59.6990395
  25.2896881  54.0658140  61.0389185  11.9433999  66.3209534  10.8243108
  11.9343495  67.2623873  10.6515551  11.1699080  66.1696672  11.3675010
  56.0834312  12.2832096  51.6751385  56.5672731  12.7893364  52.3277950
  56.5176868  11.4302635  51.6633797  42.8216076  68.6821842  11.1952794
  42.0914793  68.3942556  10.6473339  42.6423788  68.2989168  12.0538926
   4.3932900  18.0321026  30.4708338   4.9422982  17.3287165  30.8173442
   3.5135913  17.8276324  30.7879353  12.2298348  47.1508884   7.4368137
  11.7139876  47.0614147   6.6354847  12.3858142  48.0918455   7.5174427
  31.8653750  27.8658867  11.0415566  31.1664534  27.9822230  11.6851449
  32.5336146  27.3588777  11.5026748  36.6638851  77.0163107  29.0246129
  36.8273950  76.7365408  29.9252915  36.4853048  76.2043142  28.5502648
   4.1988754  24.6242976  67.1888065   4.1027373  24.3852663  68.1106806
   4.4515783  23.8092494  66.7551374   7.8141314  37.6013136  38.3443713
   8.5160530  37.3249912  37.7551484   7.1350121  36.9353962  38.2367373
  36.2372661  51.5033674  14.8541152  35.6866717  51.5682220  14.0738130
  36.2385988  50.5707073  15.0694656  14.9177361  75.6720686  58.8821793
  14.6025157  76.5258932  58.5857868  15.6530344  75.4737329  58.3023262
  41.2548447  14.2523205   8.4069365  40.3967905  14.6748638   8.3691156
  41.1125183  13.3864915   8.0244255  28.2934230  39.2750461  -0.0742739
  29.2186254  39.3695362  -0.3007858  28.1512922  39.9142130   0.6239302
  70.9829140   9.2500371  43.3551168  71.3886499   9.0174145  44.1902781
  71.2436295  10.1590836  43.2071495  26.2600398  56.7376804  58.6923218
  26.8562818  56.5442133  57.9689264  26.4388394  56.0551357  59.3391562
   6.3076335  15.5008233  67.7486610   6.8698478  16.1607325  67.3428726
   6.4144564  15.6409442  68.6895084  23.7213230  73.9030027  24.4905591
  24.4843221  73.3529758  24.6681428  23.9696360  74.4159794  23.7215161
  42.4333525  71.6174841  65.0253010  42.7031660  71.4893818  65.9347057
  41.4769983  71.5881872  65.0528193  28.0704665  51.5444565   2.9250076
  27.7678418  50.7442045   2.4957660  27.2673893  51.9893169   3.1959271
  81.4544773  39.8468375  26.0236073  81.5985203  40.1515675  26.9195008
  80.5230999  40.0006437  25.8651376  50.5568695   0.3476604  28.4497023
  51.4024687   0.0708448  28.8026452  50.7652712   1.0910728  27.8838944
  50.9239435  18.2075822  64.6163797  50.9711123  17.5641024  65.3234434
  51.5468884  18.8885343  64.8702955  21.6544437  48.3005142  10.2142465
  22.3791933  48.2666779   9.5898890  21.8901539  49.0058994  10.8168280
  56.2217569  63.1564951  22.3322558  56.2142897  63.3130646  21.3879776
  56.5331745  62.2559547  22.4232650  64.3157673  72.1203279  48.7204361
  64.2349911  71.4310408  48.0611992  64.1891909  72.9341888  48.2327509
   4.8621458  31.2150502  64.6954489   4.0753636  31.0136533  65.2020502
   4.5315182  31.5164137  63.8492250  16.2625384   9.5884985  27.5088334
  16.9614518   9.4211471  26.8765783  15.4694188   9.2675763  27.0796466
  37.0281434  77.2527122  54.2681408  36.4485741  77.8678751  53.8188028
  36.9537878  77.4859047  55.1935148   2.1906957  60.5310488  19.2642748
   1.6808607  61.1595058  18.7530601   3.0895996  60.8564758  19.2163229
  62.6836538  34.2318726   6.5811235  61.9970322  34.8392296   6.8566310
  62.3281908  33.3645511   6.7751151   9.8751402  47.7340126  31.5459204
   9.4181824  48.5725307  31.6115570  10.1576126  47.6860285  30.6326079
  28.6064339  69.1852760  47.6113224  28.9876103  69.0281487  48.4751749
  28.5290980  70.1375771  47.5532675  57.4733734  51.4557314  35.0586510
  58.0231380  50.6793261  35.1644206  58.0248547  52.1813631  35.3511548
   9.6966654  72.7631283  24.8449707   9.3513530  73.6338806  24.6480465
   8.9595997  72.1724510  24.6898222  58.1908655  61.7860508  30.9149766
  57.2632313  61.5798521  30.8000064  58.4326887  62.2552156  30.1164556
  31.6232848  14.0740192   3.9194977  32.5658536  13.9737296   4.0526798
  31.5488505  14.6468246   3.1562245  75.5059147  69.1928816  61.3866282
  76.1754274  69.8294163  61.6372299  76.0000372  68.4156847  61.1257839
  25.8804250  74.7488213  35.0935078  25.3289366  74.7145605  34.3118954
  25.2609634  74.7742319  35.8227897  51.3776064   3.7089777  18.3645952
  51.2206030   3.1719857  17.5879216  51.5145874   3.0761808  19.0696025
  22.9810357  27.0163846  44.4368410  23.6057591  26.2939858  44.5008469
  23.5212493  27.8051376  44.4844770  47.8758669  59.8035717   5.7899696
  48.4726286  60.1303577   5.1166767  48.4483099  59.5442104   6.5119624
  19.7112358  23.2023478  36.2743235  19.8729813  23.5752010  37.1409559
  19.0010381  22.5755334  36.4120078  83.5327792  10.8916855  60.9256935
  83.5976210  11.8463039  60.9527349  83.7222090  10.6644487  60.0153542
  22.9366708  76.2488317  67.1446085  22.7329779  75.6735516  66.4071846
  23.6662817  75.8180952  67.5899935  74.4261551   4.8856050  66.3553810
  75.3280973   4.7626418  66.0593748  74.0133715   4.0315953  66.2268925
  45.0736332   0.3014874   8.4297711  46.0256147   0.2971217   8.5294646
  44.8716116  -0.5407871   8.0223489  32.5141335  27.8531051  35.0262666
  31.9312406  27.7997947  34.2688870  32.4351549  28.7587261  35.3260112
  22.2661042  47.5166559   0.7630863  22.6691008  48.3554888   0.5390640
  22.9337597  47.0590401   1.2740220  69.3367243  78.6323595  48.0876637
  68.9066839  79.2848253  48.6404657  69.4342089  79.0642500  47.2390175
  39.5749235  62.8470373  11.0476327  38.9072824  63.0503368  10.3925335
  40.0395775  62.0907545  10.6893468  28.6867952  10.6414676  57.4461365
  28.3508539   9.8281538  57.8228235  28.4907889  10.5715859  56.5118265
   0.3072111  33.6561394  30.8165288  -0.2157508  33.5748935  31.6141129
   0.2940344  34.5919585  30.6157732   8.3264625  73.7119246   2.9287925
   8.7205070  74.3432570   2.3268114   8.0502903  72.9867649   2.3683432
  25.2873373  79.0130091   2.7245104  25.7285047  78.4041214   3.3168435
  24.8577332  78.4509802   2.0796899  41.4191723  56.0968018  16.6599917
  40.4872322  55.8783436  16.6608810  41.6557121  56.1409569  17.5864542
   2.2957471  20.2567124   5.8253014   2.6198536  19.3575728   5.8776176
   1.5118569  20.2610874   6.3745999  41.0517168  58.7397289  30.8630753
  41.3334131  59.6041489  30.5636430  40.1301241  58.8550377  31.0945964
  36.9094682  74.1584969  47.1044111  36.8504286  73.9074469  48.0262136
  37.4974966  74.9137640  47.0990610   7.0255750   9.9134660  45.9474850
   6.8265003  10.4011154  45.1482344   6.3803089  10.2222943  46.5834761
  16.0560131  26.0716772   2.2020452  16.9369531  25.9566355   2.5583342
  15.8503890  25.2299881   1.7952165  18.3244216  76.4974165  18.2122838
  19.1668606  76.8534327  17.9298306  18.2886910  76.6825390  19.1507316
  54.0274811  37.5847602   8.0158818  54.7935534  37.5819254   7.4419856
  53.5863733  38.4119487   7.8224599   2.8712660   1.9168226  61.9324207
   2.7796897   1.6920836  62.8583431   2.1785222   2.5575617  61.7718220
  12.3314619  63.0051565  57.3203325  12.7031028  63.8126945  57.6752949
  13.0856872  62.4292612  57.1949577   0.5433060  18.2179654  64.5901108
   1.3701475  18.1131911  64.1193771  -0.1268567  17.9588795  63.9576626
  26.1875272   2.5049949   4.7273088  26.9559956   3.0740440   4.7705805
  26.4963555   1.6601695   5.0546134  22.1793509  74.7391367  65.1692200
  21.2252235  74.8013353  65.1244354  22.4850249  75.1658535  64.3687773
  33.1767750  55.1716709  26.5128326  33.8863826  55.4624176  25.9399843
  32.7978683  55.9814787  26.8546939   0.7288130  11.8836474  11.5938294
   1.1961275  12.6928163  11.3862360   1.4015317  11.3031125  11.9497228
  70.6285477  71.5984488  34.8636580  70.4143524  72.2487211  34.1947079
  71.3499308  71.0951424  34.4861364  52.5628233   4.1814777   0.1001590
  52.2720242   3.4814683   0.6846702  51.9878340   4.9188298   0.3049184
   0.9849899  35.8792019  66.6407490   1.6900264  36.1989403  66.0777903
   1.2105686  36.2013054  67.5134468  35.8313894  10.3126204  54.6114159
  35.6019211  11.2021327  54.3424463  35.4158139  10.2064288  55.4671335
   5.2116632  16.2564361  58.5236979   4.3120310  16.4410722  58.2538795
   5.7302445  16.3796377  57.7286386  15.4901826  44.3628693  49.4860125
  15.1290572  45.0480747  50.0484324  16.2177873  43.9982080  49.9898434
  15.4504704  55.1988649  67.5902557  16.1614025  55.3012228  68.2229710
  15.7032204  54.4382668  67.0669651  38.5980201  70.9072065  30.5528760
  39.0612507  70.2298737  31.0456991  37.6842070  70.6223011  30.5550456
   5.5060273  61.6272163  67.1560049   5.9139270  61.9329262  66.3458204
   4.6929002  61.2095976  66.8720150  81.2542534  61.0593700  20.3046870
  80.3269482  60.8224297  20.2908683  81.6398144  60.5599833  19.5848358
  12.5466430  31.6478968   2.3998666  13.4147751  31.5841794   2.0017214
  12.0643151  32.2453880   1.8283810  26.0590315  45.6770897  15.3954983
  25.3740406  45.1158667  15.0321078  26.8765998  45.2919245  15.0801218
  33.8689208  41.9270325   9.2940205  33.8164854  41.3806534  10.0782084
  34.3172526  41.3790607   8.6498481  73.4287548  51.9011736  29.9648428
  73.2355547  52.3111963  30.8079243  73.5187531  50.9697962  30.1665020
  48.5257387  69.0098858  13.3983171  48.3247900  69.4915915  12.5959384
  49.4537354  68.7890434  13.3190513  29.3201876   7.7451855  46.0494041
  29.0845633   6.9140708  45.6371403  29.0835977   7.6315033  46.9699097
  40.7525730  75.9810448   2.8391179  40.8252716  75.9385014   1.8856315
  40.3169870  76.8162775   3.0090836   5.9367228   6.4636797   0.1248481
   5.1329851   5.9510839   0.2113514   5.6692272   7.3626298   0.3160713
  36.0625243  72.9034424   0.8712621  36.2687826  72.7045870  -0.0420535
  36.0124636  73.8588047   0.9029672  60.5684042   5.9055698  20.6762052
  59.8252726   5.8160752  20.0795650  60.2161503   6.3824975  21.4276624
  30.9900999  18.9368880  23.7967896  30.3476906  18.9492381  24.5062900
  30.6151032  18.3452618  23.1444192   5.1938510  20.8091688  57.2268438
   5.4543155  21.7290831  57.1805000   4.3122596  20.8283210  57.5992155
  16.9884872  68.8218784  29.9890208  16.6091061  68.1829166  29.3856716
  17.0869875  69.6168995  29.4651175  81.0838699  23.4582973  65.1985979
  80.6048965  23.3648062  66.0220575  81.8570709  23.9736319  65.4284334
  28.9253616  64.4078064   2.1141744  28.0007982  64.5350409   2.3268387
  29.2815590  65.2942514   2.0543765  75.7349300  25.7503796  18.4527946
  76.6283703  25.4254580  18.5642302  75.8250761  26.7033219  18.4512651
  45.8933077  54.3122391   0.4981024  46.1315034  54.2264406  -0.4250067
  44.9391649  54.2363648   0.5073101  78.1906796  71.0482693  51.3795662
  77.4868870  71.6715622  51.5596008  78.2812071  71.0578918  50.4267073
  46.8231392  61.3696146   7.7424735  47.1354437  60.9109497   8.5224265
  47.0901346  60.8105230   7.0128417  39.1692638  55.6988287   8.9723790
  38.2556558  55.5532217   9.2180479  39.6740174  55.2451611   9.6473902
  40.3013945  12.4966168  21.7856550  40.3679419  11.9027686  22.5334167
  41.1208105  12.3716903  21.3069224  37.1171784  52.2813272  37.8443122
  36.3940501  52.8297615  37.5401044  36.6909552  51.5271425  38.2514596
  58.5403872  24.5076203  16.3579655  58.9211607  23.9114738  15.7130992
  59.1749716  25.2207065  16.4289701  27.2979784  78.6444998  23.7316990
  27.3063946  79.0812349  24.5834184  26.9758630  77.7625751  23.9179325
  61.5694332  57.1118879   5.6541371  62.0442915  57.4271154   6.4231449
  60.6749201  56.9730663   5.9652746  13.1753922  26.5843892  60.4921675
  12.3969960  26.1144161  60.7912636  13.8502085  26.3629317  61.1338949
  83.1243134  38.5247922  61.9401979  83.7427139  38.3111382  62.6388884
  82.9394245  39.4562244  62.0605373  38.4194827  36.5901875  14.5657563
  38.8204551  36.1605692  15.3213227  37.9560471  35.8881211  14.1090715
  22.6485062  74.0721369   4.3967319  21.9743443  74.6118975   3.9839441
  22.6983023  73.2896709   3.8476455  21.0775065  26.7469573  25.1794910
  20.1949835  27.0415998  24.9546123  21.6131377  26.9991350  24.4273376
  12.9231906  15.6182384  27.0667887  13.6257088  15.5483103  27.7131701
  12.1424747  15.8201921  27.5824714  44.4760990  41.9885826  67.6311827
  44.2127466  42.7762842  67.1553612  43.8302517  41.9053984  68.3327484
  56.6770697   7.3885864  25.8794928  56.2620354   6.5283340  25.9423089
  55.9802389   7.9689038  25.5730724  38.4028149  67.0551682  62.6362705
  37.9872370  66.3401270  62.1543550  38.2109571  67.8366613  62.1179152
  42.0886660  17.9842842   9.0178502  42.0733213  17.2468257   9.6278924
  42.8816986  18.4686315   9.2474979   2.5379509  53.9707184  22.7547073
   1.8494092  53.5327482  22.2543836   3.2018411  53.2947683  22.8909993
  24.0259981  70.2133226   1.5312542  23.4484243  69.5223570   1.2068979
  24.5897961  69.7747326   2.1684381  59.7830534   2.9485071  21.8058538
  59.8020887   3.7019950  21.2158322  60.6613970   2.5732031  21.7434692
  17.2270787  75.4847860   1.0889418  16.9146776  75.7738018   0.2315576
  16.7634964  76.0428381   1.7133638  72.3306417  22.4563861  46.7977095
  72.0123816  23.2018304  46.2885380  71.8387985  21.7079926  46.4597273
  14.7734892  41.7021132  47.3317719  15.4953933  41.5049839  46.7349243
  14.4419682  42.5496054  47.0349884  42.7989531  47.6283598   3.4998542
  41.9613695  47.2476435   3.2357633  42.5606298  48.3593798   4.0699801
  52.5333261  15.1453483   4.1277668  52.1580935  14.4684517   4.6910113
  51.9202805  15.2149332   3.3959460   7.7930343  63.1895924  15.0724304
   8.6309999  62.9796600  15.4847097   7.5266081  64.0146780  15.4779971
  42.7825451  58.8292122  19.8009753  43.3114767  59.5202446  19.4023025
  41.9169044  59.2229223  19.9099910   5.5333883  44.9497604   3.2281768
   5.6099617  44.2687368   3.8964376   5.1885504  44.4941044   2.4602601
  18.7011409  54.0019274  54.6236372  18.4978008  54.9370098  54.6011639
  18.0265856  53.6236191  55.1876259  44.6614599  63.3812094   1.0943063
  44.9980593  62.4883032   1.1694831  45.3255510  63.9240837   1.5191677
  41.1966324  56.2608671  24.2375875  41.4154243  55.3939819  24.5794487
  41.8291855  56.8481541  24.6513486  14.1106415  63.0315542  14.6470571
  14.3491006  62.4710369  13.9086878  13.5705876  63.7206173  14.2600548
  74.1154623  27.5974298  61.5100574  73.7618542  26.7167044  61.3855076
  73.8138962  28.0870318  60.7448244  35.7732105  66.4218903  10.5215549
  35.3510427  66.3237619  11.3750064  36.6376567  66.7808676  10.7218075
  30.4239464  22.2272921  16.7932498  31.2533545  22.4889016  17.1930921
  29.7544765  22.5585461  17.3918438  68.4549665  12.2847688  25.8729100
  68.8299131  11.4294291  26.0827756  68.5917902  12.8067601  26.6635013
   1.9071446  43.7142754  10.6796026   2.8365690  43.5016394  10.7643831
   1.4696276  42.8638887  10.6389475  28.0912662   9.8617458  54.6192598
  27.7264595   9.7132385  53.7468529  27.5767589   9.2947286  55.1937199
  72.9669189  14.6653259  36.3261580  72.4180174  15.0601101  35.6485987
  72.3659945  14.4932616  37.0510817  31.7737293  56.9940138   0.8175400
  31.4294696  57.7380133   1.3116857  31.5211797  56.2273312   1.3319798
   3.4713790  76.6530228  26.9038224   2.9071316  76.9181442  27.6301599
   3.3491197  77.3356438  26.2440419  52.1104145  49.6915722   4.4624013
  52.4596024  49.3645716   5.2914786  51.2016010  49.3913364   4.4502339
  65.6192446  16.0224140  59.0006304  65.1720190  15.1962852  58.8169622
  66.1459446  16.1886072  58.2188368   9.4488537  24.8419905  21.3624358
   8.9991897  24.4820333  22.1269393   9.5917255  24.0872955  20.7912493
  31.8712234  59.6986914   5.8472723  31.4033031  58.9760780   5.4288155
  31.9432592  59.4376564   6.7653692  14.1545904  61.9357395  53.6425066
  14.8723781  62.4675703  53.9862680  14.3071294  61.0636187  54.0063334
  15.5082774  54.3729448  41.8128443  15.4136002  55.0599480  42.4726105
  16.3178146  53.9214468  42.0516586  16.3244224  59.4650507   9.7805542
  17.0538926  59.9054909   9.3445289  15.5744040  60.0413704   9.6337277
   3.1333053  20.8468103  50.0956392   3.8715228  21.0994577  49.5411730
   3.4609538  20.9442091  50.9897280  68.1853199  32.2304511  57.0436907
  67.2632980  32.0649338  57.2404385  68.3894634  31.6280723  56.3283587
   9.2872602   9.1848636  65.0256872   8.7478167   8.5459030  65.4914761
   8.6568290   9.7775543  64.6164131  48.4125042  18.2525456  50.9839058
  48.0106544  17.4003994  50.8147955  48.8035250  18.1646836  51.8531656
  75.9459686  13.0650043  68.0302238  75.8589840  14.0167701  67.9772329
  75.3313589  12.7315581  67.3765421   6.3956857   7.8615689  51.6464901
   5.7364595   8.5256481  51.4448690   7.0878112   8.3414942  52.1013117
  63.0527401  56.6533899  27.6228762  62.7399874  56.5366459  28.5199738
  63.6477995  57.4015284  27.6721311  24.0093017  49.6496820  64.9590969
  23.1626844  49.3050146  65.2431393  23.8436007  50.0008678  64.0842009
  14.8922217  36.2250376  10.0389385  14.2699659  35.9039307   9.3863147
  15.7378519  35.8782077   9.7545975   6.0759789  58.0135393  14.4236743
   5.4895866  58.6575317  14.8207271   5.7394201  57.1680593  14.7205281
   5.2556449  37.9532719  67.2119570   4.9237761  37.5692391  66.4004087
   6.2076247  37.8889966  67.1355772  63.5701609  20.3961778  34.4099474
  63.7266016  21.1992717  34.9067330  62.9241991  20.6453919  33.7489963
  31.9424772  63.5641432  53.2609463  31.4800930  64.2488813  52.7776623
  32.8150702  63.5413313  52.8681469  20.5144954  74.7574520   6.4224839
  20.8509445  75.2094460   5.6487036  19.6560574  75.1520872   6.5760338
  23.6608362  44.4053411  52.7954483  22.8885841  44.5016193  52.2381449
  23.4663057  43.6463261  53.3452559   4.4540587   8.4195989  13.0501759
   5.3043258   8.5143787  12.6208818   4.2417675   7.4907327  12.9586744
  68.1892538  21.8673944  61.4908791  68.6864758  22.2301841  60.7578182
  67.3219013  21.6893840  61.1272192  71.9101000  44.8053646  39.1463017
  72.4300241  45.5288744  39.4962144  72.1235132  44.7863102  38.2133913
   7.5413668   4.0752205  38.0255032   7.9899836   3.4421578  37.4649620
   6.6400540   4.0839148  37.7033353  27.6839590  31.9772649   2.2665344
  26.8016934  31.6883659   2.4997254  27.5890708  32.9117203   2.0820805
  38.0594063   8.8756549   4.2774019  37.1227646   8.9079708   4.0827447
  38.4727836   9.3260682   3.5408708  21.8550920  79.0642166  13.6308670
  22.5588822  79.1439152  12.9870033  22.1904969  78.4422827  14.2765725
  44.5537138  60.9945154  38.0572438  44.3867254  61.6996861  37.4318838
  45.0135231  60.3268909  37.5482368  32.9532504  12.8805983  17.1281862
  33.1081963  13.3294928  17.9592800  32.4310613  12.1137822  17.3638630
  54.0143681  61.5853167  28.5201645  53.2978344  62.1366119  28.8346243
  54.1306067  61.8422890  27.6054573  50.4309559  75.0396347  22.6745009
  50.5855989  75.1251841  21.7337561  50.2727604  75.9350300  22.9736233
  45.6885576  57.2776175   1.3084425  45.5421972  56.4343405   0.8798503
  44.9529505  57.3693895   1.9139938  11.2019849  29.8941636  67.9741144
  11.2459946  28.9520144  67.8108692  10.2703285  30.0715303  68.1036901
  21.2466192  56.5218163  68.3118057  21.7080736  57.3085165  68.0212975
  21.5321565  55.8388281  67.7049875  58.0383396  13.2032311  40.6548500
  58.8531733  13.4705746  40.2296400  57.8759623  12.3187888  40.3267813
  68.8931465  77.9275894  22.3337007  69.3940115  78.3576345  23.0268312
  69.3852186  78.1111813  21.5334558  76.2647676  35.1033139  64.0819454
  75.8964062  34.9387097  63.2139301  77.2111082  35.1265383  63.9400625
   8.2241935  51.0886621   2.8975707   8.7210017  51.8545961   3.1852424
   8.7395179  50.7256317   2.1772361   6.8002921  48.1362104  53.2860947
   7.1437716  47.2849751  53.0147076   5.9695584  47.9332352  53.7161160
  66.5661812  27.0155931  24.6711135  67.0679474  26.2393045  24.4224358
  66.4338303  27.4885631  23.8495207   6.5421933  74.7671461  46.0704184
   5.9726763  75.5117702  45.8769798   7.0657182  75.0540447  46.8186426
  74.6441078  33.0547404  52.2784281  74.0029287  33.7580514  52.1760702
  74.7577286  32.7038050  51.3951588  60.6479263  22.0468855  65.2790117
  61.4163542  21.5597105  64.9816751  59.9202871  21.6731501  64.7819233
  63.6715317  66.5568781  21.9397616  62.9717922  66.2977934  22.5393200
  64.0419149  67.3478508  22.3314404  47.4176788  33.3362460  13.8691139
  48.1019258  33.8428378  13.4316194  46.7774916  33.1542706  13.1811631
  34.3311524  76.9746733  55.8586645  33.5898232  77.0357037  56.4611101
  34.2271852  77.7254963  55.2741194  28.1202769  54.0488720   1.4115790
  28.7825489  54.7381163   1.3608742  28.5805368  53.3021879   1.7947909
  40.5221605  54.5637274  11.0861778  40.9426546  53.7241936  11.2721968
  40.5733871  55.0453997  11.9117689  71.5667534   8.7638897  45.9580851
  71.9337130   8.4261376  46.7750883  71.4483595   9.7002262  46.1177349
  19.3296313  55.9857416  42.3876619  19.4063795  56.8668795  42.7536345
  19.3401277  55.4077625  43.1505919  60.2784634  73.0230808  65.0294447
  59.5560837  73.5924196  65.2945042  60.2059078  72.2608948  65.6039333
  44.1939020   1.1216740  65.2064943  43.8968706   1.5177301  64.3872643
  44.2754173   1.8579279  65.8127308   1.5927704  30.4392195  65.0810432
   1.3633341  30.6029463  65.9958029   0.7629020  30.5109239  64.6094418
   6.4130491  14.0489292  59.4621658   7.3569059  14.1293335  59.3246794
   6.0650021  14.9140763  59.2462635  26.1286974  31.4810729   7.9045159
  26.4546061  31.7254639   7.0383239  26.1698842  32.2908878   8.4131759
  15.0617087  28.1671119   3.5269681  15.5621052  27.4525952   3.1328878
  14.2607284  27.7511764   3.8458079  22.0659828  36.8872499  16.4109981
  22.5305223  36.0529375  16.3449681  22.3394656  37.3757601  15.6345987
  18.2853568  50.8031702   9.6051335  17.3670614  50.7731962   9.8735869
  18.2536650  50.8895969   8.6523700  50.5054092  65.6301212  54.0438795
  50.2254343  66.4726591  53.6861372  50.5174494  65.0415468  53.2891226
  28.0965877  19.6805251   9.4449198  27.7394485  20.1542306  10.1961088
  28.3499813  20.3666830   8.8274980  35.2283788  65.8584881  36.4973354
  36.0851169  66.0567474  36.8753910  34.6341991  65.8391905  37.2475410
  82.9676247   4.4764832  52.9051924  82.3213959   5.1147085  52.6030445
  82.6423931   4.1923726  53.7594366  30.6977344  35.3345370  65.1814651
  29.9381423  34.7966242  65.4048538  31.4369464  34.8885870  65.5948973
  43.8861370  43.4084702  10.2425599  44.3739891  43.0713034   9.4911939
  44.1137981  44.3375063  10.2786100  26.1247230  29.0849233   2.1769466
  25.7365632  29.4381475   1.3764489  26.9420815  28.6791611   1.8879628
   6.1677557  47.7817726   2.7459732   5.3373235  48.1779671   2.4820761
   5.9694272  46.8500805   2.8400469  65.7881880  63.0106068  54.2358065
  65.0545979  62.5450802  53.8341188  66.2312698  63.4375525  53.5025740
   5.7996368  34.8395205  66.1897659   5.1652479  34.6456051  66.8798256
   6.6458064  34.8457599  66.6371918  14.4367504  13.5477173  25.7442284
  15.0178051  14.2668295  25.4962683  13.6999166  13.9749062  26.1810565
  70.0237799  60.7180357  48.2986546  69.6119642  61.3201523  47.6788998
  69.7080469  59.8528671  48.0378294  40.4331207  71.4018106  13.3785284
  40.5038214  72.2313595  13.8508451  39.8727083  70.8580160  13.9321125
  15.4364765  30.8116055   0.9918212  15.6318569  29.9152589   0.7186512
  16.2282312  31.1019564   1.4446476  52.1953392  35.7991624  13.8500333
  52.0576811  34.8763037  13.6364579  52.5078630  35.7915950  14.7547460
  29.9269414   9.7929686   8.0734670  29.3480492   9.5217341   8.7858903
  29.3353033  10.1162851   7.3940098  52.4824238  30.4442120   6.8125242
  53.1943321  30.2585769   7.4248618  52.4451256  31.3997912   6.7711812
   4.7341710  40.0790596  22.8696561   5.3309327  39.6825576  22.2349167
   4.5515046  39.3790197  23.4964013  61.3011122  68.0470324   0.0243496
  60.5823946  68.0497313  -0.6078402  61.1062479  67.3117495   0.6053970
  11.5252709  15.5543709  52.0252275  11.6067064  16.0843217  52.8181648
  12.2968888  15.7803416  51.5058279  24.1707134  48.4719515   9.0739936
  23.9672852  48.3138418   8.1521201  25.0761843  48.1778622   9.1733158
  82.6753902  66.0149860  60.1498461  82.2884560  66.4009857  59.3640232
  83.6157227  66.1649227  60.0522375  49.6628475  61.4305830  64.9351931
  50.2506447  62.1054363  64.5956326  49.6682501  61.5631342  65.8831549
  14.8180389  71.4453030  21.4297676  15.5667651  71.2710857  20.8594275
  14.9645281  72.3344898  21.7524338  29.8620009  67.6225233  57.7646780
  30.4004383  66.8311310  57.7683687  30.4786444  68.3308983  57.5797749
   9.2589945  31.7154646   0.9982186   8.5480452  31.5760565   0.3726397
   9.8099542  30.9375024   0.9119144  59.9265432  14.6000671  11.5391529
  60.2679443  14.1539645  12.3141813  58.9832783  14.6569848  11.6916168
  41.6557360  59.0806484  34.2222929  40.7159138  58.9537954  34.0923929
  42.0573092  58.7242746  33.4298491  34.9604654  37.3153162   1.7581654
  34.9109030  36.7316580   1.0011193  35.8757091  37.2713470   2.0349802
  23.7994146  21.7166090  63.5136604  23.7393951  21.4094257  62.6090765
  24.7390175  21.7509031  63.6931133  53.1045675  76.8708324  52.8070116
  53.0416965  77.1502113  51.8936539  52.2268677  76.5550375  53.0218458
  31.2830424  46.0719109  21.3992643  32.0575500  45.9183121  20.8581758
  30.5992651  46.3151693  20.7751608  20.9597731  28.0243659  34.7519350
  20.8664393  28.5958290  33.9897346  20.5280495  28.4995747  35.4618788
  81.5231419  41.5818930  56.3389826  81.6438103  41.0045671  57.0928812
  82.1722412  42.2746372  56.4614820  14.6407366  51.0154629   8.4314042
  14.9641359  50.6158876   9.2388588  15.1327169  51.8329859   8.3549863
  34.6676993  50.0539398  10.0885451  34.8457932  50.3995705  10.9632182
  35.5181861  50.0636148   9.6494424  78.0412579  71.2011433  58.7099457
  77.2805262  71.4441442  58.1822443  77.7489424  71.3082314  59.6151066
  79.3956852  23.0587935  47.7473593  79.0545702  23.6602426  47.0854473
  80.1344490  23.5259700  48.1375027  32.2711706   7.4457669  45.8945084
  33.0165601   7.3332298  46.4843893  31.5032625   7.3308092  46.4542675
   2.1176001   7.5149012  15.2676916   1.4385122   7.1756458  14.6846151
   2.1110554   6.9178915  16.0158682  41.2210369  72.0408154   4.2315218
  42.0900297  71.6745758   4.3956724  40.9185839  71.5946293   3.4405258
  10.7108152  71.8697023   4.3353492  10.8164668  72.5824308   3.7052035
  10.7510936  71.0735703   3.8054556
  83.7875345  83.7875345  83.7875345 109.4712190 109.4712190 109.4712190
